Title
81245
    1CHL1    C3    1   2.601   4.155  10.181 -0.1824  0.3515 -0.2399
    1CHL1    H3    2   2.658   4.228  10.120  2.7408 -0.5579  1.3098
    1CHL1    O3    3   2.554   4.226  10.293  0.2293 -0.1207 -0.0791
    1CHL1   H3'    4   2.542   4.159  10.360  1.1304 -0.0579  0.1500
    1CHL1    C4    5   2.482   4.099  10.101 -0.0417  0.2228 -0.6431
    1CHL1   H4A    6   2.438   4.018  10.164  0.5355  0.1291 -0.3634
    1CHL1   H4B    7   2.406   4.177  10.079  0.0350  0.8569  1.2865
    1CHL1    C5    8   2.532   4.042   9.970  0.0556  0.2461 -0.0265
    1CHL1    C6    9   2.475   4.078   9.852 -0.2997 -0.0669  0.0361
    1CHL1    H6   10   2.383   4.137   9.863 -0.0595  0.1136  1.1556
    1CHL1    C7   11   2.513   4.020   9.719  0.7480 -0.7701 -0.2148
    1CHL1   H7A   12   2.422   3.996   9.659  0.0641  2.3406 -0.5051
    1CHL1   H7B   13   2.576   4.095   9.667  1.4962 -0.5726  0.9588
    1CHL1    C8   14   2.610   3.901   9.732 -0.3063  0.2101 -0.4458
    1CHL1    H8   15   2.557   3.807   9.757  1.2412  0.2188  3.3095
    1CHL1   C14   16   2.684   3.875   9.601  0.2430  0.0297 -0.4653
    1CHL1   H14   17   2.752   3.962   9.592 -0.0169  0.3835  0.8222
    1CHL1   C15   18   2.607   3.862   9.468 -0.2980  0.2826 -0.2361
    1CHL1  H15A   19   2.518   3.800   9.488 -0.2692  0.3550  0.1234
    1CHL1  H15B   20   2.581   3.965   9.434 -0.5558  0.6725  1.1010
    1CHL1   C16   21   2.694   3.780   9.363  0.2840 -0.6912  0.4172
    1CHL1  H16A   22   2.646   3.687   9.325  0.4996 -0.4611 -0.4422
    1CHL1  H16B   23   2.725   3.846   9.279 -0.1479 -0.9670  0.0352
    1CHL1   C17   24   2.821   3.747   9.454 -0.2211 -0.3742 -1.1516
    1CHL1   H17   25   2.883   3.838   9.440  0.9668 -0.8794  0.6398
    1CHL1   C13   26   2.776   3.755   9.604  0.2170  0.1691  0.3185
    1CHL1   C18   27   2.687   3.627   9.628  0.1103  0.3178  0.4908
    1CHL1  H18A   28   2.753   3.539   9.627  0.2428  0.3889  1.7298
    1CHL1  H18B   29   2.634   3.632   9.726 -0.4497 -1.1330  0.2704
    1CHL1  H18C   30   2.606   3.614   9.553  0.7282 -0.4363 -0.0464
    1CHL1   C12   31   2.887   3.766   9.704  0.1423 -0.1975 -0.4426
    1CHL1  H12A   32   2.939   3.671   9.728 -1.1026 -0.5983  0.6848
    1CHL1  H12B   33   2.966   3.836   9.670 -0.5391  0.2668 -1.0948
    1CHL1   C11   34   2.832   3.805   9.841 -0.1239 -0.2068 -0.8228
    1CHL1  H11A   35   2.779   3.715   9.879  0.4080  0.3512  1.3294
    1CHL1  H11B   36   2.914   3.827   9.912  0.3579  0.1140 -1.4758
    1CHL1    C9   37   2.725   3.923   9.837  0.5800 -0.1231 -0.7453
    1CHL1    H9   38   2.780   4.017   9.815 -0.0074  0.4766  0.2763
    1CHL1   C10   39   2.655   3.945   9.972 -0.1285 -1.2996 -0.4010
    1CHL1   C19   40   2.593   3.812  10.023  0.7918 -0.6202  0.8030
    1CHL1  H19A   41   2.511   3.783   9.953 -0.6408  0.7285  1.8909
    1CHL1  H19B   42   2.656   3.722  10.041  2.2611 -0.2822 -2.2433
    1CHL1  H19C   43   2.542   3.821  10.121  0.0251  2.1256  0.1796
    1CHL1    C1   44   2.762   3.997  10.074  0.1249  0.0165  0.0961
    1CHL1   H1A   45   2.840   3.925  10.108 -2.7399 -2.4326  1.7418
    1CHL1   H1B   46   2.817   4.082  10.027  0.2294  0.3555  0.8162
    1CHL1    C2   47   2.701   4.049  10.210 -0.7286  0.1703  1.5845
    1CHL1   H2A   48   2.786   4.098  10.262 -0.4704  2.6048 -1.0325
    1CHL1   H2B   49   2.656   3.975  10.281 -0.6810 -0.9129  0.4995
    1CHL1   C20   50   2.898   3.618   9.420 -0.0959 -0.3560  0.3825
    1CHL1   H20   51   2.929   3.570   9.515 -0.9102  1.1060  1.4147
    1CHL1   C21   52   3.024   3.669   9.347  0.1309  0.0207  0.4453
    1CHL1  H21A   53   2.991   3.706   9.247 -1.2747  1.1678  1.3096
    1CHL1  H21B   54   3.098   3.587   9.336 -0.4159 -0.5856  1.2295
    1CHL1  H21C   55   3.069   3.756   9.399 -0.1734  0.2726  0.2836
    1CHL1   C22   56   2.825   3.511   9.335 -0.0296 -0.1435 -0.1429
    1CHL1  H22A   57   2.726   3.489   9.381  0.4993 -1.0686  0.5697
    1CHL1  H22B   58   2.805   3.539   9.230 -0.0975 -1.7491 -0.5698
    1CHL1   C23   59   2.892   3.373   9.328  0.2525 -0.7292 -0.2247
    1CHL1  H23A   60   2.979   3.398   9.263  0.5480  0.7627  0.7235
    1CHL1  H23B   61   2.937   3.344   9.425  0.4335 -0.3850 -0.2058
    1CHL1   C24   62   2.791   3.273   9.254  0.0396 -0.1519 -0.0021
    1CHL1  H24A   63   2.722   3.221   9.324 -0.0631  0.0365  0.0366
    1CHL1  H24B   64   2.731   3.326   9.177 -0.7277 -2.2123 -0.8872
    1CHL1   C25   65   2.863   3.164   9.175 -0.6709  0.0878  0.5692
    1CHL1   H25   66   2.780   3.097   9.143 -0.3786  0.8839 -1.9414
    1CHL1   C26   67   2.927   3.229   9.045  0.3756  0.6572  0.0450
    1CHL1  H26A   68   2.847   3.305   9.027 -1.1667 -0.6868  1.0139
    1CHL1  H26B   69   3.025   3.277   9.064 -1.1306  2.1562  4.7197
    1CHL1  H26C   70   2.925   3.160   8.958 -0.3591  0.3293  0.3171
    1CHL1   C27   71   2.975   3.089   9.251  0.3490 -0.1808  0.1620
    1CHL1  H27A   72   3.067   3.146   9.276 -0.3881  0.5683  1.2133
    1CHL1  H27B   73   2.944   3.047   9.350  0.5878 -0.3287  0.1749
    1CHL1  H27C   74   3.005   3.003   9.187  0.1436 -0.1240 -0.0099
    2CHL1    C3   75   4.213   1.722   9.877  0.0726 -0.3938  0.0838
    2CHL1    H3   76   4.316   1.764   9.885 -0.0192 -0.5137  2.1534
    2CHL1    O3   77   4.161   1.729  10.009  0.7012  0.0344 -0.4364
    2CHL1   H3'   78   4.211   1.659  10.052  0.9015 -0.1322 -0.9347
    2CHL1    C4   79   4.132   1.817   9.786 -0.7020 -0.2097 -0.5858
    2CHL1   H4A   80   4.025   1.784   9.787 -0.8321  0.2299  1.2857
    2CHL1   H4B   81   4.135   1.915   9.838 -0.1630 -0.2295 -0.5750
    2CHL1    C5   82   4.165   1.821   9.642  0.3975 -0.4194 -0.2202
    2CHL1    C6   83   4.204   1.927   9.568 -0.0524  0.3784  1.5509
    2CHL1    H6   84   4.217   2.024   9.616 -1.2082  0.2338  2.1727
    2CHL1    C7   85   4.236   1.925   9.416 -1.1221  0.2537 -0.9867
    2CHL1   H7A   86   4.173   2.010   9.381 -0.4106  0.7567 -1.0628
    2CHL1   H7B   87   4.342   1.951   9.394 -0.6710  1.2260  2.0234
    2CHL1    C8   88   4.188   1.790   9.351 -0.3804  0.5220  0.1092
    2CHL1    H8   89   4.078   1.792   9.340 -0.5526 -2.2878  1.0101
    2CHL1   C14   90   4.245   1.784   9.218 -0.4008 -0.9493 -0.9763
    2CHL1   H14   91   4.352   1.801   9.242 -1.1401  3.0845 -0.1874
    2CHL1   C15   92   4.206   1.891   9.113 -0.1268  0.0312 -0.6511
    2CHL1  H15A   93   4.096   1.908   9.102 -0.0422  1.5888  0.7266
    2CHL1  H15B   94   4.249   1.987   9.149  1.7896 -1.0315 -0.0716
    2CHL1   C16   95   4.270   1.841   8.985  0.1708 -0.1942  0.2917
    2CHL1  H16A   96   4.194   1.850   8.903  0.4343  0.0627  0.0759
    2CHL1  H16B   97   4.366   1.890   8.958  1.4637 -3.2147 -0.7972
    2CHL1   C17   98   4.304   1.696   9.013  0.3079 -0.6261 -0.4170
    2CHL1   H17   99   4.409   1.710   9.047  0.6829 -1.9622 -1.0161
    2CHL1   C13  100   4.227   1.653   9.143  0.4716 -0.4537 -0.6398
    2CHL1   C18  101   4.076   1.636   9.118 -0.0771 -0.0538  0.8391
    2CHL1  H18A  102   4.062   1.561   9.037 -0.7023 -0.3488  1.2144
    2CHL1  H18B  103   4.010   1.618   9.206 -0.4438  1.3852  0.8701
    2CHL1  H18C  104   4.027   1.714   9.056 -1.4050 -1.2651  0.3208
    2CHL1   C12  105   4.296   1.537   9.217  0.0578 -0.2441  0.4657
    2CHL1  H12A  106   4.294   1.439   9.166 -2.0123 -0.9747  1.9110
    2CHL1  H12B  107   4.402   1.566   9.231  0.3246  0.2020 -2.0921
    2CHL1   C11  108   4.237   1.534   9.366  0.4446 -0.6679  0.0979
    2CHL1  H11A  109   4.136   1.490   9.353  0.9370 -1.5196 -1.0169
    2CHL1  H11B  110   4.297   1.459   9.422  2.2037 -0.3936 -1.3749
    2CHL1    C9  111   4.237   1.678   9.434  0.1905  0.5266  0.1819
    2CHL1    H9  112   4.348   1.678   9.442  0.3365 -1.1153 -1.3187
    2CHL1   C10  113   4.167   1.676   9.574  0.3086  0.2744  0.6165
    2CHL1   C19  114   4.016   1.630   9.549 -0.3216 -0.7899 -0.2338
    2CHL1  H19A  115   3.949   1.679   9.623  0.7315 -1.6393  1.3117
    2CHL1  H19B  116   3.995   1.644   9.441  2.1557 -1.9689 -0.8938
    2CHL1  H19C  117   4.016   1.521   9.569  0.5631 -0.9722 -1.1884
    2CHL1    C1  118   4.241   1.577   9.669 -0.3458 -0.2595 -1.3852
    2CHL1   H1A  119   4.225   1.472   9.637 -1.9519 -0.7052  0.7543
    2CHL1   H1B  120   4.349   1.605   9.673 -0.2313 -0.6808 -1.4458
    2CHL1    C2  121   4.197   1.581   9.821 -0.5374  0.1693  0.3035
    2CHL1   H2A  122   4.264   1.523   9.889 -0.7589 -1.1697 -0.6198
    2CHL1   H2B  123   4.092   1.546   9.821  0.2988 -2.5028  0.7361
    2CHL1   C20  124   4.292   1.602   8.894 -0.0467 -0.2469  0.5810
    2CHL1   H20  125   4.245   1.508   8.932 -1.3424  0.6920  1.3687
    2CHL1   C21  126   4.434   1.567   8.843  0.3489  0.5530  0.2543
    2CHL1  H21A  127   4.498   1.546   8.932  1.4503 -0.5658 -0.7730
    2CHL1  H21B  128   4.488   1.654   8.801 -0.3552  0.5377 -0.6878
    2CHL1  H21C  129   4.428   1.496   8.758 -1.0512  0.8716  0.0883
    2CHL1   C22  130   4.192   1.644   8.786 -0.1730 -0.0399 -0.4684
    2CHL1  H22A  131   4.101   1.676   8.841 -1.2415 -1.9702 -1.0658
    2CHL1  H22B  132   4.236   1.738   8.747  0.7652 -1.0429 -1.8668
    2CHL1   C23  133   4.158   1.535   8.681 -0.0628 -0.7599 -0.3624
    2CHL1  H23A  134   4.254   1.527   8.626 -1.1105 -1.3599 -2.1602
    2CHL1  H23B  135   4.134   1.443   8.737 -0.0101 -0.7702 -0.3571
    2CHL1   C24  136   4.038   1.589   8.595 -0.0433  0.3183  0.4059
    2CHL1  H24A  137   3.955   1.608   8.666 -0.6320  1.8849 -0.6692
    2CHL1  H24B  138   4.054   1.684   8.539 -0.0761  0.7610  1.1356
    2CHL1   C25  139   3.989   1.483   8.488  0.5242 -0.6467  0.2191
    2CHL1   H25  140   3.981   1.386   8.540  1.4868 -2.0713 -2.2038
    2CHL1   C26  141   3.838   1.522   8.443  0.2905  0.4506  0.4725
    2CHL1  H26A  142   3.788   1.432   8.399  0.1231 -0.4886  2.5146
    2CHL1  H26B  143   3.770   1.552   8.526 -0.0092 -1.1345  0.8191
    2CHL1  H26C  144   3.846   1.597   8.362 -0.7635  0.7198  0.6059
    2CHL1   C27  145   4.072   1.463   8.364  0.7289  0.2935 -0.1401
    2CHL1  H27A  146   4.075   1.558   8.306 -3.0371 -0.3470 -1.4795
    2CHL1  H27B  147   4.176   1.435   8.392  0.1460 -0.7279  1.0780
    2CHL1  H27C  148   4.028   1.374   8.313  0.9364 -0.3900  0.8572
    3CHL1    C3  149   4.791   1.883  10.273  0.5003  0.2932  0.6060
    3CHL1    H3  150   4.703   1.948  10.256  0.7896 -0.1354 -2.7601
    3CHL1    O3  151   4.820   1.867  10.413 -0.2826 -0.0364 -0.3709
    3CHL1   H3'  152   4.898   1.812  10.413  0.2189  0.6739  0.9593
    3CHL1    C4  153   4.779   1.741  10.216 -1.0791 -0.8216 -0.0684
    3CHL1   H4A  154   4.876   1.695  10.244 -0.2529  2.4012  2.7512
    3CHL1   H4B  155   4.692   1.689  10.260 -1.1360 -0.1075  0.6735
    3CHL1    C5  156   4.758   1.752  10.067  0.0110 -0.1194  0.5909
    3CHL1    C6  157   4.651   1.704  10.006 -0.5148 -0.3609 -0.0491
    3CHL1    H6  158   4.576   1.652  10.068  0.1930  0.0647  1.1787
    3CHL1    C7  159   4.611   1.725   9.858 -0.2946 -0.2506 -0.1965
    3CHL1   H7A  160   4.564   1.634   9.816 -0.0843 -0.6159  0.3598
    3CHL1   H7B  161   4.529   1.799   9.847 -1.3214 -1.3147  0.1260
    3CHL1    C8  162   4.730   1.766   9.766  0.6372 -0.0418  0.2319
    3CHL1    H8  163   4.794   1.676   9.762  0.8946  0.1397  0.2350
    3CHL1   C14  164   4.682   1.805   9.625 -0.8674  0.9629  0.0704
    3CHL1   H14  165   4.598   1.877   9.636  1.2104  3.7613 -1.7758
    3CHL1   C15  166   4.630   1.695   9.532  0.4692  1.1994 -0.3716
    3CHL1  H15A  167   4.680   1.596   9.540 -0.9599  0.4504 -0.5552
    3CHL1  H15B  168   4.530   1.671   9.572  0.1129  0.9372 -1.4292
    3CHL1   C16  169   4.635   1.739   9.393  0.4127 -0.1450  0.3679
    3CHL1  H16A  170   4.681   1.666   9.324  0.8564 -2.1842  2.7640
    3CHL1  H16B  171   4.532   1.763   9.361  1.6282 -0.2701 -3.9011
    3CHL1   C17  172   4.712   1.875   9.397 -0.0390 -0.4066 -1.1407
    3CHL1   H17  173   4.634   1.954   9.406 -0.1329 -0.6796  0.5849
    3CHL1   C13  174   4.788   1.872   9.534 -0.4164 -0.3161 -0.1345
    3CHL1   C18  175   4.913   1.777   9.526 -0.3187  0.5660  0.5715
    3CHL1  H18A  176   4.989   1.820   9.458 -0.7822  0.3594 -0.0811
    3CHL1  H18B  177   4.967   1.766   9.623  0.8782 -0.8840 -0.2349
    3CHL1  H18C  178   4.883   1.675   9.494  3.0536 -0.8667  1.7564
    3CHL1   C12  179   4.831   1.998   9.601  0.7490 -0.6532  0.3582
    3CHL1  H12A  180   4.920   2.039   9.549  0.9383 -2.3146 -0.6708
    3CHL1  H12B  181   4.752   2.076   9.601  0.7198 -0.6706  1.4391
    3CHL1   C11  182   4.883   1.977   9.746  0.0820 -0.3379  0.0693
    3CHL1  H11A  183   4.985   1.933   9.739  0.6516  0.9056  0.3769
    3CHL1  H11B  184   4.896   2.075   9.797 -2.1987  1.4994 -2.7160
    3CHL1    C9  185   4.796   1.883   9.841 -0.2134  0.0537 -0.1788
    3CHL1    H9  186   4.722   1.952   9.887 -0.7072  0.9351 -2.2327
    3CHL1   C10  187   4.851   1.853   9.981  0.1826  0.1437 -0.1891
    3CHL1   C19  188   4.982   1.778   9.948  0.3006 -0.2861 -0.1042
    3CHL1  H19A  189   5.003   1.707  10.031  1.7301  0.4563  0.1946
    3CHL1  H19B  190   4.973   1.713   9.859 -1.6029  2.0447 -1.6978
    3CHL1  H19C  191   5.072   1.843   9.938 -0.3744  0.3346 -2.4666
    3CHL1    C1  192   4.873   1.978  10.069  0.3000  0.5060 -0.3376
    3CHL1   H1A  193   4.957   2.037  10.027  1.1981 -0.1991  0.4508
    3CHL1   H1B  194   4.780   2.038  10.081 -1.0814 -1.7777  0.7395
    3CHL1    C2  195   4.910   1.955  10.214  0.2182 -0.3720 -0.5343
    3CHL1   H2A  196   4.925   2.052  10.268 -1.8462  0.3755 -1.2477
    3CHL1   H2B  197   4.997   1.886  10.213 -0.1466 -0.8411 -3.3952
    3CHL1   C20  198   4.789   1.893   9.264 -0.2494 -0.3935 -0.7005
    3CHL1   H20  199   4.877   1.826   9.261  0.9136  0.8955  2.0678
    3CHL1   C21  200   4.837   2.043   9.252  0.0220 -0.6060  0.3476
    3CHL1  H21A  201   4.750   2.111   9.248 -1.5993 -2.6719 -0.3987
    3CHL1  H21B  202   4.883   2.057   9.152 -1.9886 -1.6994 -0.7589
    3CHL1  H21C  203   4.906   2.082   9.330 -2.1685 -2.9246  3.6176
    3CHL1   C22  204   4.706   1.857   9.137 -0.1194  0.3645  0.2411
    3CHL1  H22A  205   4.698   1.747   9.132  0.9670  0.1441  2.6247
    3CHL1  H22B  206   4.601   1.892   9.149 -0.7684 -1.5575  0.2576
    3CHL1   C23  207   4.758   1.898   8.993  0.1617  0.1884  0.1051
    3CHL1  H23A  208   4.759   2.009   8.984 -0.5205  0.1650 -0.2924
    3CHL1  H23B  209   4.862   1.861   8.980  0.2620  0.5977 -0.3133
    3CHL1   C24  210   4.666   1.852   8.870 -0.1279 -0.5630 -0.2878
    3CHL1  H24A  211   4.670   1.741   8.868  3.8532 -0.5737  3.2985
    3CHL1  H24B  212   4.563   1.889   8.889  0.8655  2.7004 -0.9248
    3CHL1   C25  213   4.708   1.899   8.731  0.9704 -0.8278 -0.7873
    3CHL1   H25  214   4.704   2.010   8.730  2.3888 -0.7574 -0.4479
    3CHL1   C26  215   4.847   1.851   8.687  0.5001 -0.3535 -0.6306
    3CHL1  H26A  216   4.886   1.892   8.591 -1.6770  0.1066 -1.3436
    3CHL1  H26B  217   4.925   1.875   8.763 -1.4742  0.8350  1.0480
    3CHL1  H26C  218   4.854   1.741   8.698  0.0606 -0.0938  2.5595
    3CHL1   C27  219   4.601   1.858   8.627 -0.1997  0.0157  0.2457
    3CHL1  H27A  220   4.494   1.874   8.652 -0.8564 -0.6319 -2.0292
    3CHL1  H27B  221   4.633   1.910   8.534  0.5804 -0.2093  0.3902
    3CHL1  H27C  222   4.605   1.748   8.610  2.2725  0.1496 -0.1554
    4CHL1    C3  223   3.936   3.753  10.322  0.2345 -0.0902  0.1653
    4CHL1    H3  224   3.971   3.648  10.321 -3.7506 -1.5013  0.0862
    4CHL1    O3  225   3.953   3.779  10.461 -0.7911  0.0103  0.6821
    4CHL1   H3'  226   3.908   3.862  10.479 -1.6463 -0.6491  1.6403
    4CHL1    C4  227   4.019   3.852  10.239 -0.3653  0.6584  0.5123
    4CHL1   H4A  228   3.986   3.955  10.264  4.2325  2.5369 -0.6043
    4CHL1   H4B  229   4.121   3.851  10.285  0.3687  2.6255 -1.0302
    4CHL1    C5  230   3.998   3.834  10.088  0.3085 -0.2807 -0.1489
    4CHL1    C6  231   4.101   3.818  10.013  0.6834 -0.3994 -0.4387
    4CHL1    H6  232   4.196   3.837  10.064  0.3593 -0.4855  0.2020
    4CHL1    C7  233   4.097   3.807   9.864 -0.0775  0.0354  0.4650
    4CHL1   H7A  234   4.169   3.870   9.806 -0.7662  0.5388  0.1541
    4CHL1   H7B  235   4.104   3.698   9.845 -1.4310  0.2493 -1.4422
    4CHL1    C8  236   3.953   3.829   9.803 -0.6047 -0.1728  0.0136
    4CHL1    H8  237   3.933   3.938   9.797 -1.8570 -0.4451 -0.9916
    4CHL1   C14  238   3.947   3.765   9.668  0.2538  0.7109 -0.1514
    4CHL1   H14  239   3.959   3.655   9.682  0.8652  0.9493  1.2568
    4CHL1   C15  240   4.052   3.806   9.564 -0.4335  0.0810  0.1059
    4CHL1  H15A  241   4.072   3.912   9.590 -0.6768 -0.0603  0.9019
    4CHL1  H15B  242   4.141   3.745   9.590 -1.3004 -1.0542  0.4654
    4CHL1   C16  243   3.993   3.768   9.429 -0.1753 -0.0887 -0.0332
    4CHL1  H16A  244   3.988   3.870   9.385  0.1063  0.3587  0.9619
    4CHL1  H16B  245   4.053   3.686   9.383 -1.8429 -0.9262 -0.7669
    4CHL1   C17  246   3.847   3.726   9.461 -0.5188 -0.3562  0.8161
    4CHL1   H17  247   3.850   3.615   9.470 -0.6261 -0.5514 -1.3161
    4CHL1   C13  248   3.815   3.793   9.597  0.2651 -0.1250 -0.2718
    4CHL1   C18  249   3.769   3.943   9.580 -0.2524  0.2531  1.0758
    4CHL1  H18A  250   3.675   3.951   9.520  0.1739  1.8286  0.5857
    4CHL1  H18B  251   3.754   3.989   9.680 -0.1294  0.9844  0.7607
    4CHL1  H18C  252   3.858   3.993   9.535 -0.0059 -1.8069 -0.8208
    4CHL1   C12  253   3.698   3.725   9.685 -0.0752 -0.5802  0.5776
    4CHL1  H12A  254   3.604   3.761   9.639 -1.1645 -1.6473  1.9127
    4CHL1  H12B  255   3.712   3.615   9.690 -1.1894 -0.6633  2.7531
    4CHL1   C11  256   3.699   3.768   9.836 -0.3572 -0.1477  1.2642
    4CHL1  H11A  257   3.661   3.872   9.844  1.1514  0.5939 -0.6520
    4CHL1  H11B  258   3.630   3.700   9.891  0.1867 -1.4341  0.3926
    4CHL1    C9  259   3.843   3.765   9.897  0.1175  0.0305  0.6177
    4CHL1    H9  260   3.869   3.657   9.893  4.5536  0.9181  1.7563
    4CHL1   C10  261   3.853   3.824  10.044  0.3639  0.4261  0.0021
    4CHL1   C19  262   3.783   3.968  10.044 -0.0982  0.3431  0.5857
    4CHL1  H19A  263   3.674   3.969  10.022 -0.1653 -0.7534  0.8627
    4CHL1  H19B  264   3.789   4.017  10.143  0.5043  0.8569  0.2988
    4CHL1  H19C  265   3.838   4.032   9.972 -2.1873  1.2403 -0.2518
    4CHL1    C1  266   3.765   3.725  10.137  0.7228  0.5613 -0.5855
    4CHL1   H1A  267   3.658   3.738  10.110  0.2748 -0.3927  0.7037
    4CHL1   H1B  268   3.802   3.623  10.110  0.3313  0.2652  0.0054
    4CHL1    C2  269   3.786   3.744  10.289 -0.8153  0.8161 -0.6416
    4CHL1   H2A  270   3.734   3.663  10.344  0.4612  0.8247  0.5892
    4CHL1   H2B  271   3.733   3.837  10.319 -1.5267  0.1357  0.2253
    4CHL1   C20  272   3.759   3.751   9.339 -0.5957 -0.4944 -0.3580
    4CHL1   H20  273   3.745   3.859   9.318 -0.4495 -0.1641  1.1501
    4CHL1   C21  274   3.620   3.675   9.351 -0.6895 -0.3386  0.1387
    4CHL1  H21A  275   3.646   3.568   9.343  0.0111 -0.1127 -0.5970
    4CHL1  H21B  276   3.557   3.699   9.262  0.0113  1.8895  0.2104
    4CHL1  H21C  277   3.574   3.701   9.450  1.0700 -1.9847  1.4131
    4CHL1   C22  278   3.839   3.703   9.213 -1.0301  0.0084 -0.7129
    4CHL1  H22A  279   3.917   3.776   9.181 -0.1384 -0.6366 -0.0544
    4CHL1  H22B  280   3.879   3.601   9.234  2.0469  1.0340 -1.4093
    4CHL1   C23  281   3.750   3.692   9.088  0.0633  0.0831  1.0224
    4CHL1  H23A  282   3.659   3.629   9.086  0.2041 -0.2373 -4.7009
    4CHL1  H23B  283   3.716   3.794   9.058  2.6719  1.1163  1.4347
    4CHL1   C24  284   3.839   3.630   8.973  0.4387 -0.3554 -0.3809
    4CHL1  H24A  285   3.930   3.693   8.968  0.1292  0.1388  0.1217
    4CHL1  H24B  286   3.868   3.526   9.000 -1.6739 -1.2465 -1.3576
    4CHL1   C25  287   3.784   3.621   8.830  0.3208  0.0038  0.3906
    4CHL1   H25  288   3.789   3.727   8.795 -2.0731  0.1797  0.4759
    4CHL1   C26  289   3.878   3.540   8.731 -0.4255 -0.0516  0.5288
    4CHL1  H26A  290   3.849   3.434   8.745  0.8635 -0.8830 -2.6401
    4CHL1  H26B  291   3.862   3.557   8.622 -1.8955  0.6191  0.8323
    4CHL1  H26C  292   3.984   3.551   8.760 -1.0648 -0.2922  3.0297
    4CHL1   C27  293   3.636   3.577   8.815 -0.5135 -0.0623  0.6367
    4CHL1  H27A  294   3.610   3.597   8.709  0.5302  0.7064  0.5193
    4CHL1  H27B  295   3.633   3.470   8.846  3.3989 -0.6014 -0.6446
    4CHL1  H27C  296   3.568   3.631   8.884 -0.0122  1.2244  0.1265
    5CHL1    C3  297   5.203   1.461  10.087  0.3578  1.0058 -0.3569
    5CHL1    H3  298   5.113   1.526  10.087 -0.9057 -0.6877  1.1355
    5CHL1    O3  299   5.233   1.422  10.224 -0.0027 -0.3050 -0.1184
    5CHL1   H3'  300   5.326   1.396  10.224 -0.0060 -0.5010  2.3823
    5CHL1    C4  301   5.174   1.341   9.995  0.5588  0.0993 -0.4112
    5CHL1   H4A  302   5.254   1.265  10.006  0.0840 -0.2350  0.7553
    5CHL1   H4B  303   5.077   1.309  10.038 -0.2131  0.0308 -2.1669
    5CHL1    C5  304   5.152   1.381   9.852  1.1887  0.2699  0.2603
    5CHL1    C6  305   5.033   1.369   9.792  0.2063 -0.0013  0.5165
    5CHL1    H6  306   4.951   1.332   9.855  1.0235 -2.5151  0.1395
    5CHL1    C7  307   5.007   1.401   9.648 -0.5395  0.3681 -0.5543
    5CHL1   H7A  308   4.934   1.333   9.599 -0.5564  0.2546 -0.3705
    5CHL1   H7B  309   4.944   1.493   9.640  0.0631  0.7618 -0.8635
    5CHL1    C8  310   5.135   1.412   9.563 -0.1713  0.2799  0.0003
    5CHL1    H8  311   5.179   1.310   9.556 -2.8737 -0.9417  0.1848
    5CHL1   C14  312   5.117   1.463   9.428 -0.5275  0.4489  0.2741
    5CHL1   H14  313   5.062   1.558   9.440 -2.6474 -0.7401  0.2527
    5CHL1   C15  314   5.023   1.388   9.334 -0.0979  0.4011  0.0015
    5CHL1  H15A  315   5.038   1.279   9.345 -3.8878 -0.0940  0.9718
    5CHL1  H15B  316   4.915   1.403   9.358 -0.1460  0.1328 -0.0443
    5CHL1   C16  317   5.066   1.432   9.193  0.0378  0.0955 -0.3256
    5CHL1  H16A  318   5.089   1.349   9.122  0.3971 -0.3455  0.2943
    5CHL1  H16B  319   4.978   1.493   9.163 -0.6821 -0.5973  0.3258
    5CHL1   C17  320   5.186   1.529   9.209 -0.4423 -0.1322  0.4147
    5CHL1   H17  321   5.150   1.632   9.226  0.6847  0.0661  1.6916
    5CHL1   C13  322   5.246   1.480   9.346  0.2621 -0.1660 -0.3097
    5CHL1   C18  323   5.327   1.344   9.331  0.0531 -0.3396  0.5002
    5CHL1  H18A  324   5.415   1.345   9.263  0.6542 -0.5328  1.2697
    5CHL1  H18B  325   5.370   1.314   9.429 -3.3510 -4.1804  0.9180
    5CHL1  H18C  326   5.263   1.268   9.282  1.0758 -1.5033  0.9643
    5CHL1   C12  327   5.333   1.591   9.420  0.0517  0.2705 -0.1318
    5CHL1  H12A  328   5.432   1.609   9.373  0.9806 -0.9024  1.3459
    5CHL1  H12B  329   5.269   1.681   9.415 -1.3842 -0.7895 -1.3438
    5CHL1   C11  330   5.361   1.545   9.561 -0.1670 -0.1190  0.3912
    5CHL1  H11A  331   5.433   1.461   9.560  1.2397  1.0276  2.4591
    5CHL1  H11B  332   5.404   1.630   9.618 -0.5238  0.8093 -0.6911
    5CHL1    C9  333   5.236   1.497   9.642 -0.4505  0.2221  0.3481
    5CHL1    H9  334   5.185   1.594   9.660 -2.6843 -0.8872  0.1179
    5CHL1   C10  335   5.271   1.443   9.783 -0.3433 -0.7118  0.1558
    5CHL1   C19  336   5.375   1.326   9.778 -0.3154 -0.3821  0.0628
    5CHL1  H19A  337   5.333   1.238   9.726  0.1723  0.4550 -1.8022
    5CHL1  H19B  338   5.468   1.368   9.732 -0.9850 -0.0919 -1.0426
    5CHL1  H19C  339   5.409   1.293   9.878  0.9426 -1.0688 -0.5756
    5CHL1    C1  340   5.330   1.557   9.878  0.2410  0.0187 -0.0593
    5CHL1   H1A  341   5.435   1.579   9.851 -0.4507  2.0843 -1.1608
    5CHL1   H1B  342   5.264   1.646   9.874  0.5563  0.2585  0.0654
    5CHL1    C2  343   5.336   1.520  10.029 -0.5693 -0.3486 -0.1828
    5CHL1   H2A  344   5.371   1.605  10.092 -0.3312 -0.3202 -0.3526
    5CHL1   H2B  345   5.416   1.443  10.035 -1.9929 -1.7276  2.0430
    5CHL1   C20  346   5.275   1.523   9.087  0.1475 -0.4463 -0.2977
    5CHL1   H20  347   5.319   1.422   9.074 -0.7188 -0.8586 -0.1025
    5CHL1   C21  348   5.382   1.636   9.099 -0.6539 -0.2472  0.6474
    5CHL1  H21A  349   5.434   1.675   9.009 -1.8690 -0.4949 -0.1823
    5CHL1  H21B  350   5.462   1.606   9.170 -2.7858 -3.1556  1.8938
    5CHL1  H21C  351   5.339   1.725   9.151 -1.5335 -0.0970 -0.3116
    5CHL1   C22  352   5.189   1.564   8.967  0.1780 -0.2237 -0.0915
    5CHL1  H22A  353   5.102   1.495   8.974  0.6400 -0.7923  0.1339
    5CHL1  H22B  354   5.148   1.667   8.978 -1.3012 -0.7183 -0.8846
    5CHL1   C23  355   5.248   1.549   8.826  0.6626 -0.4720  0.1832
    5CHL1  H23A  356   5.349   1.595   8.818 -0.2055  1.5206  0.4266
    5CHL1  H23B  357   5.260   1.441   8.801 -1.1289 -0.2980 -1.5349
    5CHL1   C24  358   5.168   1.609   8.711  0.4446  0.1590 -0.2249
    5CHL1  H24A  359   5.064   1.576   8.728 -0.3702  2.8911  0.2927
    5CHL1  H24B  360   5.157   1.718   8.729  0.4408  0.0050  0.7549
    5CHL1   C25  361   5.209   1.561   8.564 -0.5405 -0.1435  0.1170
    5CHL1   H25  362   5.182   1.456   8.542 -0.2725 -0.3008  0.5318
    5CHL1   C26  363   5.129   1.633   8.450  0.2683  0.1112 -0.1445
    5CHL1  H26A  364   5.021   1.619   8.469  0.3524 -0.3965 -0.0314
    5CHL1  H26B  365   5.151   1.742   8.444  0.8456 -0.0659 -1.6410
    5CHL1  H26C  366   5.152   1.593   8.348  0.4240  0.3236 -0.1939
    5CHL1   C27  367   5.357   1.586   8.544  0.0748 -0.2485  0.1828
    5CHL1  H27A  368   5.420   1.495   8.556  2.1495  1.3916  2.2451
    5CHL1  H27B  369   5.379   1.610   8.438 -0.8720  2.3219  0.5261
    5CHL1  H27C  370   5.393   1.668   8.610 -2.4731 -0.7596  2.3034
    6CHL1    C3  371   2.709   5.938  10.226 -0.3386 -0.2365 -0.0295
    6CHL1    H3  372   2.598   5.945  10.225 -0.3220  0.1963  0.9800
    6CHL1    O3  373   2.745   5.940  10.361  0.1403 -0.4230  0.1026
    6CHL1   H3'  374   2.841   5.934  10.358  0.1795 -0.3170  0.9020
    6CHL1    C4  375   2.746   5.802  10.165 -0.2452 -0.7908  0.5890
    6CHL1   H4A  376   2.855   5.779  10.169 -0.5062 -2.5937 -1.4651
    6CHL1   H4B  377   2.692   5.731  10.232 -1.1065 -0.4205  0.2882
    6CHL1    C5  378   2.718   5.794  10.021  0.5425  0.1157  0.2988
    6CHL1    C6  379   2.622   5.708   9.980 -0.0560  0.1519  0.3417
    6CHL1    H6  380   2.576   5.631  10.044 -1.4573 -1.4225 -2.4979
    6CHL1    C7  381   2.569   5.705   9.842 -0.3819  0.6851  0.4297
    6CHL1   H7A  382   2.561   5.601   9.804  0.1970  0.1883  1.6553
    6CHL1   H7B  383   2.471   5.757   9.835 -0.8591 -0.2929 -0.2974
    6CHL1    C8  384   2.673   5.773   9.743  0.6001 -0.1844  0.4294
    6CHL1    H8  385   2.767   5.715   9.729 -0.1347 -0.9889 -1.4001
    6CHL1   C14  386   2.607   5.784   9.604 -0.0331 -0.0363  0.4643
    6CHL1   H14  387   2.519   5.849   9.625  0.3476  1.2377 -1.6544
    6CHL1   C15  388   2.548   5.663   9.537 -0.3838 -0.3297  0.8659
    6CHL1  H15A  389   2.623   5.582   9.551  0.2009 -0.5231 -2.8662
    6CHL1  H15B  390   2.452   5.637   9.586 -1.4885  1.3165 -0.3535
    6CHL1   C16  391   2.529   5.703   9.391  0.1746 -0.3367 -0.4019
    6CHL1  H16A  392   2.589   5.631   9.331 -1.4126 -0.9693 -1.2653
    6CHL1  H16B  393   2.423   5.706   9.358 -0.5504 -0.7510  1.8421
    6CHL1   C17  394   2.593   5.846   9.375  0.1695 -0.0824 -0.6302
    6CHL1   H17  395   2.501   5.908   9.377  0.4989  0.3837  1.1191
    6CHL1   C13  396   2.684   5.867   9.501 -0.0015 -0.4027  0.1629
    6CHL1   C18  397   2.818   5.801   9.467 -0.3905  0.1099 -0.1843
    6CHL1  H18A  398   2.791   5.699   9.430 -1.0717  0.7272 -1.4217
    6CHL1  H18B  399   2.878   5.846   9.386 -1.1564 -0.4318 -1.0578
    6CHL1  H18C  400   2.881   5.794   9.558  3.1759  1.3079 -2.4987
    6CHL1   C12  401   2.702   6.007   9.564  0.0946 -0.4039  0.4800
    6CHL1  H12A  402   2.751   6.073   9.488 -0.3145 -0.1917  0.3989
    6CHL1  H12B  403   2.602   6.053   9.579 -0.0180 -0.2592 -0.6202
    6CHL1   C11  404   2.788   6.009   9.695  0.3809 -0.1414  0.5314
    6CHL1  H11A  405   2.894   5.986   9.674  0.6361  1.0331  0.5104
    6CHL1  H11B  406   2.785   6.110   9.739 -0.8050 -0.2187  0.6587
    6CHL1    C9  407   2.720   5.910   9.796  0.1949 -0.5361  0.3494
    6CHL1    H9  408   2.619   5.950   9.817  0.2736 -0.7717  1.2111
    6CHL1   C10  409   2.784   5.906   9.940  0.1868  0.6232 -0.0739
    6CHL1   C19  410   2.931   5.858   9.926 -0.3106 -0.3287 -0.5251
    6CHL1  H19A  411   2.985   5.863  10.023 -0.4179 -0.8285 -0.4329
    6CHL1  H19B  412   2.941   5.754   9.889 -1.9515 -1.4582  2.0634
    6CHL1  H19C  413   2.979   5.927   9.853  0.6250  0.0047  0.3917
    6CHL1    C1  414   2.752   6.045  10.007 -0.7188 -0.0800  0.0170
    6CHL1   H1A  415   2.793   6.124   9.940 -1.0859 -0.9376 -1.2494
    6CHL1   H1B  416   2.641   6.055  10.006 -0.6711  1.3442  2.7179
    6CHL1    C2  417   2.781   6.046  10.154 -0.1891 -0.4888  0.7552
    6CHL1   H2A  418   2.736   6.134  10.204 -2.2081 -0.6591 -0.7078
    6CHL1   H2B  419   2.891   6.038  10.170 -0.0705 -0.4183 -0.0167
    6CHL1   C20  420   2.657   5.878   9.236  0.3245  0.1408  0.1203
    6CHL1   H20  421   2.737   5.803   9.217 -3.3319 -3.1650 -3.0355
    6CHL1   C21  422   2.717   6.011   9.229  0.0808 -0.1791 -0.4461
    6CHL1  H21A  423   2.749   6.037   9.125  2.6288 -0.6916  0.1636
    6CHL1  H21B  424   2.814   6.015   9.284  0.4244 -1.1917 -0.9580
    6CHL1  H21C  425   2.648   6.090   9.264 -0.4195  0.0349 -1.8781
    6CHL1   C22  426   2.540   5.862   9.132 -0.4183  0.3111 -0.4607
    6CHL1  H22A  427   2.513   5.754   9.132 -3.6725  1.0558  0.4689
    6CHL1  H22B  428   2.447   5.913   9.166 -0.2080 -0.0493  0.6645
    6CHL1   C23  429   2.560   5.913   8.983  0.5449 -0.6505 -0.3149
    6CHL1  H23A  430   2.469   5.910   8.918 -0.0071 -1.1862  0.4736
    6CHL1  H23B  431   2.583   6.021   8.984 -0.0303 -0.4685 -2.7329
    6CHL1   C24  432   2.680   5.844   8.916  0.0050  1.0613  0.2660
    6CHL1  H24A  433   2.763   5.810   8.981  0.4040 -1.9142 -1.6804
    6CHL1  H24B  434   2.645   5.749   8.870 -0.8472  0.2113  2.6156
    6CHL1   C25  435   2.748   5.918   8.800 -0.1327 -0.2544 -0.2355
    6CHL1   H25  436   2.684   5.966   8.723 -0.1532 -0.8886 -0.6184
    6CHL1   C26  437   2.848   6.026   8.843  0.1046 -0.0861  0.4593
    6CHL1  H26A  438   2.911   6.065   8.760 -2.5153  0.9521 -1.0992
    6CHL1  H26B  439   2.784   6.108   8.882 -0.2636 -0.5229  0.7744
    6CHL1  H26C  440   2.921   5.987   8.917 -1.4011  0.2641  2.1551
    6CHL1   C27  441   2.829   5.814   8.721  0.2661  0.3779  0.5673
    6CHL1  H27A  442   2.763   5.750   8.659  2.1347 -0.4469 -0.6174
    6CHL1  H27B  443   2.896   5.863   8.646 -1.7434  0.8398 -0.9612
    6CHL1  H27C  444   2.885   5.750   8.792  0.5407 -2.1639 -1.8515
    7CHL1    C3  445   5.697   2.770  10.406 -0.1683  0.4645  0.4181
    7CHL1    H3  446   5.804   2.802  10.403  0.1204 -0.6604 -2.9948
    7CHL1    O3  447   5.659   2.807  10.535 -0.3095 -0.5542 -0.4405
    7CHL1   H3'  448   5.567   2.783  10.523 -1.2066  1.3915  2.0242
    7CHL1    C4  449   5.612   2.831  10.296 -0.1961 -0.0738 -0.9220
    7CHL1   H4A  450   5.502   2.819  10.311 -0.0541  2.0468  2.5437
    7CHL1   H4B  451   5.633   2.940  10.307  2.2117 -0.4924 -1.1285
    7CHL1    C5  452   5.655   2.790  10.159  0.1631  0.5057 -0.2565
    7CHL1    C6  453   5.698   2.877  10.067  0.2467 -0.3818 -0.1104
    7CHL1    H6  454   5.690   2.985  10.088 -2.4211 -0.6646  0.4515
    7CHL1    C7  455   5.731   2.845   9.924  0.4541 -0.1092 -0.1324
    7CHL1   H7A  456   5.676   2.923   9.867 -1.1343  1.1480  3.0152
    7CHL1   H7B  457   5.842   2.844   9.917  0.5995  4.2489  0.4189
    7CHL1    C8  458   5.678   2.702   9.890  0.6321 -0.0551  0.3022
    7CHL1    H8  459   5.568   2.710   9.883  0.6125  0.5432  1.1510
    7CHL1   C14  460   5.736   2.648   9.761  0.4248 -0.5290 -0.6181
    7CHL1   H14  461   5.846   2.650   9.778 -0.1330  1.1351  3.3977
    7CHL1   C15  462   5.697   2.744   9.641 -0.0118 -0.6228 -0.7648
    7CHL1  H15A  463   5.589   2.769   9.649  0.6998  2.6869 -0.7624
    7CHL1  H15B  464   5.769   2.828   9.650 -0.1609 -0.7196  1.6325
    7CHL1   C16  465   5.706   2.646   9.522  0.1806  0.4993  0.7824
    7CHL1  H16A  466   5.606   2.637   9.474  0.7340 -1.4273 -0.0544
    7CHL1  H16B  467   5.778   2.684   9.447 -0.7783  0.1215 -0.3543
    7CHL1   C17  468   5.731   2.506   9.586  0.0154  0.4205  0.0928
    7CHL1   H17  469   5.841   2.491   9.589 -0.1614 -1.7248 -2.3150
    7CHL1   C13  470   5.678   2.510   9.730  0.6937  0.8187  0.0310
    7CHL1   C18  471   5.527   2.506   9.731 -0.2237  0.0810 -0.6263
    7CHL1  H18A  472   5.487   2.593   9.676  2.3359  1.6526 -0.1099
    7CHL1  H18B  473   5.485   2.410   9.693 -1.6750 -0.0771  1.2710
    7CHL1  H18C  474   5.497   2.503   9.838 -0.1091  0.1566 -0.5926
    7CHL1   C12  475   5.751   2.418   9.829  0.0268  0.9174  0.4613
    7CHL1  H12A  476   5.742   2.309   9.813  0.1554  0.5326  2.7940
    7CHL1  H12B  477   5.858   2.437   9.808 -0.1047 -0.0592 -1.1798
    7CHL1   C11  478   5.705   2.451   9.966  0.4298  0.0394  0.0511
    7CHL1  H11A  479   5.605   2.404   9.973  1.1905 -1.6610 -0.1737
    7CHL1  H11B  480   5.772   2.404  10.042 -0.7862  1.0885  1.8049
    7CHL1    C9  481   5.715   2.599  10.001 -0.0930 -0.5342  0.7412
    7CHL1    H9  482   5.824   2.601  10.022  0.4716  2.2184 -2.1679
    7CHL1   C10  483   5.653   2.635  10.140  0.3176 -0.3544 -0.2052
    7CHL1   C19  484   5.507   2.575  10.142  0.1900  0.0696  0.2147
    7CHL1  H19A  485   5.446   2.615  10.058  1.1797  2.0818  0.4342
    7CHL1  H19B  486   5.514   2.464  10.151 -0.2456  0.1239  1.2783
    7CHL1  H19C  487   5.453   2.623  10.226 -0.9643  0.3848 -0.6876
    7CHL1    C1  488   5.751   2.581  10.253 -0.2079  0.3655  0.0904
    7CHL1   H1A  489   5.753   2.471  10.238  0.4646  0.1117  1.9239
    7CHL1   H1B  490   5.854   2.618  10.236  0.0819  0.0405  1.1570
    7CHL1    C2  491   5.700   2.617  10.398 -0.3328  0.1730  0.4033
    7CHL1   H2A  492   5.766   2.586  10.481  2.9721  1.3520 -1.6809
    7CHL1   H2B  493   5.594   2.585  10.409  0.0030 -0.4120  2.0250
    7CHL1   C20  494   5.681   2.401   9.487 -0.2246 -0.8951  0.0564
    7CHL1   H20  495   5.575   2.429   9.469  0.1645 -0.1408 -1.1353
    7CHL1   C21  496   5.694   2.256   9.541  0.0998  0.2867 -0.1130
    7CHL1  H21A  497   5.646   2.236   9.639 -0.3158  0.2246 -0.3326
    7CHL1  H21B  498   5.796   2.213   9.548  0.2085  0.8348  1.8008
    7CHL1  H21C  499   5.636   2.196   9.468  0.2792 -1.9717  1.5519
    7CHL1   C22  500   5.762   2.409   9.354  0.1294  0.1282 -0.4043
    7CHL1  H22A  501   5.765   2.511   9.311  0.6472 -0.2862 -1.3747
    7CHL1  H22B  502   5.864   2.373   9.380 -0.6895 -2.6949 -0.9538
    7CHL1   C23  503   5.698   2.309   9.248 -0.0149 -0.4019  0.1586
    7CHL1  H23A  504   5.709   2.202   9.276 -1.1246 -0.7546 -0.6726
    7CHL1  H23B  505   5.589   2.333   9.246 -0.2371 -1.4093 -2.3298
    7CHL1   C24  506   5.749   2.337   9.112  0.6228  0.5975 -0.2767
    7CHL1  H24A  507   5.746   2.445   9.089  0.2354  0.8464  0.8581
    7CHL1  H24B  508   5.856   2.312   9.129  0.3388  0.7417  1.9903
    7CHL1   C25  509   5.681   2.263   8.996 -0.3256 -0.6097 -0.9296
    7CHL1   H25  510   5.576   2.298   8.992 -0.0042  0.3934 -0.7186
    7CHL1   C26  511   5.764   2.300   8.872 -0.8956  0.3411  0.5032
    7CHL1  H26A  512   5.722   2.257   8.779  0.5829 -0.4504  0.1850
    7CHL1  H26B  513   5.775   2.410   8.860  2.8331 -0.0097  0.2308
    7CHL1  H26C  514   5.867   2.265   8.893  0.6919  2.9465 -2.5625
    7CHL1   C27  515   5.673   2.108   8.998  0.6328 -0.4714 -0.6528
    7CHL1  H27A  516   5.641   2.063   8.902 -0.8436  0.0477 -0.4136
    7CHL1  H27B  517   5.780   2.080   9.013  0.4712 -1.0847 -0.6495
    7CHL1  H27C  518   5.606   2.070   9.077  2.2981 -0.3240  0.8815
    8CHL1    C3  519   5.614   4.292  10.511 -0.7703  0.1856 -0.3888
    8CHL1    H3  520   5.523   4.352  10.532  0.1379  1.0650  1.0697
    8CHL1    O3  521   5.687   4.263  10.629 -0.7583 -0.1009  1.0885
    8CHL1   H3'  522   5.654   4.325  10.694 -0.9522 -0.0758  0.9649
    8CHL1    C4  523   5.574   4.168  10.427 -0.0221  0.3396  0.5209
    8CHL1   H4A  524   5.659   4.100  10.404 -1.8643 -1.1976 -2.0255
    8CHL1   H4B  525   5.506   4.099  10.482  0.7482 -0.0182  1.0278
    8CHL1    C5  526   5.502   4.222  10.301  0.5817  0.0717 -0.9590
    8CHL1    C6  527   5.378   4.180  10.268 -0.1052 -0.3446  0.6307
    8CHL1    H6  528   5.325   4.103  10.325 -1.0526  0.9313  1.5092
    8CHL1    C7  529   5.310   4.220  10.136 -0.1943 -0.8419 -0.1014
    8CHL1   H7A  530   5.259   4.134  10.087  1.3802 -2.3728  0.8781
    8CHL1   H7B  531   5.236   4.300  10.156  1.6849  1.1072 -0.6909
    8CHL1    C8  532   5.407   4.279  10.030 -0.4872 -0.2679  0.3074
    8CHL1    H8  533   5.475   4.201   9.991  2.1788  2.5476 -0.8374
    8CHL1   C14  534   5.326   4.332   9.912  0.3572  0.0561 -0.5948
    8CHL1   H14  535   5.256   4.409   9.951  0.7929  0.0369  0.2398
    8CHL1   C15  536   5.223   4.244   9.836  0.0717 -0.4119  0.2061
    8CHL1  H15A  537   5.255   4.138   9.823 -0.5212 -0.6498  0.6478
    8CHL1  H15B  538   5.124   4.253   9.885  0.0808 -1.6779  0.4767
    8CHL1   C16  539   5.218   4.303   9.694  0.3974  0.1800 -0.0031
    8CHL1  H16A  540   5.251   4.225   9.621 -1.1859 -0.1517 -0.3800
    8CHL1  H16B  541   5.112   4.329   9.673  0.1622 -0.2318  0.6535
    8CHL1   C17  542   5.318   4.427   9.692  0.2891  0.0050 -0.0073
    8CHL1   H17  543   5.259   4.518   9.717  1.2043  0.4269  0.6564
    8CHL1   C13  544   5.415   4.392   9.805 -0.1689 -0.8940  0.1343
    8CHL1   C18  545   5.519   4.290   9.751 -0.0881 -0.2747 -0.0264
    8CHL1  H18A  546   5.581   4.330   9.668  0.3617 -1.8430 -0.4551
    8CHL1  H18B  547   5.592   4.240   9.819  1.6397  1.3118 -0.6832
    8CHL1  H18C  548   5.460   4.207   9.706 -2.0727  1.4695 -0.7067
    8CHL1   C12  549   5.488   4.510   9.869  0.0921  0.1010  0.0917
    8CHL1  H12A  550   5.557   4.554   9.794  0.4244  0.4593  0.6101
    8CHL1  H12B  551   5.409   4.585   9.891 -0.6038 -0.7010  0.3417
    8CHL1   C11  552   5.575   4.470   9.988  0.5744 -0.0226  1.0429
    8CHL1  H11A  553   5.662   4.415   9.947  0.5987  1.3202 -0.7697
    8CHL1  H11B  554   5.630   4.554  10.035  2.0825 -0.0700 -0.5805
    8CHL1    C9  555   5.500   4.379  10.095 -0.2237  0.2533  0.2624
    8CHL1    H9  556   5.430   4.456  10.136 -0.2096 -0.0258  0.8262
    8CHL1   C10  557   5.585   4.322  10.215 -0.3848 -0.4695  0.4803
    8CHL1   C19  558   5.707   4.252  10.158  0.7221 -0.5255  0.0755
    8CHL1  H19A  559   5.778   4.218  10.237  1.9762  0.9682 -0.3785
    8CHL1  H19B  560   5.679   4.164  10.096 -2.6248  0.5540 -0.0296
    8CHL1  H19C  561   5.768   4.325  10.100 -1.1017 -0.0059 -1.2130
    8CHL1    C1  562   5.631   4.438  10.298  0.8244  0.0899 -0.5374
    8CHL1   H1A  563   5.689   4.519  10.249 -0.3659  0.8026 -0.7752
    8CHL1   H1B  564   5.540   4.495  10.327  0.1525 -0.3972 -1.6323
    8CHL1    C2  565   5.705   4.389  10.428 -0.8886  0.1169  0.1345
    8CHL1   H2A  566   5.720   4.484  10.483 -0.8132  0.7185 -0.9091
    8CHL1   H2B  567   5.801   4.340  10.402 -0.9533  0.7706 -1.3897
    8CHL1   C20  568   5.370   4.453   9.551 -0.2109  0.5599 -0.3702
    8CHL1   H20  569   5.453   4.381   9.536 -0.7021 -0.0727 -0.0382
    8CHL1   C21  570   5.425   4.601   9.543  0.3750 -0.2727  0.9199
    8CHL1  H21A  571   5.496   4.625   9.624  0.6319  1.0797  0.3113
    8CHL1  H21B  572   5.337   4.669   9.541  1.3563  1.0155  1.1230
    8CHL1  H21C  573   5.490   4.612   9.453  1.4325 -2.2466  1.4255
    8CHL1   C22  574   5.258   4.432   9.439 -0.5920  0.4644 -0.6916
    8CHL1  H22A  575   5.207   4.334   9.447  0.9268 -0.1552  2.3448
    8CHL1  H22B  576   5.171   4.500   9.448  1.8668  3.7048 -0.4717
    8CHL1   C23  577   5.305   4.441   9.293 -0.1184 -0.4167 -0.1369
    8CHL1  H23A  578   5.341   4.544   9.271 -0.6099 -0.1535  0.2843
    8CHL1  H23B  579   5.394   4.378   9.274  0.3686  0.5357 -1.0531
    8CHL1   C24  580   5.191   4.415   9.188 -0.1617 -0.8829  0.7961
    8CHL1  H24A  581   5.154   4.315   9.221  0.0826 -0.8827  1.0768
    8CHL1  H24B  582   5.113   4.493   9.201 -0.3230 -0.6741 -1.2923
    8CHL1   C25  583   5.250   4.419   9.044 -0.4173  0.4318  0.4052
    8CHL1   H25  584   5.168   4.410   8.969 -0.6982 -0.3271  0.7995
    8CHL1   C26  585   5.315   4.558   9.016 -0.0979 -0.9673 -0.5319
    8CHL1  H26A  586   5.416   4.565   9.062  0.4111 -1.0626 -1.5953
    8CHL1  H26B  587   5.352   4.568   8.911  2.9249  1.6601  0.6847
    8CHL1  H26C  588   5.244   4.641   9.038  1.5336  0.2632  0.1879
    8CHL1   C27  589   5.360   4.308   9.027 -0.7364 -0.2103 -0.1282
    8CHL1  H27A  590   5.453   4.336   9.081 -0.2237 -2.3715  0.1478
    8CHL1  H27B  591   5.319   4.210   9.059  0.8028  0.0518  2.8345
    8CHL1  H27C  592   5.387   4.302   8.919 -1.9588  2.6896 -0.6428
    9CHL1    C3  593   2.277   0.741  10.286  0.2384  0.0381 -0.6385
    9CHL1    H3  594   2.370   0.796  10.262 -1.3598  2.6490 -1.0027
    9CHL1    O3  595   2.264   0.714  10.426 -0.1321  0.6646 -0.4503
    9CHL1   H3'  596   2.173   0.730  10.453 -1.1215 -1.5322 -2.3281
    9CHL1    C4  597   2.156   0.834  10.246 -0.0617 -0.2498 -0.0041
    9CHL1   H4A  598   2.059   0.793  10.283 -0.2954 -2.1892 -2.6353
    9CHL1   H4B  599   2.168   0.928  10.303 -0.2981 -1.1901  1.6201
    9CHL1    C5  600   2.156   0.847  10.089 -0.1064  0.5662 -0.2812
    9CHL1    C6  601   2.171   0.967  10.036  0.1648 -0.4710 -0.5467
    9CHL1    H6  602   2.180   1.052  10.105 -2.8087 -0.5174 -0.0332
    9CHL1    C7  603   2.172   0.990   9.888  0.3488  0.2702 -1.1097
    9CHL1   H7A  604   2.098   1.070   9.867 -0.6377 -0.5146 -0.6148
    9CHL1   H7B  605   2.272   1.032   9.862  1.0015 -0.0770  0.7978
    9CHL1    C8  606   2.156   0.868   9.798 -0.1791 -0.5465 -0.1127
    9CHL1    H8  607   2.045   0.870   9.788 -0.4450 -0.2192  2.4720
    9CHL1   C14  608   2.211   0.883   9.653 -0.1314  0.2657  1.4757
    9CHL1   H14  609   2.321   0.891   9.669  0.1580  0.7346 -0.6332
    9CHL1   C15  610   2.182   0.999   9.567  0.0590 -0.1669  0.5555
    9CHL1  H15A  611   2.072   1.007   9.560 -0.3051 -1.8978  3.4801
    9CHL1  H15B  612   2.217   1.101   9.594  0.4120  0.6263 -2.6374
    9CHL1   C16  613   2.239   0.961   9.427 -0.4163 -0.3069  0.3399
    9CHL1  H16A  614   2.166   1.003   9.354  0.0083  0.8585  0.5637
    9CHL1  H16B  615   2.333   1.019   9.411  0.7008 -1.9447  0.9000
    9CHL1   C17  616   2.269   0.810   9.432  0.2833  0.1974  0.4128
    9CHL1   H17  617   2.377   0.800   9.457  0.4771  0.0759 -0.4585
    9CHL1   C13  618   2.196   0.762   9.567 -0.4176  0.0941 -0.1908
    9CHL1   C18  619   2.045   0.728   9.532  0.5895  0.0981 -0.1000
    9CHL1  H18A  620   2.043   0.623   9.494  1.7170  0.0828 -0.1287
    9CHL1  H18B  621   1.977   0.741   9.620  0.8602 -1.2078  0.3186
    9CHL1  H18C  622   2.011   0.803   9.458 -0.8176  1.4750  1.8709
    9CHL1   C12  623   2.268   0.643   9.638  0.8507 -0.5748  0.5586
    9CHL1  H12A  624   2.256   0.554   9.571 -0.4692 -0.8572  1.1497
    9CHL1  H12B  625   2.377   0.658   9.628  0.7367 -1.2163 -1.9658
    9CHL1   C11  626   2.216   0.606   9.777 -0.2764  0.0008 -0.1241
    9CHL1  H11A  627   2.108   0.581   9.773  0.1738 -2.1270  0.8617
    9CHL1  H11B  628   2.273   0.526   9.829  0.6523  0.3436 -0.6021
    9CHL1    C9  629   2.215   0.742   9.862  0.2921 -0.2879  0.1642
    9CHL1    H9  630   2.325   0.760   9.867  0.3470 -0.5674 -0.0664
    9CHL1   C10  631   2.171   0.719  10.010  0.1632 -0.0115  0.1778
    9CHL1   C19  632   2.031   0.659  10.012 -0.0432 -0.1628  0.0183
    9CHL1  H19A  633   2.024   0.550   9.991 -1.6999 -0.1876  0.5915
    9CHL1  H19B  634   1.985   0.660  10.113 -0.4839  0.3434 -0.1853
    9CHL1  H19C  635   1.952   0.702   9.945 -0.2904 -1.0693 -0.2750
    9CHL1    C1  636   2.271   0.614  10.068 -0.5952  0.6225 -0.4230
    9CHL1   H1A  637   2.236   0.517  10.026  0.7587  0.5799 -1.4625
    9CHL1   H1B  638   2.373   0.642  10.037 -0.2074  0.3345  0.5826
    9CHL1    C2  639   2.261   0.610  10.218  0.1981 -0.1485 -0.8470
    9CHL1   H2A  640   2.336   0.540  10.259 -0.0766  0.2849  0.4333
    9CHL1   H2B  641   2.162   0.565  10.241 -0.3865  1.4774 -0.0534
    9CHL1   C20  642   2.235   0.732   9.302 -0.5219 -0.3922 -0.1587
    9CHL1   H20  643   2.127   0.730   9.276 -0.6920  0.6030  0.4487
    9CHL1   C21  644   2.288   0.593   9.307 -0.5976  0.1812 -0.3094
    9CHL1  H21A  645   2.228   0.543   9.386  0.6662 -0.9905 -0.0625
    9CHL1  H21B  646   2.398   0.597   9.322 -1.0023  0.3675  2.9407
    9CHL1  H21C  647   2.270   0.540   9.211  1.7480 -2.2688  0.5379
    9CHL1   C22  648   2.302   0.810   9.178  0.8835 -0.3519  0.1457
    9CHL1  H22A  649   2.263   0.914   9.181  0.8721 -0.2663 -2.3949
    9CHL1  H22B  650   2.408   0.820   9.209  1.3189 -0.6720 -1.2281
    9CHL1   C23  651   2.283   0.759   9.036 -0.3355  0.3507 -0.5427
    9CHL1  H23A  652   2.352   0.673   9.026 -1.5961 -0.8350  0.6626
    9CHL1  H23B  653   2.175   0.740   9.019 -0.0858 -0.2732 -1.4189
    9CHL1   C24  654   2.344   0.860   8.933  0.2886 -0.4092  0.6204
    9CHL1  H24A  655   2.281   0.950   8.922  1.4404  0.5691  1.8632
    9CHL1  H24B  656   2.428   0.908   8.988 -0.7291  1.0727  0.9170
    9CHL1   C25  657   2.373   0.799   8.797 -0.1434 -0.4416 -0.0770
    9CHL1   H25  658   2.282   0.751   8.756 -1.3192  0.9356  0.8795
    9CHL1   C26  659   2.420   0.903   8.687  0.0359 -0.6689  0.4320
    9CHL1  H26A  660   2.445   0.863   8.586 -0.5901  2.1350 -0.8770
    9CHL1  H26B  661   2.341   0.980   8.675 -0.0429 -0.9077 -0.6549
    9CHL1  H26C  662   2.514   0.957   8.710  1.4880 -2.1299 -1.8368
    9CHL1   C27  663   2.483   0.688   8.809 -0.1463  0.0052  1.0497
    9CHL1  H27A  664   2.581   0.724   8.848  0.2296 -0.5966  0.6674
    9CHL1  H27B  665   2.451   0.596   8.863 -1.4553 -1.3449 -1.8775
    9CHL1  H27C  666   2.505   0.654   8.705 -1.7522  0.0498  0.6848
   10CHL1    C3  667   0.989   4.309  10.096  0.0344 -0.1703 -0.7234
   10CHL1    H3  668   0.890   4.265  10.123 -0.5265  0.5474 -1.5601
   10CHL1    O3  669   1.039   4.382  10.211 -0.1987 -0.4298 -0.1740
   10CHL1   H3'  670   1.127   4.415  10.189  0.1331 -0.1686  1.4776
   10CHL1    C4  671   1.087   4.196  10.059  0.1300 -0.0292  0.1763
   10CHL1   H4A  672   1.184   4.250  10.060  0.3567 -0.4336  1.4293
   10CHL1   H4B  673   1.096   4.126  10.145  0.8688  0.3290  0.3976
   10CHL1    C5  674   1.055   4.133   9.929 -0.1822 -0.2022  0.4836
   10CHL1    C6  675   1.036   4.005   9.916 -0.2370 -0.4100  0.4964
   10CHL1    H6  676   1.051   3.938  10.001 -0.2282 -0.5591  0.3775
   10CHL1    C7  677   1.018   3.927   9.789  1.1206 -0.5954 -0.5770
   10CHL1   H7A  678   1.079   3.835   9.775  2.8156  0.7117 -1.8905
   10CHL1   H7B  679   0.910   3.903   9.777  0.5241  0.5419  2.1150
   10CHL1    C8  680   1.053   4.018   9.664  0.4216 -0.0219  0.2828
   10CHL1    H8  681   1.162   4.039   9.660  0.6363  0.0110  4.3045
   10CHL1   C14  682   0.997   3.953   9.530  0.9506 -0.6982  0.1227
   10CHL1   H14  683   0.886   3.949   9.539  1.0443 -2.2031  0.7284
   10CHL1   C15  684   1.041   3.811   9.497 -0.2142  1.1485 -0.0965
   10CHL1  H15A  685   1.152   3.812   9.506 -0.4753  1.5671  3.5604
   10CHL1  H15B  686   0.993   3.733   9.559  1.7928 -1.4935 -1.7084
   10CHL1   C16  687   1.000   3.797   9.349  0.0458  0.2950  0.2433
   10CHL1  H16A  688   1.083   3.748   9.293  0.2341 -2.0817  2.5067
   10CHL1  H16B  689   0.915   3.726   9.343  0.6617 -0.4149 -0.2488
   10CHL1   C17  690   0.967   3.940   9.297 -0.7253  0.1234  0.4079
   10CHL1   H17  691   0.856   3.939   9.286 -0.6666 -2.3183 -0.3441
   10CHL1   C13  692   1.022   4.038   9.406  0.2977 -0.6217 -0.0883
   10CHL1   C18  693   1.176   4.052   9.377 -0.4909  0.1982 -0.0933
   10CHL1  H18A  694   1.223   4.122   9.449 -0.2271  0.3021 -0.3662
   10CHL1  H18B  695   1.232   3.956   9.380 -0.8701 -0.0119  0.2825
   10CHL1  H18C  696   1.196   4.093   9.276 -0.7609 -3.2027 -1.6047
   10CHL1   C12  697   0.952   4.174   9.432 -0.0363 -0.2802 -0.2543
   10CHL1  H12A  698   0.964   4.245   9.347 -1.7290  0.1773 -0.1177
   10CHL1  H12B  699   0.842   4.166   9.442 -0.0557  1.6681  1.5161
   10CHL1   C11  700   1.006   4.243   9.556 -0.1294  0.4234 -0.6048
   10CHL1  H11A  701   1.111   4.273   9.535 -0.3660  1.2320 -0.6204
   10CHL1  H11B  702   0.944   4.334   9.569  0.6344  0.9975 -0.9331
   10CHL1    C9  703   0.992   4.155   9.682  0.1845  0.6215 -0.0434
   10CHL1    H9  704   0.884   4.133   9.688 -0.1489  1.8908 -1.1661
   10CHL1   C10  705   1.038   4.228   9.813  0.4012  0.5564 -0.2460
   10CHL1   C19  706   1.178   4.289   9.784  0.5632  0.1398 -0.0038
   10CHL1  H19A  707   1.217   4.334   9.878 -0.6475 -0.2394  0.6830
   10CHL1  H19B  708   1.249   4.214   9.741  0.4099  1.6956 -3.0857
   10CHL1  H19C  709   1.171   4.373   9.712 -2.7064 -1.3087 -1.4955
   10CHL1    C1  710   0.941   4.339   9.853  0.5268 -0.6603  0.4653
   10CHL1   H1A  711   0.942   4.401   9.761  3.5833 -0.5361  0.5535
   10CHL1   H1B  712   0.836   4.302   9.862  0.1240 -0.0263 -1.3481
   10CHL1    C2  713   0.974   4.408   9.983 -1.1836 -0.7767 -0.1181
   10CHL1   H2A  714   0.891   4.481   9.990  0.0315  0.4393  2.2227
   10CHL1   H2B  715   1.070   4.464   9.975 -2.6958  2.0588  1.1272
   10CHL1   C20  716   1.011   3.958   9.150 -0.0477  0.3679  0.3757
   10CHL1   H20  717   1.121   3.951   9.136 -0.0313  0.1740  0.5897
   10CHL1   C21  718   0.972   4.101   9.091 -0.0921 -0.2407 -0.8058
   10CHL1  H21A  719   0.991   4.111   8.982 -1.2449 -1.1313 -1.0907
   10CHL1  H21B  720   1.038   4.176   9.140  0.5517 -1.6254  0.4709
   10CHL1  H21C  721   0.865   4.123   9.107 -0.2473 -1.3238 -0.2818
   10CHL1   C22  722   0.960   3.853   9.044  0.3535 -0.2177  0.3412
   10CHL1  H22A  723   0.922   3.764   9.099 -2.2651 -1.4956 -3.3095
   10CHL1  H22B  724   0.873   3.901   8.993  0.8997  1.9105  1.3942
   10CHL1   C23  725   1.071   3.801   8.949  0.3527 -0.4060 -0.3313
   10CHL1  H23A  726   1.104   3.886   8.887 -3.1624  2.6739  1.8137
   10CHL1  H23B  727   1.159   3.765   9.007 -0.5968  1.2943  2.2565
   10CHL1   C24  728   1.031   3.686   8.856  0.5605  0.0984  0.1001
   10CHL1  H24A  729   1.049   3.585   8.899  2.1046 -0.6575 -2.2436
   10CHL1  H24B  730   0.924   3.693   8.831  0.2492 -0.4211  1.2202
   10CHL1   C25  731   1.115   3.678   8.723 -0.0585 -0.0460 -0.3345
   10CHL1   H25  732   1.117   3.781   8.681 -0.1973  0.3473  0.6150
   10CHL1   C26  733   1.259   3.643   8.744 -0.7838 -0.7087  0.9920
   10CHL1  H26A  734   1.300   3.717   8.816  2.4419 -2.9940  1.5994
   10CHL1  H26B  735   1.275   3.541   8.786  0.2490 -0.4695  1.1947
   10CHL1  H26C  736   1.309   3.651   8.646  3.1299 -1.3530  2.8202
   10CHL1   C27  737   1.041   3.594   8.619 -0.1126 -0.7018 -0.1720
   10CHL1  H27A  738   1.038   3.491   8.659  2.1342 -0.7864 -0.1630
   10CHL1  H27B  739   0.937   3.626   8.598  0.3914  0.7092 -0.6034
   10CHL1  H27C  740   1.097   3.617   8.526  0.8480  0.0321  0.5788
   11CHL1    C3  741   3.555   0.391   9.998 -0.3810  0.1315 -0.0332
   11CHL1    H3  742   3.473   0.460  10.026 -1.8124 -1.8815  0.8920
   11CHL1    O3  743   3.608   0.334  10.118 -0.4111  0.1441  0.5015
   11CHL1   H3'  744   3.676   0.281  10.076 -1.8441 -2.2020  1.0548
   11CHL1    C4  745   3.506   0.265   9.922 -0.3583 -0.1452 -0.4866
   11CHL1   H4A  746   3.586   0.188   9.923  0.3357  0.5540  1.4219
   11CHL1   H4B  747   3.419   0.229   9.982 -1.1428 -0.6023 -1.8961
   11CHL1    C5  748   3.465   0.301   9.780 -0.0400 -0.1954  0.4503
   11CHL1    C6  749   3.340   0.280   9.736 -0.4381  0.0607 -0.3766
   11CHL1    H6  750   3.270   0.228   9.803 -0.1763  0.2779  0.0769
   11CHL1    C7  751   3.303   0.314   9.592  0.1877 -0.7975 -0.3033
   11CHL1   H7A  752   3.238   0.230   9.560 -0.1807 -0.6592  0.0736
   11CHL1   H7B  753   3.243   0.407   9.582  3.0054  0.7488 -4.1287
   11CHL1    C8  754   3.426   0.328   9.495  0.1653 -0.1094 -0.4538
   11CHL1    H8  755   3.463   0.224   9.486 -2.4258 -1.1014 -0.0597
   11CHL1   C14  756   3.377   0.380   9.359  0.1564 -0.6308  0.1179
   11CHL1   H14  757   3.328   0.479   9.365 -0.1649 -0.6465 -1.8643
   11CHL1   C15  758   3.277   0.293   9.288 -0.4865  0.4943  1.2815
   11CHL1  H15A  759   3.318   0.190   9.280 -2.7109 -0.2437 -1.5475
   11CHL1  H15B  760   3.180   0.293   9.342 -0.7526 -1.4895  0.8554
   11CHL1   C16  761   3.268   0.356   9.148  0.0681 -0.9776 -0.2142
   11CHL1  H16A  762   3.271   0.272   9.076 -0.0517  0.4728 -1.9430
   11CHL1  H16B  763   3.185   0.428   9.132  1.2462  0.9482  1.9691
   11CHL1   C17  764   3.399   0.444   9.135  0.9837  0.0901 -0.4956
   11CHL1   H17  765   3.362   0.546   9.156  0.5983 -0.3021  0.8131
   11CHL1   C13  766   3.486   0.406   9.258  0.0637 -0.5600  0.0616
   11CHL1   C18  767   3.567   0.275   9.241  0.2099  0.1950 -0.5866
   11CHL1  H18A  768   3.651   0.296   9.172  0.5085 -1.3757 -0.7156
   11CHL1  H18B  769   3.611   0.233   9.334  0.7372 -0.3539 -1.0732
   11CHL1  H18C  770   3.506   0.197   9.191 -0.4770  1.6133 -2.0056
   11CHL1   C12  771   3.581   0.516   9.316  0.2179 -1.0804  0.1485
   11CHL1  H12A  772   3.662   0.554   9.251 -1.1802  1.2355 -0.2841
   11CHL1  H12B  773   3.510   0.601   9.323  0.1333 -1.1811  0.5068
   11CHL1   C11  774   3.634   0.475   9.455  0.0518  1.0256  0.3867
   11CHL1  H11A  775   3.715   0.403   9.432 -0.0068  1.2900 -0.6815
   11CHL1  H11B  776   3.681   0.567   9.497  4.2081 -0.8974  0.1476
   11CHL1    C9  777   3.527   0.425   9.555  0.4808  0.2140  0.4716
   11CHL1    H9  778   3.462   0.512   9.577  0.8277  0.4696  0.4907
   11CHL1   C10  779   3.578   0.372   9.693 -0.0665  0.0582  0.3980
   11CHL1   C19  780   3.693   0.261   9.672  0.3363 -0.0922 -0.3160
   11CHL1  H19A  781   3.651   0.163   9.642 -2.3805  0.9561 -0.1188
   11CHL1  H19B  782   3.786   0.286   9.616  0.3837 -0.2517 -0.3099
   11CHL1  H19C  783   3.727   0.223   9.771  0.5927 -1.8920 -1.0687
   11CHL1    C1  784   3.632   0.493   9.774 -0.2132  0.7110 -0.4796
   11CHL1   H1A  785   3.711   0.543   9.715  0.9275 -1.1358 -0.5531
   11CHL1   H1B  786   3.540   0.554   9.786 -0.4623  0.2053  0.2397
   11CHL1    C2  787   3.667   0.459   9.923  0.3273  0.3705  0.6027
   11CHL1   H2A  788   3.705   0.546   9.983  3.9327 -0.2680 -0.6249
   11CHL1   H2B  789   3.747   0.382   9.919 -1.1329 -1.1668  0.4886
   11CHL1   C20  790   3.463   0.439   8.996 -0.7217 -0.4369  0.2993
   11CHL1   H20  791   3.500   0.334   8.995 -0.8293 -0.6053  4.4979
   11CHL1   C21  792   3.575   0.549   8.988 -0.3001 -0.3873 -0.5375
   11CHL1  H21A  793   3.537   0.650   9.015  0.7869 -0.6660  2.2765
   11CHL1  H21B  794   3.600   0.579   8.885 -0.2667  1.0516 -0.1179
   11CHL1  H21C  795   3.671   0.525   9.038  0.5700 -0.2819 -2.1272
   11CHL1   C22  796   3.368   0.464   8.875 -0.1362 -0.6924  0.5279
   11CHL1  H22A  797   3.269   0.418   8.892  0.0933 -1.2698  0.3238
   11CHL1  H22B  798   3.339   0.571   8.873  1.3141 -0.3017 -0.5393
   11CHL1   C23  799   3.404   0.415   8.732  0.5760  0.0129  0.3899
   11CHL1  H23A  800   3.350   0.473   8.655  0.3737 -0.5057  0.1377
   11CHL1  H23B  801   3.512   0.431   8.709  1.2013 -2.1607  1.6058
   11CHL1   C24  802   3.360   0.271   8.718 -0.9048 -0.3394 -0.7762
   11CHL1  H24A  803   3.393   0.217   8.810  1.4471  0.5039 -1.1077
   11CHL1  H24B  804   3.250   0.257   8.730 -1.1755  1.3653 -1.2456
   11CHL1   C25  805   3.420   0.195   8.600 -1.5631 -0.0865 -0.6024
   11CHL1   H25  806   3.424   0.268   8.516  0.7797 -2.6901 -2.8540
   11CHL1   C26  807   3.562   0.158   8.629  0.0774 -0.1488  0.2856
   11CHL1  H26A  808   3.632   0.237   8.664  1.3480 -0.0616 -2.3308
   11CHL1  H26B  809   3.574   0.081   8.709  0.0601  1.9863  2.3884
   11CHL1  H26C  810   3.614   0.116   8.540 -1.6219  1.5603 -1.5351
   11CHL1   C27  811   3.337   0.078   8.574  0.2055 -0.4893  0.5015
   11CHL1  H27A  812   3.227   0.094   8.570  0.1344 -0.9843  0.4693
   11CHL1  H27B  813   3.362   0.033   8.476  1.4135  0.9828  0.1154
   11CHL1  H27C  814   3.362   0.010   8.658  1.9137 -1.3669 -0.6735
   12CHL1    C3  815   6.474   3.752  10.347 -0.0354  0.5764 -0.4637
   12CHL1    H3  816   6.559   3.821  10.326 -1.4111  2.7289  0.8807
   12CHL1    O3  817   6.453   3.773  10.483  0.3994 -0.2608  0.3399
   12CHL1   H3'  818   6.433   3.863  10.508  0.9691 -0.2986  0.9459
   12CHL1    C4  819   6.348   3.802  10.279 -0.6247 -0.1041 -0.2198
   12CHL1   H4A  820   6.261   3.751  10.324 -0.1919 -1.3776 -0.8258
   12CHL1   H4B  821   6.341   3.911  10.300  2.0863 -0.3413  2.3235
   12CHL1    C5  822   6.357   3.774  10.132  0.4937  1.0543 -0.1313
   12CHL1    C6  823   6.336   3.869  10.042 -0.1873  0.8951  0.1390
   12CHL1    H6  824   6.313   3.965  10.091  0.3037  1.0241  0.1155
   12CHL1    C7  825   6.340   3.853   9.896  0.2872  0.1827 -0.2089
   12CHL1   H7A  826   6.251   3.900   9.849  1.4407  2.4295 -0.1813
   12CHL1   H7B  827   6.434   3.896   9.854 -0.4191  0.9454 -1.0377
   12CHL1    C8  828   6.338   3.705   9.852 -0.5128 -0.1381  0.6104
   12CHL1    H8  829   6.236   3.666   9.870  0.0933 -1.4038  1.3689
   12CHL1   C14  830   6.365   3.688   9.700  0.1223  0.2409  0.3912
   12CHL1   H14  831   6.468   3.730   9.693  0.4252 -0.7041 -1.1560
   12CHL1   C15  832   6.303   3.782   9.591  0.8409 -0.0716 -0.4420
   12CHL1  H15A  833   6.201   3.789   9.636  0.8860 -0.9418 -0.1989
   12CHL1  H15B  834   6.356   3.879   9.594 -0.4524  0.6621 -0.7043
   12CHL1   C16  835   6.317   3.708   9.459 -0.5029  0.4129 -0.3909
   12CHL1  H16A  836   6.215   3.677   9.428 -0.7333 -3.0684  3.4769
   12CHL1  H16B  837   6.373   3.771   9.386 -0.3267  1.6912  0.8167
   12CHL1   C17  838   6.402   3.587   9.495  0.1410 -0.2218 -0.5530
   12CHL1   H17  839   6.510   3.613   9.494  0.3463 -1.0395 -1.3116
   12CHL1   C13  840   6.367   3.547   9.637  0.7550 -0.0223 -0.1873
   12CHL1   C18  841   6.224   3.486   9.629  0.5812  0.0518 -0.1969
   12CHL1  H18A  842   6.238   3.379   9.601  1.8199 -0.0241  0.6847
   12CHL1  H18B  843   6.166   3.487   9.724  0.8273  0.2052 -0.0478
   12CHL1  H18C  844   6.147   3.528   9.561 -1.2215  0.0174  1.7744
   12CHL1   C12  845   6.462   3.466   9.728 -0.9284 -0.9270 -0.0276
   12CHL1  H12A  846   6.470   3.360   9.698 -2.1496 -0.8859 -0.5281
   12CHL1  H12B  847   6.566   3.504   9.717 -0.7036 -2.2607 -2.7885
   12CHL1   C11  848   6.429   3.471   9.883  0.0749 -0.4800  0.1887
   12CHL1  H11A  849   6.329   3.423   9.883 -0.4185  0.5350  0.1826
   12CHL1  H11B  850   6.508   3.407   9.928 -1.0082 -0.2435  2.5019
   12CHL1    C9  851   6.430   3.617   9.940 -0.0541 -0.0735  0.2142
   12CHL1    H9  852   6.534   3.648   9.919 -0.7059  2.2603  0.2231
   12CHL1   C10  853   6.407   3.636  10.095  0.4146 -0.3133  0.2577
   12CHL1   C19  854   6.288   3.548  10.132  0.3542 -0.2928  0.0770
   12CHL1  H19A  855   6.307   3.438  10.129  1.8669  0.0006 -2.9554
   12CHL1  H19B  856   6.256   3.571  10.235  0.5414  1.9710 -0.3576
   12CHL1  H19C  857   6.204   3.573  10.063 -0.2948 -1.7663  0.3102
   12CHL1    C1  858   6.524   3.577  10.177 -0.4774  0.5875 -0.0146
   12CHL1   H1A  859   6.541   3.470  10.151 -0.6975  0.4103  0.5626
   12CHL1   H1B  860   6.617   3.623  10.140 -0.7001  1.4164  0.4540
   12CHL1    C2  861   6.504   3.605  10.325  0.3765  0.7795 -0.3765
   12CHL1   H2A  862   6.599   3.573  10.373  0.4804  1.3180 -0.2194
   12CHL1   H2B  863   6.423   3.541  10.366 -0.7874  1.2290 -1.9416
   12CHL1   C20  864   6.378   3.478   9.379  0.5807 -1.2438 -0.6822
   12CHL1   H20  865   6.268   3.459   9.375  0.0661  1.1353  0.9040
   12CHL1   C21  866   6.448   3.339   9.411  0.1408 -0.7671 -0.0798
   12CHL1  H21A  867   6.414   3.288   9.503  1.1428 -0.6981  0.3318
   12CHL1  H21B  868   6.554   3.372   9.410  0.0170 -0.3725 -0.9982
   12CHL1  H21C  869   6.439   3.269   9.324  0.6820  0.0967 -0.8462
   12CHL1   C22  870   6.415   3.531   9.240 -0.2176  0.0156 -0.2075
   12CHL1  H22A  871   6.397   3.638   9.215 -1.5495 -0.0061  0.6505
   12CHL1  H22B  872   6.525   3.513   9.237  0.0735  1.6910  0.1659
   12CHL1   C23  873   6.328   3.459   9.134  0.0869  0.2452 -1.1832
   12CHL1  H23A  874   6.319   3.353   9.166 -2.9473  0.7269 -0.1865
   12CHL1  H23B  875   6.227   3.502   9.149  0.1919  0.5677 -1.4198
   12CHL1   C24  876   6.390   3.471   9.000 -0.1328 -0.1071 -0.5440
   12CHL1  H24A  877   6.416   3.574   8.968 -4.4909  1.0123 -0.8576
   12CHL1  H24B  878   6.485   3.414   8.997  0.8267  1.5060 -1.4439
   12CHL1   C25  879   6.304   3.416   8.883  0.3465  0.8681 -0.0649
   12CHL1   H25  880   6.206   3.469   8.883  0.3410  0.8607  0.5620
   12CHL1   C26  881   6.372   3.436   8.746  0.1561 -0.3010 -0.1818
   12CHL1  H26A  882   6.417   3.536   8.729  0.1414 -0.0644  1.1192
   12CHL1  H26B  883   6.450   3.356   8.739  0.2166 -0.3108  0.6083
   12CHL1  H26C  884   6.294   3.415   8.669  0.0289 -0.0227 -0.1297
   12CHL1   C27  885   6.272   3.265   8.892  0.0615  0.1268 -0.7358
   12CHL1  H27A  886   6.363   3.204   8.874  0.1147  0.7520 -2.7411
   12CHL1  H27B  887   6.232   3.247   8.994  0.2442  1.7240 -0.3682
   12CHL1  H27C  888   6.190   3.243   8.820  1.3338 -1.1100 -1.8473
   13CHL1    C3  889   5.546   5.707   9.780 -0.1754  0.3100 -0.0753
   13CHL1    H3  890   5.646   5.666   9.753  0.1718  1.6512 -0.8236
   13CHL1    O3  891   5.527   5.715   9.919 -0.0934  1.1016  0.3026
   13CHL1   H3'  892   5.443   5.758   9.934 -1.0391  0.6684 -3.3609
   13CHL1    C4  893   5.528   5.845   9.724  0.2651  0.1095  0.2246
   13CHL1   H4A  894   5.427   5.865   9.766 -0.3491 -1.1903 -0.6329
   13CHL1   H4B  895   5.603   5.915   9.767  0.8500  1.4811 -2.9499
   13CHL1    C5  896   5.527   5.851   9.570  0.0431 -0.5649 -0.2971
   13CHL1    C6  897   5.612   5.930   9.501 -0.7835 -0.2567  0.3341
   13CHL1    H6  898   5.684   5.994   9.554 -1.5925  0.3902  0.6446
   13CHL1    C7  899   5.621   5.936   9.350  0.0956 -0.0956 -0.7776
   13CHL1   H7A  900   5.632   6.036   9.305  1.3353 -0.4442 -1.2537
   13CHL1   H7B  901   5.709   5.875   9.322 -0.5026 -1.1886 -0.3338
   13CHL1    C8  902   5.506   5.865   9.280  0.5084 -0.5478  0.0073
   13CHL1    H8  903   5.416   5.930   9.275 -0.5234 -1.8967  0.5869
   13CHL1   C14  904   5.547   5.827   9.135  0.0667  0.3015  0.0105
   13CHL1   H14  905   5.622   5.745   9.134 -0.3091 -0.0701 -3.5095
   13CHL1   C15  906   5.617   5.941   9.048 -0.0518 -0.1782  0.4301
   13CHL1  H15A  907   5.549   6.029   9.046  0.2828  0.0749 -2.6729
   13CHL1  H15B  908   5.723   5.953   9.079  0.5871  1.9118 -2.3246
   13CHL1   C16  909   5.598   5.876   8.908  0.3668  0.6804 -0.1151
   13CHL1  H16A  910   5.541   5.947   8.843  0.6272  2.1515  1.2284
   13CHL1  H16B  911   5.700   5.848   8.874  0.2574  0.0152  0.0920
   13CHL1   C17  912   5.500   5.750   8.918  0.1378 -0.2980 -0.6295
   13CHL1   H17  913   5.566   5.663   8.937  1.1850  0.1222 -2.1811
   13CHL1   C13  914   5.431   5.766   9.053 -0.3892  0.6119 -0.2437
   13CHL1   C18  915   5.308   5.859   9.045 -1.1121  0.1914 -0.7428
   13CHL1  H18A  916   5.261   5.879   9.143 -0.6906 -1.1784 -0.2476
   13CHL1  H18B  917   5.336   5.955   8.996  0.3140 -0.2912 -0.8978
   13CHL1  H18C  918   5.231   5.815   8.978 -0.2085 -0.6245 -1.2571
   13CHL1   C12  919   5.398   5.631   9.123  0.7245  0.1200 -0.4756
   13CHL1  H12A  920   5.317   5.578   9.069  2.8790 -1.9513 -1.8001
   13CHL1  H12B  921   5.481   5.558   9.113  0.2039 -0.5053 -0.2749
   13CHL1   C11  922   5.373   5.642   9.273  0.4554  0.8015  0.7878
   13CHL1  H11A  923   5.270   5.686   9.272  0.5341  0.9730 -0.4589
   13CHL1  H11B  924   5.373   5.539   9.313  1.2991  0.4739 -0.0433
   13CHL1    C9  925   5.474   5.729   9.350 -0.2190  0.8552 -0.8338
   13CHL1    H9  926   5.570   5.673   9.350 -0.2582  0.7882  0.5210
   13CHL1   C10  927   5.437   5.749   9.500  0.2354  0.2158 -0.2579
   13CHL1   C19  928   5.291   5.808   9.508  0.0192  0.1130  0.3925
   13CHL1  H19A  929   5.274   5.896   9.442  0.4224 -0.5701 -0.6213
   13CHL1  H19B  930   5.223   5.725   9.478  0.1742  0.0958  0.0921
   13CHL1  H19C  931   5.262   5.834   9.613  1.2976 -0.6298  0.9414
   13CHL1    C1  932   5.444   5.614   9.575 -0.0340  0.2103  0.3565
   13CHL1   H1A  933   5.362   5.557   9.527  0.3875  1.3981 -1.8756
   13CHL1   H1B  934   5.539   5.560   9.553 -0.4982 -0.0513 -1.0687
   13CHL1    C2  935   5.440   5.612   9.727 -0.6695  0.4898 -0.2899
   13CHL1   H2A  936   5.448   5.512   9.776  0.4210 -0.7534 -2.8742
   13CHL1   H2B  937   5.337   5.647   9.752  0.1070  2.4406  0.2489
   13CHL1   C20  938   5.416   5.705   8.801  0.1596 -0.9295 -0.4109
   13CHL1   H20  939   5.331   5.642   8.837 -1.0349  1.3873  0.9414
   13CHL1   C21  940   5.513   5.606   8.722 -0.6604  0.1012  0.3415
   13CHL1  H21A  941   5.466   5.558   8.634 -0.2126  1.0055 -0.3989
   13CHL1  H21B  942   5.563   5.528   8.784 -0.3144 -0.4615 -0.6286
   13CHL1  H21C  943   5.598   5.665   8.681 -2.9617  2.1875 -1.5250
   13CHL1   C22  944   5.351   5.804   8.705  0.5494  0.1108  0.3099
   13CHL1  H22A  945   5.286   5.863   8.774  0.8918 -1.0248  1.6339
   13CHL1  H22B  946   5.423   5.863   8.646  0.8690  0.3849  0.9667
   13CHL1   C23  947   5.243   5.734   8.619  0.2577 -0.3832 -0.2930
   13CHL1  H23A  948   5.297   5.671   8.545 -0.0531 -1.4364  0.3594
   13CHL1  H23B  949   5.178   5.670   8.682  0.4957  0.0708  0.4232
   13CHL1   C24  950   5.155   5.834   8.548 -0.2759  0.6067  0.4833
   13CHL1  H24A  951   5.148   5.918   8.620  0.1280  1.8021 -0.8404
   13CHL1  H24B  952   5.201   5.863   8.451  0.8562 -0.2299  0.7565
   13CHL1   C25  953   5.014   5.782   8.506  0.4098 -0.1060 -0.7221
   13CHL1   H25  954   4.958   5.764   8.600 -0.2401  1.2967 -0.8362
   13CHL1   C26  955   4.943   5.896   8.427  0.3473  0.4117  0.5880
   13CHL1  H26A  956   4.954   6.000   8.465  0.1932  1.7813 -2.9364
   13CHL1  H26B  957   4.978   5.904   8.322  2.2009 -1.4971  1.0338
   13CHL1  H26C  958   4.836   5.867   8.420  0.3180  0.5863  0.2906
   13CHL1   C27  959   5.029   5.653   8.422  0.1143 -0.1699  0.2345
   13CHL1  H27A  960   4.928   5.608   8.415  0.2248 -0.0840 -2.1076
   13CHL1  H27B  961   5.066   5.666   8.319 -0.4579 -1.6664 -0.1675
   13CHL1  H27C  962   5.101   5.583   8.469  1.8594  0.8655 -0.8452
   14CHL1    C3  963   5.595   2.130  10.327 -0.3633 -0.6947  0.2884
   14CHL1    H3  964   5.630   2.228  10.287 -2.3235 -0.1560 -0.1554
   14CHL1    O3  965   5.627   2.129  10.468 -0.0812 -0.1579 -0.6337
   14CHL1   H3'  966   5.681   2.052  10.485  0.2512 -0.5717 -3.2593
   14CHL1    C4  967   5.441   2.145  10.302  0.4513  0.2047  0.3893
   14CHL1   H4A  968   5.396   2.055  10.349  1.9291 -0.1719  1.0997
   14CHL1   H4B  969   5.409   2.233  10.361 -0.6510 -0.4309  0.7566
   14CHL1    C5  970   5.388   2.143  10.156 -0.1196  0.2389 -0.7603
   14CHL1    C6  971   5.319   2.248  10.103 -0.3481  0.7320  0.4638
   14CHL1    H6  972   5.294   2.342  10.154 -1.7957  0.6165 -0.0003
   14CHL1    C7  973   5.295   2.255   9.949 -0.1602 -0.5063  0.1219
   14CHL1   H7A  974   5.191   2.281   9.922 -0.1472  1.8502  2.1827
   14CHL1   H7B  975   5.359   2.331   9.897 -1.2224  0.0133 -0.4603
   14CHL1    C8  976   5.318   2.113   9.873  0.3238 -0.7184  0.2281
   14CHL1    H8  977   5.227   2.052   9.892  1.2143 -1.7940  1.1089
   14CHL1   C14  978   5.326   2.142   9.728 -0.2456  0.4100 -0.1863
   14CHL1   H14  979   5.410   2.210   9.703 -0.6651  0.8220 -0.4754
   14CHL1   C15  980   5.205   2.224   9.661 -0.0388 -0.5251  0.4893
   14CHL1  H15A  981   5.106   2.177   9.678  0.9122 -3.6870 -2.2470
   14CHL1  H15B  982   5.195   2.332   9.686  0.0021  0.1285 -2.1922
   14CHL1   C16  983   5.234   2.208   9.506 -0.1204  0.6025  0.1913
   14CHL1  H16A  984   5.141   2.173   9.455 -0.1569  1.9071 -0.6636
   14CHL1  H16B  985   5.264   2.303   9.456 -1.3623  0.5383 -0.7126
   14CHL1   C17  986   5.344   2.093   9.495  0.9856  0.6234 -0.2270
   14CHL1   H17  987   5.438   2.152   9.491  0.3219  1.6101 -2.0343
   14CHL1   C13  988   5.348   2.021   9.634 -0.2123  0.8098 -0.5948
   14CHL1   C18  989   5.229   1.928   9.629  0.2819  0.5031 -0.2429
   14CHL1  H18A  990   5.216   1.883   9.730  1.7787  0.8084  0.0886
   14CHL1  H18B  991   5.138   1.975   9.586 -0.5753 -0.6322  0.3076
   14CHL1  H18C  992   5.254   1.846   9.559 -1.9326  0.4731 -1.0306
   14CHL1   C12  993   5.474   1.940   9.673  0.3941 -0.0993 -0.8501
   14CHL1  H12A  994   5.478   1.843   9.618  1.9633  0.0723 -1.0537
   14CHL1  H12B  995   5.569   1.992   9.648 -0.4215  2.3196  0.8790
   14CHL1   C11  996   5.478   1.919   9.832  0.0983  0.5354  0.3445
   14CHL1  H11A  997   5.391   1.853   9.853 -1.0540  1.7559 -0.5329
   14CHL1  H11B  998   5.572   1.869   9.863 -1.1538 -1.6781  0.6915
   14CHL1    C9  999   5.446   2.043   9.920 -0.2069 -0.4749  0.9169
   14CHL1    H9 1000   5.526   2.111   9.882 -2.0220  0.8551 -0.6289
   14CHL1   C10 1001   5.452   2.024  10.077 -1.0547 -0.9498  0.2201
   14CHL1   C19 1002   5.363   1.908  10.121  0.8730 -0.2334 -0.8756
   14CHL1  H19A 1003   5.259   1.944  10.107  1.1436  1.0086  0.2004
   14CHL1  H19B 1004   5.385   1.822  10.054  2.2531  0.9947 -2.0254
   14CHL1  H19C 1005   5.382   1.865  10.222 -0.2865  1.9690  0.3037
   14CHL1    C1 1006   5.608   2.005  10.110 -0.4530 -0.0010  0.3771
   14CHL1   H1A 1007   5.629   1.904  10.067 -0.0888  0.8178 -1.4199
   14CHL1   H1B 1008   5.661   2.076  10.043  1.2667 -1.9848 -0.4100
   14CHL1    C2 1009   5.646   2.003  10.255  0.8373 -1.0547  0.0484
   14CHL1   H2A 1010   5.756   1.993  10.269  0.4274 -3.3036  1.8968
   14CHL1   H2B 1011   5.585   1.927  10.307 -0.9421  1.1571  1.3169
   14CHL1   C20 1012   5.345   2.008   9.361 -0.5162  0.3236  0.6517
   14CHL1   H20 1013   5.272   1.925   9.371 -1.7548  1.3258 -0.0404
   14CHL1   C21 1014   5.486   1.933   9.343  0.1986 -0.1297  0.5158
   14CHL1  H21A 1015   5.484   1.866   9.254  0.8916  0.2777  0.1900
   14CHL1  H21B 1016   5.528   1.867   9.422  0.3800 -0.2185  0.3472
   14CHL1  H21C 1017   5.564   2.009   9.322 -1.9363  2.0118  0.1146
   14CHL1   C22 1018   5.312   2.092   9.238 -1.1125 -0.5462  0.2342
   14CHL1  H22A 1019   5.232   2.166   9.260  0.8126  1.6502 -0.0360
   14CHL1  H22B 1020   5.404   2.149   9.216 -1.3564 -1.2605 -2.8846
   14CHL1   C23 1021   5.274   2.023   9.107 -0.3672  0.1543 -0.5001
   14CHL1  H23A 1022   5.350   1.955   9.063 -1.5024 -1.5980  0.1658
   14CHL1  H23B 1023   5.185   1.962   9.132  1.1925 -2.5939 -1.4150
   14CHL1   C24 1024   5.221   2.122   8.994 -0.7068  0.5926  0.1303
   14CHL1  H24A 1025   5.118   2.156   9.019 -1.6394 -1.7367 -0.4124
   14CHL1  H24B 1026   5.288   2.210   8.985 -0.2778  0.3580  0.9747
   14CHL1   C25 1027   5.214   2.055   8.852  0.0489  0.7281 -0.0175
   14CHL1   H25 1028   5.158   1.959   8.859 -0.9071  1.3698  1.5021
   14CHL1   C26 1029   5.127   2.145   8.768 -0.4117  0.3824 -0.6122
   14CHL1  H26A 1030   5.183   2.240   8.751 -1.5008  0.7996 -1.9513
   14CHL1  H26B 1031   5.121   2.102   8.665 -1.8605  1.4021 -0.9711
   14CHL1  H26C 1032   5.031   2.162   8.820 -1.1067 -0.7060 -1.5225
   14CHL1   C27 1033   5.354   2.018   8.798 -0.1048  0.2837  0.1935
   14CHL1  H27A 1034   5.410   2.111   8.776 -1.5603  1.5464  1.6937
   14CHL1  H27B 1035   5.397   1.957   8.881 -0.1992  2.0813  1.5872
   14CHL1  H27C 1036   5.358   1.953   8.708  0.0993  1.5069 -0.6982
   15CHL1    C3 1037   5.534   0.476  10.017 -0.7070  0.5796  0.6067
   15CHL1    H3 1038   5.564   0.582  10.032  3.1180 -0.2916 -0.1965
   15CHL1    O3 1039   5.527   0.431  10.150  0.5517  0.1609  0.3767
   15CHL1   H3' 1040   5.476   0.349  10.155  2.2347 -0.8081  2.0235
   15CHL1    C4 1041   5.395   0.482   9.954 -0.1727  0.3913  0.1586
   15CHL1   H4A 1042   5.372   0.374   9.969  1.7341 -0.6412 -3.5250
   15CHL1   H4B 1043   5.328   0.553  10.006  1.2249  0.2109  2.2506
   15CHL1    C5 1044   5.397   0.515   9.806  0.2421 -0.7208  0.3498
   15CHL1    C6 1045   5.317   0.612   9.758 -0.6647 -0.1823  0.7436
   15CHL1    H6 1046   5.251   0.669   9.826 -0.1343  1.2529  0.0765
   15CHL1    C7 1047   5.319   0.654   9.617  0.1694 -1.0712  0.5457
   15CHL1   H7A 1048   5.217   0.670   9.577  0.3600  0.0964  0.5112
   15CHL1   H7B 1049   5.374   0.750   9.612 -1.9912  0.1176 -0.8551
   15CHL1    C8 1050   5.396   0.554   9.521  0.3038  0.2091  0.3812
   15CHL1    H8 1051   5.329   0.466   9.515  0.1596  0.2092  1.9134
   15CHL1   C14 1052   5.410   0.607   9.377  0.1803 -0.1043  0.0936
   15CHL1   H14 1053   5.483   0.691   9.386 -0.8033  0.9053 -1.0963
   15CHL1   C15 1054   5.293   0.657   9.300 -0.3754 -0.1208 -0.2934
   15CHL1  H15A 1055   5.204   0.593   9.319 -0.7399  0.3887 -0.2700
   15CHL1  H15B 1056   5.261   0.756   9.339  1.1827 -0.3038  1.4972
   15CHL1   C16 1057   5.333   0.642   9.151  0.4156  0.3293  0.0078
   15CHL1  H16A 1058   5.264   0.572   9.099 -0.4140 -0.2800  1.8617
   15CHL1  H16B 1059   5.337   0.741   9.102  0.5948  0.5448  0.4602
   15CHL1   C17 1060   5.470   0.566   9.148 -0.5413  0.2166  0.0450
   15CHL1   H17 1061   5.555   0.637   9.150 -1.5936  1.4787  0.4549
   15CHL1   C13 1062   5.479   0.499   9.289  0.0356 -0.1084 -0.3079
   15CHL1   C18 1063   5.395   0.367   9.279  0.0675  0.2932  0.9938
   15CHL1  H18A 1064   5.377   0.330   9.382 -2.7595 -0.2758  0.3283
   15CHL1  H18B 1065   5.302   0.390   9.222  0.4240 -0.1468  0.2263
   15CHL1  H18C 1066   5.442   0.290   9.213 -0.0150  1.6518 -0.6779
   15CHL1   C12 1067   5.619   0.469   9.348 -0.3439 -0.2569 -0.3939
   15CHL1  H12A 1068   5.675   0.403   9.279 -2.6668 -2.3968 -0.2942
   15CHL1  H12B 1069   5.667   0.569   9.347 -0.0082 -0.4121  0.2267
   15CHL1   C11 1070   5.619   0.414   9.487  0.4813  0.1091  0.4506
   15CHL1  H11A 1071   5.584   0.309   9.478  1.3299  0.0690 -2.9288
   15CHL1  H11B 1072   5.721   0.416   9.531  0.2984 -1.8883  0.9946
   15CHL1    C9 1073   5.525   0.504   9.585  0.4026  0.3523  0.5395
   15CHL1    H9 1074   5.579   0.599   9.607  2.2973 -0.8505  1.1899
   15CHL1   C10 1075   5.503   0.441   9.726  0.4882 -0.5796  0.3316
   15CHL1   C19 1076   5.456   0.290   9.699  0.4070  0.1394  0.1199
   15CHL1  H19A 1077   5.374   0.275   9.627 -1.3748  1.0941  1.9180
   15CHL1  H19B 1078   5.543   0.226   9.671 -2.5278 -4.0709  0.1916
   15CHL1  H19C 1079   5.434   0.248   9.800  1.2322  0.1345  0.3055
   15CHL1    C1 1080   5.646   0.435   9.804  0.2959  0.6094  0.2565
   15CHL1   H1A 1081   5.721   0.380   9.742 -0.5996 -1.0129  0.5866
   15CHL1   H1B 1082   5.675   0.542   9.808 -2.3064  1.3338  0.7396
   15CHL1    C2 1083   5.644   0.395   9.944  0.2884 -0.6574  0.0767
   15CHL1   H2A 1084   5.747   0.397   9.985  1.5669  0.7620 -3.0219
   15CHL1   H2B 1085   5.628   0.285   9.952 -1.7940 -0.3630  0.0671
   15CHL1   C20 1086   5.482   0.470   9.030  0.0175  0.4275  0.2215
   15CHL1   H20 1087   5.415   0.382   9.041  1.1979 -0.6478 -1.0288
   15CHL1   C21 1088   5.628   0.411   9.004 -0.0554 -0.1190 -0.3325
   15CHL1  H21A 1089   5.641   0.355   8.909  0.6877 -0.9582  0.2503
   15CHL1  H21B 1090   5.650   0.346   9.092  1.9861 -1.2513 -1.6453
   15CHL1  H21C 1091   5.705   0.490   8.994  0.0972 -0.1058  0.8227
   15CHL1   C22 1092   5.427   0.533   8.896 -0.3864 -0.5372  0.6292
   15CHL1  H22A 1093   5.451   0.450   8.827  0.1121  0.0164  0.1207
   15CHL1  H22B 1094   5.318   0.556   8.888 -0.4473 -1.1641 -0.3973
   15CHL1   C23 1095   5.513   0.649   8.854 -1.1756 -0.2129 -0.5357
   15CHL1  H23A 1096   5.509   0.725   8.935 -0.1606  0.3131 -0.9614
   15CHL1  H23B 1097   5.619   0.617   8.844 -0.9310  0.7817 -1.1255
   15CHL1   C24 1098   5.477   0.727   8.729  0.1601  0.2925 -0.2629
   15CHL1  H24A 1099   5.384   0.787   8.738  0.7296  1.4223 -1.7639
   15CHL1  H24B 1100   5.557   0.801   8.705 -0.9052  1.4142 -0.4118
   15CHL1   C25 1101   5.465   0.640   8.598  0.1895  0.4002 -0.2415
   15CHL1   H25 1102   5.376   0.577   8.619 -0.3200  0.6005 -1.7624
   15CHL1   C26 1103   5.415   0.716   8.473  0.5299 -0.1635  0.6553
   15CHL1  H26A 1104   5.399   0.647   8.387 -2.2140 -0.0028  0.9920
   15CHL1  H26B 1105   5.313   0.754   8.497  0.8844  0.5434  1.0476
   15CHL1  H26C 1106   5.483   0.799   8.444  0.2488 -0.8805 -2.2312
   15CHL1   C27 1107   5.586   0.543   8.572  0.1409 -0.4559 -0.2177
   15CHL1  H27A 1108   5.576   0.500   8.471 -0.8901  0.5701 -0.5654
   15CHL1  H27B 1109   5.679   0.605   8.583 -0.2094  0.0622 -0.1471
   15CHL1  H27C 1110   5.609   0.465   8.648 -0.8940  0.0108  0.5899
   16CHL1    C3 1111   6.201   1.219  10.043  0.1501  0.4569 -0.9265
   16CHL1    H3 1112   6.300   1.267  10.052 -0.0672  0.6604  0.4726
   16CHL1    O3 1113   6.156   1.219  10.184  0.0792  0.1861  0.2641
   16CHL1   H3' 1114   6.065   1.191  10.194  0.0087  0.9551  1.8735
   16CHL1    C4 1115   6.107   1.310   9.969  0.1508 -0.2797  0.7398
   16CHL1   H4A 1116   6.002   1.274   9.981 -0.2749  1.2065  1.5690
   16CHL1   H4B 1117   6.110   1.408  10.020 -0.4560 -0.5639  1.3295
   16CHL1    C5 1118   6.148   1.329   9.824  0.4947  0.9477 -0.2247
   16CHL1    C6 1119   6.172   1.450   9.764 -0.0006 -0.7646  0.1826
   16CHL1    H6 1120   6.156   1.540   9.826  2.4274  1.1156 -1.8249
   16CHL1    C7 1121   6.186   1.469   9.620  0.4072 -0.5585 -0.0243
   16CHL1   H7A 1122   6.105   1.538   9.588 -0.7729 -1.6392  0.5547
   16CHL1   H7B 1123   6.284   1.510   9.588  0.0097  1.6699  1.4902
   16CHL1    C8 1124   6.158   1.340   9.542 -0.0618 -0.0911 -0.2687
   16CHL1    H8 1125   6.048   1.344   9.527  0.2550  0.0493 -2.7940
   16CHL1   C14 1126   6.234   1.345   9.404 -0.2048  0.2321 -0.0973
   16CHL1   H14 1127   6.342   1.344   9.429 -0.5179 -0.6522  1.3116
   16CHL1   C15 1128   6.208   1.466   9.322 -0.0557 -1.1328 -0.8483
   16CHL1  H15A 1129   6.101   1.488   9.304 -0.6934 -1.3803  2.3779
   16CHL1  H15B 1130   6.255   1.558   9.364 -1.3428 -1.4447  1.3687
   16CHL1   C16 1131   6.266   1.428   9.188 -0.3747 -0.4687 -0.4799
   16CHL1  H16A 1132   6.191   1.469   9.117  0.1795 -0.3919 -1.0263
   16CHL1  H16B 1133   6.367   1.473   9.172  0.8422 -2.8405  0.2254
   16CHL1   C17 1134   6.288   1.278   9.186 -0.6512  0.3734  0.4130
   16CHL1   H17 1135   6.397   1.258   9.201 -0.5987  0.9596  0.8360
   16CHL1   C13 1136   6.217   1.224   9.309  0.1049  0.3447  0.0840
   16CHL1   C18 1137   6.058   1.211   9.289 -0.4287  0.0358 -0.3051
   16CHL1  H18A 1138   5.998   1.191   9.380  2.2447 -0.3174  1.4159
   16CHL1  H18B 1139   6.002   1.299   9.251 -2.2709 -1.3569 -0.8788
   16CHL1  H18C 1140   6.032   1.132   9.216 -1.8742  2.2648 -2.2934
   16CHL1   C12 1141   6.270   1.093   9.375  0.6134 -0.5066 -0.5261
   16CHL1  H12A 1142   6.217   1.018   9.312  0.1081  0.0994 -0.8431
   16CHL1  H12B 1143   6.381   1.097   9.377  0.6113 -0.1471 -1.1223
   16CHL1   C11 1144   6.211   1.086   9.519 -0.4671 -0.4708 -0.2211
   16CHL1  H11A 1145   6.115   1.033   9.509 -0.0629 -1.1367 -0.5981
   16CHL1  H11B 1146   6.273   1.016   9.579 -0.3616 -0.0151  0.2078
   16CHL1    C9 1147   6.205   1.214   9.610 -0.2922  0.4766  0.0956
   16CHL1    H9 1148   6.312   1.236   9.630  0.3557 -2.8219  0.6900
   16CHL1   C10 1149   6.150   1.188   9.754  0.0029 -0.1799 -0.1544
   16CHL1   C19 1150   6.004   1.144   9.743  0.0512 -0.1661  0.0353
   16CHL1  H19A 1151   5.965   1.122   9.844 -0.4322  0.9424  0.0946
   16CHL1  H19B 1152   5.939   1.224   9.702 -0.7247 -0.8929 -0.1689
   16CHL1  H19C 1153   5.987   1.047   9.690 -0.5621  0.3666 -0.7489
   16CHL1    C1 1154   6.236   1.081   9.826  0.3547 -0.7744 -0.2395
   16CHL1   H1A 1155   6.187   0.986   9.797 -2.9939 -0.0746  2.8353
   16CHL1   H1B 1156   6.344   1.091   9.802  0.5226  1.8297  1.3581
   16CHL1    C2 1157   6.212   1.078   9.980 -0.0120  0.7066  0.3561
   16CHL1   H2A 1158   6.297   1.025  10.026 -0.8015 -2.7936 -2.0024
   16CHL1   H2B 1159   6.127   1.012  10.005 -0.2924  1.2859  0.9561
   16CHL1   C20 1160   6.242   1.214   9.049 -0.1712  0.2092 -0.3220
   16CHL1   H20 1161   6.132   1.223   9.044 -0.0164  2.0872 -0.7323
   16CHL1   C21 1162   6.276   1.064   9.030 -0.3506 -0.0419  0.1838
   16CHL1  H21A 1163   6.184   1.016   9.073  0.1663  1.0352  2.5719
   16CHL1  H21B 1164   6.365   1.039   9.092  0.1284 -0.4808 -0.6801
   16CHL1  H21C 1165   6.295   1.047   8.922 -0.5321  0.4877  0.0662
   16CHL1   C22 1166   6.304   1.296   8.936  0.1482  0.2979  0.0301
   16CHL1  H22A 1167   6.302   1.406   8.952 -1.7734  0.0925  1.4991
   16CHL1  H22B 1168   6.409   1.269   8.914  0.1345  0.6697 -0.4957
   16CHL1   C23 1169   6.232   1.281   8.803 -0.4243  0.6177 -0.0645
   16CHL1  H23A 1170   6.237   1.173   8.777 -1.8939  0.8734 -1.4631
   16CHL1  H23B 1171   6.122   1.295   8.815 -0.4821  0.0302  0.1336
   16CHL1   C24 1172   6.289   1.373   8.691  0.4323 -0.5055 -0.4351
   16CHL1  H24A 1173   6.226   1.341   8.605  0.9366  0.0685 -1.0213
   16CHL1  H24B 1174   6.250   1.476   8.707 -0.8329 -1.1513  0.7672
   16CHL1   C25 1175   6.432   1.369   8.643  0.2705 -0.5900 -0.4032
   16CHL1   H25 1176   6.490   1.411   8.729 -1.9824  1.7343  0.0327
   16CHL1   C26 1177   6.490   1.230   8.604  0.3929  0.6511  0.5642
   16CHL1  H26A 1178   6.595   1.250   8.572  0.9489 -0.1721  1.8431
   16CHL1  H26B 1179   6.482   1.171   8.697  0.2939  0.8253  0.6659
   16CHL1  H26C 1180   6.423   1.181   8.531  2.2316 -2.4431  0.8901
   16CHL1   C27 1181   6.441   1.467   8.526 -0.1093 -0.7575  0.2384
   16CHL1  H27A 1182   6.376   1.436   8.442 -0.1391 -1.7476  0.6193
   16CHL1  H27B 1183   6.407   1.568   8.557 -0.6893 -1.0147  0.4484
   16CHL1  H27C 1184   6.549   1.477   8.499 -0.3658 -0.5992 -0.7310
   17CHL1    C3 1185   1.920   4.983  10.439 -0.0923  0.3153  0.0527
   17CHL1    H3 1186   2.022   5.006  10.400  0.2510  1.1206  1.3926
   17CHL1    O3 1187   1.911   4.979  10.577 -0.2188  0.1744 -0.8095
   17CHL1   H3' 1188   1.876   4.895  10.607 -0.7611  0.9955  0.9358
   17CHL1    C4 1189   1.826   5.092  10.378  0.0939 -0.0977 -0.5136
   17CHL1   H4A 1190   1.725   5.070  10.418  1.0191  0.1723  2.0727
   17CHL1   H4B 1191   1.852   5.195  10.411 -0.4788 -0.8548  2.4486
   17CHL1    C5 1192   1.835   5.090  10.225 -0.6481  0.7064 -0.0336
   17CHL1    C6 1193   1.878   5.200  10.159 -0.4076  0.0054 -1.0200
   17CHL1    H6 1194   1.902   5.288  10.221 -0.1996 -0.9296  0.2359
   17CHL1    C7 1195   1.901   5.205  10.017  0.0163 -0.0835  0.4162
   17CHL1   H7A 1196   1.874   5.301   9.967 -0.8584  0.0008  1.0558
   17CHL1   H7B 1197   2.006   5.173  10.002 -0.0394 -0.9145  1.8026
   17CHL1    C8 1198   1.821   5.100   9.940  0.7738  0.4010 -0.2098
   17CHL1    H8 1199   1.712   5.113   9.956  0.6949 -2.3090  1.7931
   17CHL1   C14 1200   1.848   5.091   9.795  0.5107  0.1601  0.1714
   17CHL1   H14 1201   1.952   5.052   9.790  0.6408  0.4554  0.5620
   17CHL1   C15 1202   1.861   5.226   9.715  0.7830  0.9194  0.1473
   17CHL1  H15A 1203   1.769   5.288   9.717  1.1137  1.3657  2.0120
   17CHL1  H15B 1204   1.951   5.285   9.744  2.7317 -2.5445  1.4790
   17CHL1   C16 1205   1.878   5.169   9.574  0.3284 -0.1642 -0.1578
   17CHL1  H16A 1206   1.792   5.202   9.512  1.6571 -0.8966 -2.4891
   17CHL1  H16B 1207   1.979   5.197   9.536  1.4631 -0.2797  2.6724
   17CHL1   C17 1208   1.861   5.010   9.581  0.2313  0.1760  0.1208
   17CHL1   H17 1209   1.964   4.969   9.579  0.2563  0.1094  1.9823
   17CHL1   C13 1210   1.781   4.987   9.712  0.0275  0.1291 -0.2157
   17CHL1   C18 1211   1.635   5.024   9.682  0.1326  0.0741  0.0749
   17CHL1  H18A 1212   1.611   5.116   9.624 -2.0079  0.1740  1.0659
   17CHL1  H18B 1213   1.593   4.936   9.628 -1.5923  1.2051 -0.4819
   17CHL1  H18C 1214   1.581   5.034   9.778 -0.3525  1.6770 -0.3509
   17CHL1   C12 1215   1.813   4.847   9.770  0.7431 -0.3598  0.2262
   17CHL1  H12A 1216   1.745   4.766   9.735 -0.9470  0.4577  1.5613
   17CHL1  H12B 1217   1.919   4.823   9.750  1.3518  0.9637  1.7777
   17CHL1   C11 1218   1.769   4.850   9.918  0.9039 -0.2260  0.1740
   17CHL1  H11A 1219   1.663   4.883   9.915  0.3198 -2.1175 -4.0716
   17CHL1  H11B 1220   1.775   4.746   9.957 -1.2582 -1.1977 -1.9385
   17CHL1    C9 1221   1.848   4.960  10.002 -0.3607  0.3364 -0.7437
   17CHL1    H9 1222   1.955   4.932   9.986 -0.8193 -1.7362 -0.3850
   17CHL1   C10 1223   1.824   4.955  10.156 -0.0419 -0.7748 -0.2421
   17CHL1   C19 1224   1.670   4.928  10.179  0.5511 -0.2051  0.0408
   17CHL1  H19A 1225   1.639   4.830  10.139  1.5766 -0.5975  0.1910
   17CHL1  H19B 1226   1.636   4.938  10.284  0.2904 -2.0545  0.1377
   17CHL1  H19C 1227   1.617   5.001  10.114 -0.2693 -1.6089 -0.8974
   17CHL1    C1 1228   1.910   4.851  10.226  0.2033  0.0926  0.4305
   17CHL1   H1A 1229   1.881   4.751  10.186 -1.4736  1.5405 -2.1334
   17CHL1   H1B 1230   2.014   4.879  10.201  0.3397 -0.0704  0.8199
   17CHL1    C2 1231   1.891   4.846  10.381  0.2195  0.0843 -0.1518
   17CHL1   H2A 1232   1.964   4.775  10.426  0.1955 -0.3638 -0.8095
   17CHL1   H2B 1233   1.794   4.802  10.413  1.3954 -0.3323  3.0193
   17CHL1   C20 1234   1.801   4.946   9.449  0.6914 -0.6777  0.0468
   17CHL1   H20 1235   1.709   5.001   9.420  1.9823 -0.1717 -3.3941
   17CHL1   C21 1236   1.779   4.791   9.462  0.4490 -0.4182  0.1350
   17CHL1  H21A 1237   1.699   4.773   9.537  0.1610 -1.2707 -0.3744
   17CHL1  H21B 1238   1.870   4.748   9.509 -0.7553 -0.8625  2.1056
   17CHL1  H21C 1239   1.743   4.745   9.367  0.1502  0.1042 -0.0091
   17CHL1   C22 1240   1.896   4.976   9.330 -0.1270  0.1343 -0.4623
   17CHL1  H22A 1241   1.910   5.086   9.333 -1.4502  0.2912 -0.1253
   17CHL1  H22B 1242   1.994   4.928   9.354  0.0941  0.0280 -1.5355
   17CHL1   C23 1243   1.856   4.939   9.186 -0.3496 -0.0299 -0.3847
   17CHL1  H23A 1244   1.817   4.836   9.171  0.9300 -0.8395  1.6307
   17CHL1  H23B 1245   1.769   5.003   9.162 -1.3554 -0.7271  1.2970
   17CHL1   C24 1246   1.972   4.978   9.098  0.3485  0.2037 -0.4517
   17CHL1  H24A 1247   1.996   5.085   9.117 -1.9937  1.0839 -2.2174
   17CHL1  H24B 1248   2.052   4.905   9.122 -1.0933 -1.2212  0.1170
   17CHL1   C25 1249   1.938   4.984   8.941  0.4534  0.0073  0.1740
   17CHL1   H25 1250   1.842   5.041   8.947  1.1751  1.1575  1.0415
   17CHL1   C26 1251   2.041   5.051   8.842 -0.1211 -0.2114  0.3090
   17CHL1  H26A 1252   2.063   5.158   8.859  0.2766 -0.5875  2.3749
   17CHL1  H26B 1253   2.136   4.995   8.860 -0.5226 -0.2617  2.4305
   17CHL1  H26C 1254   2.008   5.027   8.739  0.6196  0.8174 -0.1754
   17CHL1   C27 1255   1.906   4.844   8.894  0.0307  0.0510 -0.7060
   17CHL1  H27A 1256   1.879   4.836   8.787 -0.0914 -2.2864 -0.5165
   17CHL1  H27B 1257   1.993   4.776   8.905 -0.5726 -0.5355  0.5045
   17CHL1  H27C 1258   1.826   4.796   8.955  1.6410  1.5338  2.7382
   18CHL1    C3 1259   0.569   4.002  10.392  0.6449  0.2821 -0.3180
   18CHL1    H3 1260   0.464   4.038  10.404  0.2967 -0.9195  0.2809
   18CHL1    O3 1261   0.617   4.009  10.521 -0.1258  0.2165  0.3031
   18CHL1   H3' 1262   0.603   3.923  10.559  1.3954  0.5366  1.6726
   18CHL1    C4 1263   0.570   3.854  10.351 -0.1107  1.2390  1.4171
   18CHL1   H4A 1264   0.675   3.819  10.357  0.7462  2.6713 -3.2228
   18CHL1   H4B 1265   0.502   3.806  10.426 -0.8142 -0.5926 -0.3537
   18CHL1    C5 1266   0.536   3.823  10.208  0.0564  0.6517 -1.1104
   18CHL1    C6 1267   0.448   3.729  10.175  0.9039  0.3507  0.4980
   18CHL1    H6 1268   0.416   3.662  10.257  0.5452 -0.6398 -0.4358
   18CHL1    C7 1269   0.414   3.694  10.037  0.3768  0.0583 -0.3218
   18CHL1   H7A 1270   0.430   3.584  10.034 -0.0027 -0.0380  1.1032
   18CHL1   H7B 1271   0.306   3.711  10.021  0.5112  0.1056 -1.2137
   18CHL1    C8 1272   0.511   3.754   9.931 -0.1394  0.9403 -0.1366
   18CHL1    H8 1273   0.605   3.696   9.933  1.6932  3.8734  2.4836
   18CHL1   C14 1274   0.449   3.744   9.793 -0.3035  0.0817  0.6877
   18CHL1   H14 1275   0.348   3.791   9.796  0.2158  1.1402  2.5830
   18CHL1   C15 1276   0.415   3.607   9.738  0.1933  0.5705 -0.0447
   18CHL1  H15A 1277   0.502   3.538   9.747  0.9512  1.1725 -2.4344
   18CHL1  H15B 1278   0.320   3.567   9.779  0.0872  3.4446  2.6539
   18CHL1   C16 1279   0.403   3.626   9.592 -0.2482 -0.9213 -0.3506
   18CHL1  H16A 1280   0.459   3.550   9.534 -0.3382 -1.4037  0.1905
   18CHL1  H16B 1281   0.296   3.625   9.562 -0.2108 -1.6838 -0.4675
   18CHL1   C17 1282   0.464   3.769   9.561 -0.3433  0.7752 -0.0220
   18CHL1   H17 1283   0.378   3.839   9.554 -1.9205 -1.2143 -0.9758
   18CHL1   C13 1284   0.538   3.811   9.689 -0.4995  0.2677  0.1006
   18CHL1   C18 1285   0.676   3.746   9.679 -0.1440 -0.2392 -0.1494
   18CHL1  H18A 1286   0.674   3.638   9.649 -0.1607 -0.1074 -0.6283
   18CHL1  H18B 1287   0.744   3.795   9.606  0.0604 -0.6067 -0.2094
   18CHL1  H18C 1288   0.729   3.757   9.775  0.0958 -1.9800 -0.0501
   18CHL1   C12 1289   0.546   3.967   9.718 -0.4754 -0.4096  0.8194
   18CHL1  H12A 1290   0.615   4.008   9.641 -1.7898  0.4324  0.0713
   18CHL1  H12B 1291   0.444   4.010   9.706  0.3710  1.8396  1.3583
   18CHL1   C11 1292   0.607   3.983   9.854 -0.5375  0.6032 -0.2449
   18CHL1  H11A 1293   0.711   3.945   9.844 -0.1712  1.2267  0.9972
   18CHL1  H11B 1294   0.611   4.090   9.886 -0.3568  0.4585  0.2196
   18CHL1    C9 1295   0.537   3.903   9.964  0.3529 -0.7386 -0.3731
   18CHL1    H9 1296   0.436   3.948   9.965 -0.2035 -1.9578 -0.3509
   18CHL1   C10 1297   0.607   3.913  10.107 -0.5319 -0.7094  0.6577
   18CHL1   C19 1298   0.751   3.861  10.104 -0.2980  0.9132 -0.1978
   18CHL1  H19A 1299   0.804   3.862  10.201 -1.1177  2.5272  0.2557
   18CHL1  H19B 1300   0.754   3.759  10.061  2.1057  0.2991  1.3096
   18CHL1  H19C 1301   0.808   3.939  10.049  0.0500 -0.3077 -1.6067
   18CHL1    C1 1302   0.608   4.062  10.149 -0.6855 -0.3442 -0.0558
   18CHL1   H1A 1303   0.667   4.125  10.079 -0.5409  0.9554  1.1950
   18CHL1   H1B 1304   0.501   4.090  10.137  0.1674  3.4495  0.3196
   18CHL1    C2 1305   0.648   4.092  10.292  0.2911 -0.1487  1.2709
   18CHL1   H2A 1306   0.631   4.201  10.299  0.4994  0.0847 -1.6192
   18CHL1   H2B 1307   0.755   4.064  10.308  0.8430  0.9398 -0.4428
   18CHL1   C20 1308   0.541   3.784   9.421 -0.1726 -0.4085  1.1424
   18CHL1   H20 1309   0.622   3.708   9.415  2.5598  2.3642  1.5774
   18CHL1   C21 1310   0.589   3.927   9.401 -0.2165 -0.5443  0.2268
   18CHL1  H21A 1311   0.601   3.949   9.292  0.8365  1.5726  0.7454
   18CHL1  H21B 1312   0.682   3.942   9.460  1.3821  2.0801 -2.8251
   18CHL1  H21C 1313   0.510   3.996   9.438 -0.7587 -1.1160  0.1525
   18CHL1   C22 1314   0.448   3.762   9.302 -0.6537 -0.2320  0.1695
   18CHL1  H22A 1315   0.365   3.690   9.321 -0.2975 -0.4452  0.9470
   18CHL1  H22B 1316   0.407   3.858   9.266  2.0097  0.9139  0.0255
   18CHL1   C23 1317   0.500   3.689   9.175 -0.7006 -0.8766 -0.3825
   18CHL1  H23A 1318   0.425   3.702   9.094 -0.4454 -0.4425 -0.5525
   18CHL1  H23B 1319   0.592   3.744   9.143  0.8488 -2.7112  0.8234
   18CHL1   C24 1320   0.539   3.549   9.197  0.1811  0.0803  0.1807
   18CHL1  H24A 1321   0.634   3.526   9.250  0.0392 -0.3515  0.2488
   18CHL1  H24B 1322   0.451   3.496   9.239 -0.3987  0.7779 -0.1353
   18CHL1   C25 1323   0.552   3.466   9.072  0.1393 -0.2517  0.0163
   18CHL1   H25 1324   0.463   3.472   9.006  0.0344 -0.0301  0.1776
   18CHL1   C26 1325   0.683   3.515   9.004  0.8977  0.3559  0.0894
   18CHL1  H26A 1326   0.666   3.621   8.975  2.2951  1.1795  2.1616
   18CHL1  H26B 1327   0.775   3.509   9.066  0.1598  0.1315  1.1747
   18CHL1  H26C 1328   0.692   3.460   8.908 -0.2756 -1.9184  1.2527
   18CHL1   C27 1329   0.565   3.313   9.099  0.0575  0.0011  0.0163
   18CHL1  H27A 1330   0.488   3.272   9.167  0.6713  1.6678  1.7476
   18CHL1  H27B 1331   0.581   3.256   9.005 -0.0306  0.4950 -0.3005
   18CHL1  H27C 1332   0.649   3.299   9.170 -1.1856  0.7822  1.6809
   19CHL1    C3 1333   4.866   0.246  10.099 -0.0302  0.0978 -0.3480
   19CHL1    H3 1334   4.881   0.136  10.105  2.1070  0.3160 -0.8992
   19CHL1    O3 1335   4.875   0.294  10.233  0.1537  0.1676 -0.4273
   19CHL1   H3' 1336   4.800   0.253  10.276  0.6437 -1.3640 -0.9578
   19CHL1    C4 1337   4.984   0.305  10.021 -0.1381  0.0275 -0.0588
   19CHL1   H4A 1338   5.005   0.414  10.028  1.3227 -0.1017 -1.7485
   19CHL1   H4B 1339   5.073   0.246  10.051 -1.5780 -2.0592  0.1892
   19CHL1    C5 1340   4.976   0.293   9.875  0.5851  1.1747 -0.2667
   19CHL1    C6 1341   5.071   0.244   9.792  0.5102 -0.3233  0.0997
   19CHL1    H6 1342   5.169   0.220   9.835  0.4693 -2.7066 -1.0743
   19CHL1    C7 1343   5.055   0.236   9.644  0.1615  0.1802 -0.5206
   19CHL1   H7A 1344   5.148   0.274   9.598  0.3089  2.5239  1.6139
   19CHL1   H7B 1345   5.029   0.130   9.622  0.3923 -0.5801  2.5453
   19CHL1    C8 1346   4.941   0.330   9.593 -0.0910  0.3446  0.1405
   19CHL1    H8 1347   4.972   0.435   9.614 -2.3511  1.2343 -0.7532
   19CHL1   C14 1348   4.923   0.315   9.441 -0.3198  1.0431 -0.3146
   19CHL1   H14 1349   4.891   0.209   9.436  2.6904  0.1456 -0.8579
   19CHL1   C15 1350   5.034   0.319   9.343 -0.7193 -0.3509 -0.2257
   19CHL1  H15A 1351   5.129   0.370   9.370  0.0863 -1.6995 -0.5209
   19CHL1  H15B 1352   5.074   0.218   9.324  0.5785  0.1108  0.0160
   19CHL1   C16 1353   4.961   0.371   9.215  0.3066 -0.3012 -0.3294
   19CHL1  H16A 1354   4.986   0.477   9.193 -1.6018 -0.0928 -1.5823
   19CHL1  H16B 1355   4.978   0.311   9.123 -1.9382 -2.4539  0.6134
   19CHL1   C17 1356   4.813   0.372   9.246  0.0029 -0.1721  0.7738
   19CHL1   H17 1357   4.778   0.268   9.229 -1.3192  0.6587 -1.7675
   19CHL1   C13 1358   4.801   0.404   9.393  0.4621 -0.0867  0.2084
   19CHL1   C18 1359   4.834   0.558   9.413  0.9083 -0.1636  0.3283
   19CHL1  H18A 1360   4.918   0.589   9.347  1.4446 -3.1974 -0.4606
   19CHL1  H18B 1361   4.744   0.620   9.389  0.3219 -0.5358  1.5462
   19CHL1  H18C 1362   4.850   0.586   9.519 -1.5028  1.0455  0.4203
   19CHL1   C12 1363   4.674   0.370   9.461 -0.6862  0.1700  0.7759
   19CHL1  H12A 1364   4.591   0.441   9.439 -0.4450  1.1026  2.7518
   19CHL1  H12B 1365   4.642   0.266   9.439  3.0982 -1.4325  2.4351
   19CHL1   C11 1366   4.694   0.389   9.619 -0.9073  0.0017  0.1571
   19CHL1  H11A 1367   4.696   0.498   9.642 -1.0925 -0.1783  1.0647
   19CHL1  H11B 1368   4.596   0.352   9.658 -0.6739 -1.6917 -0.8470
   19CHL1    C9 1369   4.812   0.308   9.671  0.4098  0.8151  0.1305
   19CHL1    H9 1370   4.785   0.201   9.662 -0.5164  0.8490  2.2676
   19CHL1   C10 1371   4.833   0.339   9.821 -0.1570  0.7294  0.0066
   19CHL1   C19 1372   4.831   0.489   9.852  0.5279 -0.7060  0.5194
   19CHL1  H19A 1373   4.918   0.537   9.801  1.1521 -0.8309  1.4484
   19CHL1  H19B 1374   4.738   0.548   9.840  0.1640 -1.2514  0.6583
   19CHL1  H19C 1375   4.848   0.520   9.958  0.0469  0.2907  0.3078
   19CHL1    C1 1376   4.719   0.269   9.894 -0.1662 -1.0022 -1.0149
   19CHL1   H1A 1377   4.622   0.312   9.863 -0.0236  0.4826  0.5296
   19CHL1   H1B 1378   4.720   0.162   9.864  0.6099 -0.8964 -1.3906
   19CHL1    C2 1379   4.727   0.285  10.049  0.5362 -0.4256  0.2912
   19CHL1   H2A 1380   4.659   0.213  10.099 -1.0631  0.7094 -0.2119
   19CHL1   H2B 1381   4.706   0.393  10.067 -0.0275 -0.2260 -1.4517
   19CHL1   C20 1382   4.746   0.458   9.136 -0.0055 -0.5402  0.7888
   19CHL1   H20 1383   4.774   0.565   9.133  2.0303 -1.0182  2.2355
   19CHL1   C21 1384   4.596   0.458   9.156 -0.2725  0.3288 -0.5747
   19CHL1  H21A 1385   4.534   0.469   9.064 -1.4290 -1.6272 -0.0488
   19CHL1  H21B 1386   4.570   0.538   9.230 -0.1069  0.1116 -0.2814
   19CHL1  H21C 1387   4.556   0.367   9.205 -0.7405  1.3158  0.9509
   19CHL1   C22 1388   4.768   0.411   8.993 -0.3039  1.0914  1.1299
   19CHL1  H22A 1389   4.710   0.472   8.921  0.6470 -0.6823 -1.2194
   19CHL1  H22B 1390   4.877   0.433   8.982  0.4024 -2.1871  1.0291
   19CHL1   C23 1391   4.758   0.264   8.950 -0.0284 -0.2077  0.1259
   19CHL1  H23A 1392   4.829   0.208   9.014  0.7431  1.0684  0.4047
   19CHL1  H23B 1393   4.657   0.226   8.979 -0.1108 -0.4418 -0.4568
   19CHL1   C24 1394   4.772   0.230   8.799  0.1447 -0.0475  0.2818
   19CHL1  H24A 1395   4.879   0.240   8.770  0.4067  0.8116  1.4824
   19CHL1  H24B 1396   4.749   0.123   8.780 -0.0398  0.4056 -2.2514
   19CHL1   C25 1397   4.693   0.313   8.694 -0.0992  0.2071  0.3828
   19CHL1   H25 1398   4.743   0.412   8.698 -2.6081  1.4529  1.5266
   19CHL1   C26 1399   4.726   0.277   8.548 -0.4270 -0.4595 -0.0188
   19CHL1  H26A 1400   4.836   0.264   8.537 -0.5639  0.5440 -3.0335
   19CHL1  H26B 1401   4.668   0.183   8.532 -2.4055  0.1606  3.0498
   19CHL1  H26C 1402   4.698   0.359   8.479 -1.4077 -0.5787  0.2350
   19CHL1   C27 1403   4.543   0.308   8.712 -0.0243 -0.3284 -0.0324
   19CHL1  H27A 1404   4.497   0.246   8.632 -0.3546  0.3677 -0.3911
   19CHL1  H27B 1405   4.523   0.268   8.814  0.2901 -0.0711  0.1315
   19CHL1  H27C 1406   4.499   0.410   8.713  0.1814 -0.2253 -0.7346
   20CHL1    C3 1407   0.292   0.826  10.313  0.4484  0.1161 -0.1124
   20CHL1    H3 1408   0.275   0.936  10.308 -2.5257 -0.4145 -2.9980
   20CHL1    O3 1409   0.272   0.796  10.447 -0.5606 -0.3396 -0.0891
   20CHL1   H3' 1410   0.289   0.702  10.454 -0.2903 -0.2434  0.6375
   20CHL1    C4 1411   0.209   0.734  10.227  0.1029  0.6224 -0.1566
   20CHL1   H4A 1412   0.234   0.627  10.245 -2.4842  0.4566  2.7538
   20CHL1   H4B 1413   0.102   0.745  10.253  0.4008  2.3831  0.3875
   20CHL1    C5 1414   0.242   0.762  10.081  0.1419  0.2189  0.0642
   20CHL1    C6 1415   0.141   0.823  10.009 -0.2622  1.0038  0.5235
   20CHL1    H6 1416   0.042   0.842  10.055 -0.6449  0.1816  0.0445
   20CHL1    C7 1417   0.161   0.857   9.864 -0.0133 -0.0075 -0.4054
   20CHL1   H7A 1418   0.074   0.824   9.804  1.1591 -1.1869 -1.4860
   20CHL1   H7B 1419   0.174   0.967   9.855 -2.0304  0.4387  1.5746
   20CHL1    C8 1420   0.276   0.780   9.804 -0.6159  0.4648 -0.0829
   20CHL1    H8 1421   0.251   0.672   9.804 -0.1491  0.3557 -1.3606
   20CHL1   C14 1422   0.300   0.818   9.659 -0.1234 -0.1133  1.1938
   20CHL1   H14 1423   0.344   0.920   9.665  2.2753 -0.9888 -0.8760
   20CHL1   C15 1424   0.182   0.819   9.554 -0.5131  0.0398  0.6171
   20CHL1  H15A 1425   0.119   0.730   9.573  1.1370 -1.1686  0.5436
   20CHL1  H15B 1426   0.122   0.908   9.582  1.0629  1.3455 -0.0299
   20CHL1   C16 1427   0.253   0.815   9.422  0.4090  0.4743 -0.2783
   20CHL1  H16A 1428   0.216   0.733   9.356  0.6783  1.6014 -1.8717
   20CHL1  H16B 1429   0.237   0.904   9.357 -0.8488  0.5875  0.1913
   20CHL1   C17 1430   0.407   0.793   9.453  0.1310  0.4977  0.3064
   20CHL1   H17 1431   0.443   0.896   9.475  0.8084  0.1311  0.9307
   20CHL1   C13 1432   0.404   0.730   9.599 -0.2582 -0.2800 -0.3249
   20CHL1   C18 1433   0.370   0.579   9.602 -0.4116  0.4128  0.2878
   20CHL1  H18A 1434   0.439   0.521   9.538  0.5723  1.1036  0.7183
   20CHL1  H18B 1435   0.383   0.539   9.705  3.0369  0.9770  0.1201
   20CHL1  H18C 1436   0.263   0.565   9.573 -1.6642  3.3091  3.1078
   20CHL1   C12 1437   0.541   0.759   9.675  0.0020 -0.1262  0.6852
   20CHL1  H12A 1438   0.609   0.680   9.637 -0.7472 -1.0493  1.2249
   20CHL1  H12B 1439   0.581   0.860   9.654 -0.9425  0.6046  2.2661
   20CHL1   C11 1440   0.534   0.727   9.825 -0.0497  0.0945  0.3362
   20CHL1  H11A 1441   0.532   0.616   9.820 -0.8492  0.1546 -0.9420
   20CHL1  H11B 1442   0.628   0.749   9.880  1.4353  0.0949 -2.1188
   20CHL1    C9 1443   0.407   0.790   9.892  0.1850 -1.0162  0.1905
   20CHL1    H9 1444   0.423   0.900   9.893 -1.9822 -0.6498 -0.6257
   20CHL1   C10 1445   0.383   0.746  10.040 -0.7878  0.2256  0.4444
   20CHL1   C19 1446   0.420   0.596  10.048  0.7362  0.3393 -0.2484
   20CHL1  H19A 1447   0.384   0.552  10.143 -1.1803  0.1807 -1.0333
   20CHL1  H19B 1448   0.381   0.538   9.962  0.9242 -1.0875  0.6266
   20CHL1  H19C 1449   0.530   0.583  10.058  0.6748 -1.3500 -1.7105
   20CHL1    C1 1450   0.471   0.826  10.140  0.0365 -0.7400 -0.4879
   20CHL1   H1A 1451   0.575   0.787  10.135  0.3629  0.2222 -1.3329
   20CHL1   H1B 1452   0.469   0.935  10.121 -2.8651 -0.6047  0.3906
   20CHL1    C2 1453   0.445   0.805  10.287  0.6955 -0.3194 -0.2109
   20CHL1   H2A 1454   0.508   0.871  10.349 -0.5618  0.3513  0.3764
   20CHL1   H2B 1455   0.474   0.705  10.323 -0.7070 -1.5796 -2.4474
   20CHL1   C20 1456   0.494   0.739   9.332 -0.2721 -0.2995 -1.1808
   20CHL1   H20 1457   0.467   0.632   9.320 -0.9627 -0.0805 -1.6033
   20CHL1   C21 1458   0.647   0.738   9.367 -0.6755  0.7293  0.1466
   20CHL1  H21A 1459   0.693   0.834   9.399 -2.1064  1.0888  1.1891
   20CHL1  H21B 1460   0.684   0.694   9.272 -0.2659  1.0251  0.1716
   20CHL1  H21C 1461   0.672   0.666   9.447  1.3299  1.4339  0.1693
   20CHL1   C22 1462   0.456   0.794   9.190 -0.0574  0.3393  0.1420
   20CHL1  H22A 1463   0.514   0.745   9.109 -0.0501 -0.5691  0.6847
   20CHL1  H22B 1464   0.354   0.759   9.165  0.8793 -0.0330 -3.5032
   20CHL1   C23 1465   0.450   0.951   9.180 -0.0717  0.8613  0.0042
   20CHL1  H23A 1466   0.393   0.979   9.271  1.0780 -0.0935  1.0360
   20CHL1  H23B 1467   0.552   0.990   9.200  0.1700  0.0423  0.4199
   20CHL1   C24 1468   0.385   1.002   9.058 -0.0579 -0.5133  0.1444
   20CHL1  H24A 1469   0.285   0.954   9.067  0.5773 -1.6090  1.4828
   20CHL1  H24B 1470   0.378   1.113   9.061 -1.7476 -0.6087  0.7734
   20CHL1   C25 1471   0.450   0.969   8.924 -0.4012  0.3162 -0.1957
   20CHL1   H25 1472   0.477   0.861   8.919  0.2091  0.4844 -0.5016
   20CHL1   C26 1473   0.355   0.991   8.807  0.2151  0.0745  0.4689
   20CHL1  H26A 1474   0.273   0.917   8.823  0.6919 -0.5986 -0.1839
   20CHL1  H26B 1475   0.325   1.098   8.808  2.9552  0.8827  2.4356
   20CHL1  H26C 1476   0.399   0.967   8.708  2.1533  0.8592  1.1140
   20CHL1   C27 1477   0.596   1.035   8.901 -0.1658  0.1948  0.0906
   20CHL1  H27A 1478   0.664   1.004   8.984  0.7288 -1.8678 -1.3577
   20CHL1  H27B 1479   0.649   0.998   8.810 -1.7186 -0.0488 -0.7274
   20CHL1  H27C 1480   0.587   1.145   8.889  0.5773  0.0550 -2.0706
   21CHL1    C3 1481   0.131   4.058  10.270 -0.5484 -0.6327  0.9959
   21CHL1    H3 1482   0.240   4.047  10.249 -0.5293 -2.2726  1.8612
   21CHL1    O3 1483   0.121   4.093  10.408 -0.4486 -0.6015 -0.2005
   21CHL1   H3' 1484   0.027   4.083  10.428 -0.0754 -0.3864  1.7481
   21CHL1    C4 1485   0.077   4.171  10.184  0.1520  0.1140 -0.1206
   21CHL1   H4A 1486  -0.026   4.188  10.222  0.1650  0.1351 -0.0950
   21CHL1   H4B 1487   0.130   4.267  10.202 -0.8333  0.7192 -0.4543
   21CHL1    C5 1488   0.071   4.139  10.039 -0.7728 -0.0331  0.3885
   21CHL1    C6 1489   0.125   4.222   9.946 -0.0821  0.4806  0.4508
   21CHL1    H6 1490   0.161   4.319   9.983  0.4169 -0.3992  2.3370
   21CHL1    C7 1491   0.139   4.188   9.800 -0.2971  0.8300  0.3905
   21CHL1   H7A 1492   0.106   4.268   9.730 -1.6398 -0.5459 -0.5839
   21CHL1   H7B 1493   0.244   4.159   9.782 -1.0262 -1.3775 -0.5743
   21CHL1    C8 1494   0.046   4.068   9.764 -0.0569 -0.2007  0.1836
   21CHL1    H8 1495  -0.057   4.109   9.754 -0.2316 -0.8225 -0.6658
   21CHL1   C14 1496   0.081   4.012   9.629 -0.3521 -0.1679  0.3205
   21CHL1   H14 1497   0.188   3.989   9.644 -0.4522 -1.1334 -0.4295
   21CHL1   C15 1498   0.082   4.109   9.509 -0.3664 -0.4744  0.0214
   21CHL1  H15A 1499  -0.012   4.167   9.497 -1.2477 -1.6565  1.1051
   21CHL1  H15B 1500   0.168   4.178   9.514 -2.0470  1.6596  0.1785
   21CHL1   C16 1501   0.097   4.019   9.386  0.3963 -0.6894 -0.6046
   21CHL1  H16A 1502   0.010   4.041   9.320  1.5803 -0.6892 -2.1917
   21CHL1  H16B 1503   0.199   4.025   9.344  1.1141  0.4737  1.2339
   21CHL1   C17 1504   0.079   3.868   9.430 -0.3549 -0.5190 -0.1255
   21CHL1   H17 1505   0.184   3.835   9.441  0.1599  1.9591  3.2121
   21CHL1   C13 1506   0.014   3.885   9.569 -0.0508  0.5492 -0.3162
   21CHL1   C18 1507  -0.137   3.916   9.542  0.2958  0.1235 -0.4494
   21CHL1  H18A 1508  -0.157   3.995   9.467 -5.2935  0.3968  1.1374
   21CHL1  H18B 1509  -0.188   3.824   9.506  0.1791  0.0249 -0.0371
   21CHL1  H18C 1510  -0.181   3.967   9.630  0.5935 -2.3636  1.2114
   21CHL1   C12 1511   0.026   3.776   9.680 -0.2627 -0.3798 -0.4888
   21CHL1  H12A 1512  -0.032   3.684   9.658  1.0336 -1.0038 -1.3517
   21CHL1  H12B 1513   0.134   3.754   9.687 -0.0464  1.3101  2.1987
   21CHL1   C11 1514  -0.017   3.822   9.823 -0.3967 -0.0863  0.1519
   21CHL1  H11A 1515  -0.123   3.844   9.801 -0.7308 -1.8703 -0.1306
   21CHL1  H11B 1516  -0.002   3.740   9.896 -2.0110 -0.4835  0.0571
   21CHL1    C9 1517   0.057   3.954   9.871 -0.3231 -0.1635  0.3110
   21CHL1    H9 1518   0.166   3.934   9.877 -0.5255 -1.4747 -0.2897
   21CHL1   C10 1519   0.015   3.999  10.014  0.9223 -0.0257  0.1922
   21CHL1   C19 1520  -0.137   3.992  10.019  0.8682 -0.0577 -0.3062
   21CHL1  H19A 1521  -0.182   4.054  10.099 -0.1144 -2.3242  0.9394
   21CHL1  H19B 1522  -0.180   4.029   9.923 -2.4786  0.8652  1.4823
   21CHL1  H19C 1523  -0.163   3.884  10.020 -0.4960  0.2545 -0.8731
   21CHL1    C1 1524   0.085   3.895  10.106  0.0374 -0.5528  0.4733
   21CHL1   H1A 1525   0.050   3.791  10.091 -0.9105 -0.2825  0.7585
   21CHL1   H1B 1526   0.194   3.888  10.084  0.4115  1.6281  1.4817
   21CHL1    C2 1527   0.059   3.927  10.247 -0.3046  0.1417 -0.2968
   21CHL1   H2A 1528   0.101   3.842  10.305 -0.4766 -1.1734 -2.0667
   21CHL1   H2B 1529  -0.049   3.932  10.275 -0.4307  0.5403 -0.8399
   21CHL1   C20 1530   0.007   3.779   9.329 -0.4080  0.4117 -0.0866
   21CHL1   H20 1531  -0.104   3.790   9.322 -0.0938  3.4581 -1.3714
   21CHL1   C21 1532   0.040   3.629   9.363 -0.8870 -0.0936  0.0619
   21CHL1  H21A 1533   0.001   3.595   9.461  2.6324 -0.4563  1.3940
   21CHL1  H21B 1534   0.150   3.615   9.360 -0.9284 -0.2694 -1.3394
   21CHL1  H21C 1535   0.003   3.555   9.289 -0.4670 -1.4941  1.2285
   21CHL1   C22 1536   0.057   3.813   9.184  0.4029  0.3450 -0.0509
   21CHL1  H22A 1537   0.028   3.917   9.161  0.3141  0.1333 -0.9128
   21CHL1  H22B 1538   0.166   3.797   9.167  0.3546 -2.9681  2.2405
   21CHL1   C23 1539  -0.003   3.725   9.077  0.1084  0.3794 -0.4533
   21CHL1  H23A 1540   0.005   3.616   9.095  4.0638  0.8629  1.2255
   21CHL1  H23B 1541  -0.107   3.752   9.051  1.0553  3.0389 -1.7377
   21CHL1   C24 1542   0.072   3.743   8.946 -0.1255  1.4756  0.1446
   21CHL1  H24A 1543   0.099   3.850   8.938  1.5616  1.0924  0.4430
   21CHL1  H24B 1544   0.164   3.680   8.948 -1.6664 -1.0794 -3.5285
   21CHL1   C25 1545  -0.008   3.704   8.829  0.6144  0.4570 -0.1457
   21CHL1   H25 1546  -0.102   3.760   8.843  1.4580  1.4965  1.5434
   21CHL1   C26 1547   0.054   3.749   8.690  0.6209 -1.0032 -0.8592
   21CHL1  H26A 1548   0.127   3.674   8.652  0.0751 -0.9290 -2.1037
   21CHL1  H26B 1549  -0.016   3.765   8.605  2.6403  3.1157 -1.9042
   21CHL1  H26C 1550   0.109   3.845   8.698  2.1637 -1.8514 -1.0213
   21CHL1   C27 1551  -0.055   3.556   8.818  0.2227  0.0660  0.2048
   21CHL1  H27A 1552  -0.123   3.554   8.730  0.0594 -2.1605  0.3551
   21CHL1  H27B 1553   0.037   3.495   8.810 -0.0944 -0.6896  2.0986
   21CHL1  H27C 1554  -0.126   3.515   8.894 -0.9358 -0.1871 -0.9917
   22CHL1    C3 1555   6.114   4.690  10.146 -0.0479  0.0366 -0.1195
   22CHL1    H3 1556   6.195   4.618  10.120 -1.1253 -1.5749  0.9542
   22CHL1    O3 1557   6.131   4.730  10.280 -0.2347  0.0507  0.6067
   22CHL1   H3' 1558   6.083   4.667  10.333 -1.8587  1.3259  0.6940
   22CHL1    C4 1559   6.121   4.816  10.059 -0.3136 -0.8624  0.6469
   22CHL1   H4A 1560   6.040   4.887  10.084  0.9606  0.5240  0.9109
   22CHL1   H4B 1561   6.215   4.875  10.070  1.0626 -2.1659 -3.3794
   22CHL1    C5 1562   6.100   4.786   9.912  0.2806  0.1620 -0.0944
   22CHL1    C6 1563   6.198   4.794   9.821 -0.1580  0.6678  0.3095
   22CHL1    H6 1564   6.299   4.833   9.846 -0.8912  3.3145 -0.6347
   22CHL1    C7 1565   6.184   4.741   9.681  0.4563 -0.3778  0.2961
   22CHL1   H7A 1566   6.232   4.812   9.611  0.0901 -1.1506 -0.7624
   22CHL1   H7B 1567   6.241   4.646   9.670 -0.8496 -1.1247 -0.0875
   22CHL1    C8 1568   6.036   4.714   9.636  0.0191  0.5063 -0.3412
   22CHL1    H8 1569   5.987   4.813   9.623 -0.7912 -0.0296 -1.5193
   22CHL1   C14 1570   6.027   4.638   9.505  0.3545 -0.0385  0.8753
   22CHL1   H14 1571   6.083   4.543   9.521  1.0224  0.0772 -0.6528
   22CHL1   C15 1572   6.099   4.692   9.382 -0.3335 -0.2852  0.7144
   22CHL1  H15A 1573   6.093   4.802   9.367 -1.0932 -0.6968 -2.3995
   22CHL1  H15B 1574   6.210   4.681   9.389 -0.2150  0.7307  0.5340
   22CHL1   C16 1575   6.034   4.620   9.263 -0.7273 -0.0744  0.3926
   22CHL1  H16A 1576   6.000   4.699   9.193 -1.3568 -0.5444  0.1648
   22CHL1  H16B 1577   6.106   4.553   9.212  0.5163  0.1710  1.8095
   22CHL1   C17 1578   5.914   4.546   9.328  0.0791  0.3814  0.1486
   22CHL1   H17 1579   5.959   4.446   9.343  2.7634  1.5423  0.1374
   22CHL1   C13 1580   5.886   4.604   9.463 -0.2810  0.2848  0.3539
   22CHL1   C18 1581   5.792   4.727   9.434  0.1096 -0.5423 -0.3209
   22CHL1  H18A 1582   5.794   4.799   9.519 -0.2786 -0.7013 -0.1745
   22CHL1  H18B 1583   5.821   4.778   9.340  2.5413 -1.5451 -0.1451
   22CHL1  H18C 1584   5.688   4.687   9.437  0.4532 -1.3351  2.1327
   22CHL1   C12 1585   5.842   4.498   9.564 -0.6640  0.0392 -0.1687
   22CHL1  H12A 1586   5.742   4.467   9.526 -0.2207 -0.1137 -1.2203
   22CHL1  H12B 1587   5.918   4.417   9.570  0.5523  1.2530  1.1019
   22CHL1   C11 1588   5.835   4.568   9.701 -0.0155 -0.2360  0.2918
   22CHL1  H11A 1589   5.768   4.655   9.681  0.0782  0.0518  1.2109
   22CHL1  H11B 1590   5.791   4.490   9.767  1.0093 -0.0496  1.2060
   22CHL1    C9 1591   5.970   4.629   9.746  0.3335 -0.2617  0.0700
   22CHL1    H9 1592   6.036   4.540   9.756  4.5642  2.7511  0.3076
   22CHL1   C10 1593   5.968   4.701   9.884  0.1512  0.1927  0.2170
   22CHL1   C19 1594   5.847   4.800   9.891 -0.3565 -0.1995  0.9415
   22CHL1  H19A 1595   5.855   4.887   9.823 -0.0938 -1.6334 -0.8892
   22CHL1  H19B 1596   5.754   4.744   9.869 -0.5665 -0.9159  3.4523
   22CHL1  H19C 1597   5.839   4.831   9.998 -0.5056  2.3734  0.2116
   22CHL1    C1 1598   5.955   4.590   9.993  0.1008 -0.7541 -0.6291
   22CHL1   H1A 1599   5.850   4.553   9.983 -0.8650  1.2065  1.5038
   22CHL1   H1B 1600   6.027   4.510   9.968  0.5838 -0.6777  0.4621
   22CHL1    C2 1601   5.975   4.629  10.137 -0.0909  0.2518  0.3462
   22CHL1   H2A 1602   5.953   4.554  10.216 -1.7413  0.6149  0.2532
   22CHL1   H2B 1603   5.896   4.705  10.152 -0.4028 -0.0956  0.4773
   22CHL1   C20 1604   5.795   4.508   9.233 -0.9463  0.4703  0.6089
   22CHL1   H20 1605   5.740   4.604   9.219  0.5889  1.2053 -0.5253
   22CHL1   C21 1606   5.698   4.396   9.287  1.0034  0.2949 -0.8436
   22CHL1  H21A 1607   5.657   4.337   9.202 -0.6903  0.6876 -0.3061
   22CHL1  H21B 1608   5.632   4.416   9.374  0.3277 -0.6504 -1.1319
   22CHL1  H21C 1609   5.780   4.334   9.329  1.1994  0.7434 -0.5561
   22CHL1   C22 1610   5.847   4.463   9.091  0.3807  0.3991 -0.0059
   22CHL1  H22A 1611   5.761   4.446   9.022  1.0463  1.0601 -1.0065
   22CHL1  H22B 1612   5.903   4.548   9.048  1.0706  1.0167  2.0494
   22CHL1   C23 1613   5.925   4.330   9.080 -0.0108  0.1876  0.0237
   22CHL1  H23A 1614   6.011   4.322   9.150  0.3489  2.9183 -0.0592
   22CHL1  H23B 1615   5.846   4.257   9.108 -0.2676  0.3472 -0.2753
   22CHL1   C24 1616   5.966   4.294   8.933 -0.3605 -0.4182 -0.1472
   22CHL1  H24A 1617   5.964   4.186   8.908  1.5917 -0.5800  0.3393
   22CHL1  H24B 1618   5.884   4.339   8.873  0.2916 -0.4238 -1.0562
   22CHL1   C25 1619   6.109   4.340   8.901 -0.4964  0.1471 -0.0586
   22CHL1   H25 1620   6.180   4.311   8.982  0.2078 -0.0335 -0.7372
   22CHL1   C26 1621   6.160   4.273   8.774  0.3502 -0.1744 -0.1488
   22CHL1  H26A 1622   6.267   4.305   8.768  1.0192 -1.9453  1.7518
   22CHL1  H26B 1623   6.151   4.163   8.777  1.2732 -0.2759 -0.8544
   22CHL1  H26C 1624   6.104   4.313   8.687 -2.5564 -1.3554  1.1127
   22CHL1   C27 1625   6.118   4.491   8.894  0.4819  0.2234  0.9121
   22CHL1  H27A 1626   6.058   4.543   8.817 -1.7586 -2.4852  0.7478
   22CHL1  H27B 1627   6.095   4.530   8.996 -1.4070 -3.6297  2.0596
   22CHL1  H27C 1628   6.223   4.512   8.865  0.3973  0.2485  0.6204
   23CHL1    C3 1629   2.819   6.427  10.253 -0.5148 -0.2908 -0.3428
   23CHL1    H3 1630   2.865   6.331  10.222 -1.2900 -1.2996  1.5777
   23CHL1    O3 1631   2.835   6.456  10.388  0.2109  0.6652 -0.7579
   23CHL1   H3' 1632   2.808   6.548  10.388  0.4568  0.7336  0.1736
   23CHL1    C4 1633   2.876   6.542  10.156 -0.4696 -0.0564  0.0719
   23CHL1   H4A 1634   2.843   6.639  10.199 -0.1797  0.1604 -0.1843
   23CHL1   H4B 1635   2.985   6.520  10.165 -0.5640 -1.3858 -1.7234
   23CHL1    C5 1636   2.832   6.524  10.013  0.4828  1.1748 -0.3823
   23CHL1    C6 1637   2.920   6.542   9.908 -0.1136  0.4630  0.1974
   23CHL1    H6 1638   3.027   6.551   9.932  0.1239 -0.7160 -0.4057
   23CHL1    C7 1639   2.895   6.529   9.761  0.4654 -0.0056 -0.1953
   23CHL1   H7A 1640   2.959   6.596   9.700  0.0107  0.3390 -0.2933
   23CHL1   H7B 1641   2.920   6.423   9.739  0.6624 -0.3968  1.8326
   23CHL1    C8 1642   2.742   6.536   9.722 -0.7478  0.8268  0.6344
   23CHL1    H8 1643   2.691   6.634   9.720  0.6294  1.5825  1.4630
   23CHL1   C14 1644   2.729   6.476   9.582 -0.4573 -0.2541  0.1896
   23CHL1   H14 1645   2.750   6.368   9.601  1.3581  0.0502 -0.0233
   23CHL1   C15 1646   2.827   6.509   9.468 -0.3378  0.2640 -0.1270
   23CHL1  H15A 1647   2.835   6.619   9.465 -0.2599  0.2437 -0.7790
   23CHL1  H15B 1648   2.922   6.452   9.477  0.0345  0.7147 -1.1588
   23CHL1   C16 1649   2.760   6.459   9.339 -0.1241 -0.3054 -0.5978
   23CHL1  H16A 1650   2.737   6.528   9.255 -1.1897 -0.6756 -0.6176
   23CHL1  H16B 1651   2.823   6.386   9.285  2.3433  0.2139  1.5480
   23CHL1   C17 1652   2.621   6.397   9.380  0.5645  0.1566  0.2076
   23CHL1   H17 1653   2.648   6.290   9.395  1.0464  0.6979  3.5471
   23CHL1   C13 1654   2.588   6.464   9.521 -0.1379 -0.9433  0.1969
   23CHL1   C18 1655   2.526   6.606   9.509 -0.6766 -0.2327  0.8670
   23CHL1  H18A 1656   2.598   6.679   9.468  0.3455 -1.5287  0.3240
   23CHL1  H18B 1657   2.433   6.607   9.448 -0.8272  1.4044  1.1013
   23CHL1  H18C 1658   2.503   6.641   9.612 -1.5837  0.6834  0.3679
   23CHL1   C12 1659   2.512   6.378   9.623  0.2953 -0.0468 -0.2284
   23CHL1  H12A 1660   2.405   6.369   9.597 -0.3202 -1.6987  2.6800
   23CHL1  H12B 1661   2.550   6.274   9.627 -0.2393 -0.2162  0.4580
   23CHL1   C11 1662   2.526   6.436   9.770  0.3540 -0.0930 -0.0740
   23CHL1  H11A 1663   2.468   6.531   9.772 -1.4189 -1.1664  0.2969
   23CHL1  H11B 1664   2.470   6.358   9.826  0.2640  1.5166  2.1568
   23CHL1    C9 1665   2.668   6.447   9.822 -0.7188 -0.1640 -0.7724
   23CHL1    H9 1666   2.713   6.346   9.809  2.6014  1.0500  0.6998
   23CHL1   C10 1667   2.691   6.490   9.971  0.8141 -0.0791 -0.0630
   23CHL1   C19 1668   2.617   6.619  10.009  0.0128  0.3243 -0.3555
   23CHL1  H19A 1669   2.647   6.705   9.945 -0.4563  0.3808 -0.5069
   23CHL1  H19B 1670   2.513   6.605   9.971  0.5142 -1.1597 -1.2257
   23CHL1  H19C 1671   2.615   6.650  10.115 -1.6973  0.2621 -0.3500
   23CHL1    C1 1672   2.640   6.383  10.076  0.0561 -0.8632  0.2132
   23CHL1   H1A 1673   2.535   6.355  10.053 -0.0732  0.4935 -0.9017
   23CHL1   H1B 1674   2.692   6.290  10.048  1.3034 -0.5217  1.3660
   23CHL1    C2 1675   2.668   6.409  10.225  0.7967  0.5496  0.5116
   23CHL1   H2A 1676   2.613   6.332  10.283  0.9375 -0.2736 -0.4391
   23CHL1   H2B 1677   2.616   6.501  10.256  1.5555  1.0145  0.4181
   23CHL1   C20 1678   2.518   6.403   9.264 -0.0735  0.3369  0.5051
   23CHL1   H20 1679   2.472   6.504   9.261 -1.2994 -0.1932  0.9110
   23CHL1   C21 1680   2.400   6.310   9.309  0.9689  0.0642  0.3389
   23CHL1  H21A 1681   2.321   6.286   9.234  3.2707 -0.0666 -2.1345
   23CHL1  H21B 1682   2.345   6.353   9.396 -2.6804  0.9880 -2.2991
   23CHL1  H21C 1683   2.452   6.215   9.332  2.8484  0.3872 -2.3752
   23CHL1   C22 1684   2.575   6.371   9.122 -0.2634  0.0878 -0.0692
   23CHL1  H22A 1685   2.658   6.439   9.091 -0.8528  0.3323 -1.1319
   23CHL1  H22B 1686   2.619   6.271   9.142 -0.2591 -0.1278 -1.1576
   23CHL1   C23 1687   2.477   6.360   9.002  0.2326 -0.3328  0.1046
   23CHL1  H23A 1688   2.401   6.282   9.024 -1.3882  1.4113  0.8164
   23CHL1  H23B 1689   2.425   6.455   8.979 -0.8931 -1.2834 -1.4067
   23CHL1   C24 1690   2.552   6.326   8.875  0.2927 -0.2936  0.2847
   23CHL1  H24A 1691   2.601   6.421   8.842  0.7728 -0.1281  1.4764
   23CHL1  H24B 1692   2.622   6.242   8.893  1.2247  0.7135  1.4843
   23CHL1   C25 1693   2.463   6.282   8.757  0.1915 -0.7144 -0.8470
   23CHL1   H25 1694   2.369   6.341   8.770  0.5440 -0.0901 -1.1293
   23CHL1   C26 1695   2.535   6.309   8.618 -0.2712 -0.1923  0.5644
   23CHL1  H26A 1696   2.625   6.245   8.611 -0.5148 -0.3704 -1.2594
   23CHL1  H26B 1697   2.468   6.296   8.530 -2.1977 -0.7222  2.0702
   23CHL1  H26C 1698   2.571   6.414   8.614  0.2363 -0.3930 -0.1782
   23CHL1   C27 1699   2.414   6.135   8.771  0.5254  0.0552 -0.3955
   23CHL1  H27A 1700   2.320   6.125   8.712 -0.4045 -1.7775  1.3596
   23CHL1  H27B 1701   2.498   6.065   8.752  0.3326  0.0587 -1.2671
   23CHL1  H27C 1702   2.384   6.113   8.875  0.5581 -0.1580 -0.4320
   24CHL1    C3 1703   4.253   0.543  10.021  0.6772 -0.9246  0.8381
   24CHL1    H3 1704   4.322   0.627  10.003  1.0431 -1.4248 -0.0895
   24CHL1    O3 1705   4.250   0.526  10.166  0.8040 -0.1251 -0.6471
   24CHL1   H3' 1706   4.343   0.514  10.186  0.8863  1.2050 -0.1631
   24CHL1    C4 1707   4.112   0.562   9.973 -0.1919 -0.9642  0.1413
   24CHL1   H4A 1708   4.052   0.476  10.012  1.4574 -1.6392  1.2410
   24CHL1   H4B 1709   4.066   0.656  10.011 -0.2766 -1.7168  1.9414
   24CHL1    C5 1710   4.105   0.562   9.822  0.1739 -0.2205 -0.4539
   24CHL1    C6 1711   4.040   0.662   9.759  0.9418  0.0004  0.4714
   24CHL1    H6 1712   3.997   0.742   9.822  1.0621  0.1961  0.3073
   24CHL1    C7 1713   4.025   0.662   9.605 -0.4372  1.2178 -0.1624
   24CHL1   H7A 1714   3.923   0.684   9.567 -0.9503  0.8589  0.9851
   24CHL1   H7B 1715   4.086   0.747   9.566 -0.9330  1.9686  0.6524
   24CHL1    C8 1716   4.081   0.535   9.533 -0.5005  0.2708  0.0744
   24CHL1    H8 1717   3.995   0.465   9.535  0.6761 -1.2599 -1.0676
   24CHL1   C14 1718   4.119   0.560   9.386  0.2638  0.1588 -0.4330
   24CHL1   H14 1719   4.216   0.616   9.385 -0.4142  1.3531  0.3145
   24CHL1   C15 1720   4.024   0.659   9.302 -0.3688  0.2327 -0.3425
   24CHL1  H15A 1721   3.916   0.638   9.319 -0.4010 -0.5339 -1.4182
   24CHL1  H15B 1722   4.060   0.756   9.343 -0.1443 -0.1306  0.3378
   24CHL1   C16 1723   4.047   0.622   9.159 -0.3428  0.1419  0.3595
   24CHL1  H16A 1724   3.951   0.590   9.114  0.0387 -0.1553 -0.2646
   24CHL1  H16B 1725   4.079   0.714   9.105  0.1374 -0.8345 -1.0632
   24CHL1   C17 1726   4.161   0.516   9.158  0.1302  0.2301 -0.6825
   24CHL1   H17 1727   4.264   0.557   9.152 -0.1895  1.5256  2.0171
   24CHL1   C13 1728   4.144   0.444   9.299 -0.2021 -0.3848  0.1980
   24CHL1   C18 1729   4.012   0.361   9.292 -0.0054  0.6679 -0.2125
   24CHL1  H18A 1730   4.029   0.265   9.238 -0.3896  0.5035 -0.0406
   24CHL1  H18B 1731   3.971   0.336   9.392 -1.0481 -0.5983 -0.9428
   24CHL1  H18C 1732   3.936   0.413   9.230  0.3757  1.6521  0.1421
   24CHL1   C12 1733   4.263   0.369   9.358  0.2487 -0.1922 -0.7961
   24CHL1  H12A 1734   4.270   0.270   9.309 -0.3243 -1.3447  1.4261
   24CHL1  H12B 1735   4.357   0.428   9.347  0.2276  0.3584  1.6634
   24CHL1   C11 1736   4.242   0.341   9.519  0.2924 -0.5124  0.3270
   24CHL1  H11A 1737   4.159   0.267   9.516 -0.0919 -0.1043  0.7035
   24CHL1  H11B 1738   4.326   0.280   9.559 -0.4066 -1.4708  0.3493
   24CHL1    C9 1739   4.203   0.468   9.599 -0.0465  0.2419 -0.3902
   24CHL1    H9 1740   4.283   0.544   9.588 -0.0249  0.6402  2.1764
   24CHL1   C10 1741   4.188   0.451   9.753  0.3418 -0.4407  0.4153
   24CHL1   C19 1742   4.090   0.336   9.778  0.2342 -0.0911  0.0045
   24CHL1  H19A 1743   4.002   0.349   9.712 -1.0639  1.7952  2.0403
   24CHL1  H19B 1744   4.138   0.239   9.753  0.4585  0.0813 -0.2240
   24CHL1  H19C 1745   4.058   0.324   9.884 -0.1349  0.9014  0.0044
   24CHL1    C1 1746   4.321   0.432   9.812 -0.4617 -0.1098 -0.3921
   24CHL1   H1A 1747   4.370   0.341   9.770 -1.0461 -1.9873  2.8075
   24CHL1   H1B 1748   4.393   0.514   9.791  1.2465 -1.7165 -0.9039
   24CHL1    C2 1749   4.318   0.415   9.960  0.1316  0.2473  0.4036
   24CHL1   H2A 1750   4.416   0.399  10.011  0.8193 -0.9457 -1.2705
   24CHL1   H2B 1751   4.264   0.318   9.965  1.3754 -0.5553 -1.5389
   24CHL1   C20 1752   4.152   0.427   9.028 -0.5876 -0.2558  0.1645
   24CHL1   H20 1753   4.043   0.407   9.038 -0.5674 -0.0872  0.7539
   24CHL1   C21 1754   4.231   0.295   9.030 -0.6194 -0.2466  0.6897
   24CHL1  H21A 1755   4.224   0.238   9.125 -0.5655  1.9647  2.0833
   24CHL1  H21B 1756   4.340   0.311   9.015 -0.5232 -1.3713  0.2006
   24CHL1  H21C 1757   4.188   0.229   8.952 -1.7224  0.5954  0.5567
   24CHL1   C22 1758   4.190   0.500   8.903  0.6985 -0.0571  0.2366
   24CHL1  H22A 1759   4.190   0.611   8.909  0.9291  0.0358 -1.2555
   24CHL1  H22B 1760   4.292   0.472   8.871  0.3422 -0.2891 -0.7088
   24CHL1   C23 1761   4.079   0.475   8.796 -0.2101  0.4573 -0.0082
   24CHL1  H23A 1762   4.014   0.389   8.823 -0.1568  0.7896  1.1822
   24CHL1  H23B 1763   4.012   0.563   8.791 -0.5016  0.2600  0.4343
   24CHL1   C24 1764   4.147   0.467   8.660  0.8082  0.2902 -0.0323
   24CHL1  H24A 1765   4.215   0.554   8.645  0.8714  0.1155 -0.7635
   24CHL1  H24B 1766   4.216   0.381   8.650  1.4101  0.8632 -0.8962
   24CHL1   C25 1767   4.049   0.468   8.542 -0.0064  0.0464  0.1089
   24CHL1   H25 1768   4.102   0.416   8.459 -0.4423  0.2262 -0.2887
   24CHL1   C26 1769   3.907   0.399   8.560  0.0299 -0.0575 -0.7529
   24CHL1  H26A 1770   3.833   0.465   8.609 -1.1158 -3.3918  2.2366
   24CHL1  H26B 1771   3.872   0.369   8.459  0.3859 -0.3373 -0.7937
   24CHL1  H26C 1772   3.919   0.301   8.611  4.5275 -0.3780 -2.2442
   24CHL1   C27 1773   4.027   0.618   8.510  0.0795  0.2469  0.3368
   24CHL1  H27A 1774   3.955   0.674   8.574 -1.4693 -2.7286  1.2843
   24CHL1  H27B 1775   4.115   0.686   8.509 -0.1309  0.5686 -2.5179
   24CHL1  H27C 1776   3.979   0.624   8.410  0.3376  3.7737  0.3535
   25CHL1    C3 1777   6.008   2.175  10.440 -0.6194 -0.0555  0.1278
   25CHL1    H3 1778   5.907   2.139  10.411 -1.1512  0.4797  1.2542
   25CHL1    O3 1779   6.004   2.193  10.581 -0.6492  0.4015 -0.5540
   25CHL1   H3' 1780   6.093   2.223  10.601 -0.1038 -0.1544 -2.0247
   25CHL1    C4 1781   6.115   2.068  10.400  0.2568  0.6388  0.3049
   25CHL1   H4A 1782   6.221   2.094  10.422 -0.1239  2.3886  0.1242
   25CHL1   H4B 1783   6.102   1.970  10.451  0.7276  0.3933 -0.0477
   25CHL1    C5 1784   6.118   2.045  10.253 -0.4200  0.5455 -0.2337
   25CHL1    C6 1785   6.101   1.919  10.205  0.1317 -0.0055 -0.1661
   25CHL1    H6 1786   6.092   1.837  10.277  3.5369  0.4953  0.9369
   25CHL1    C7 1787   6.114   1.871  10.056 -0.5863 -0.6333 -0.0788
   25CHL1   H7A 1788   6.181   1.784  10.041 -0.3002 -0.7329  1.6874
   25CHL1   H7B 1789   6.012   1.848  10.020 -0.3326  0.6816 -1.7085
   25CHL1    C8 1790   6.156   1.994   9.964 -0.1280  0.2293 -1.0187
   25CHL1    H8 1791   6.266   2.009   9.967 -0.0630 -0.3783 -0.3404
   25CHL1   C14 1792   6.101   1.959   9.823  0.1067 -0.3178 -0.2795
   25CHL1   H14 1793   5.990   1.965   9.829  0.1798 -1.1121  2.2944
   25CHL1   C15 1794   6.138   1.822   9.763  0.6093  0.1590  0.7395
   25CHL1  H15A 1795   6.246   1.802   9.779  0.3186 -2.3232 -0.0788
   25CHL1  H15B 1796   6.080   1.740   9.811 -1.2788  1.0209 -0.0071
   25CHL1   C16 1797   6.120   1.844   9.611  0.4883 -0.9381  0.5843
   25CHL1  H16A 1798   6.215   1.818   9.560 -0.2810 -1.3137 -0.6726
   25CHL1  H16B 1799   6.044   1.786   9.555  1.0220 -0.3081 -0.8206
   25CHL1   C17 1800   6.086   1.999   9.590 -0.5499  0.1572 -0.1829
   25CHL1   H17 1801   5.975   2.005   9.588 -0.4646  2.5576  0.0705
   25CHL1   C13 1802   6.138   2.066   9.723  0.4916  0.3369 -0.3697
   25CHL1   C18 1803   6.291   2.083   9.728 -0.6540 -0.2091  0.3669
   25CHL1  H18A 1804   6.354   2.096   9.818  1.9606 -3.0572 -0.9498
   25CHL1  H18B 1805   6.340   2.000   9.672  2.4834 -0.0200  2.6884
   25CHL1  H18C 1806   6.310   2.171   9.663 -0.5970 -0.5967 -0.1461
   25CHL1   C12 1807   6.082   2.206   9.760 -0.3083  0.4286 -0.7493
   25CHL1  H12A 1808   6.110   2.294   9.697 -2.5218  0.9391 -1.0466
   25CHL1  H12B 1809   5.972   2.198   9.762 -0.3362  0.1928 -2.6033
   25CHL1   C11 1810   6.124   2.240   9.906  0.4842  1.0093 -0.2727
   25CHL1  H11A 1811   6.233   2.260   9.916  0.5545  1.0183 -1.0295
   25CHL1  H11B 1812   6.066   2.326   9.945 -0.2269  0.6770 -0.5846
   25CHL1    C9 1813   6.093   2.129  10.006  0.2094  0.0225  0.4008
   25CHL1    H9 1814   5.984   2.110  10.006  0.5667 -2.5066 -2.8034
   25CHL1   C10 1815   6.130   2.169  10.161  1.0615  0.4544 -1.2305
   25CHL1   C19 1816   6.276   2.210  10.168  0.1527  0.3736 -0.9772
   25CHL1  H19A 1817   6.298   2.295  10.100 -0.0172  0.9474 -0.3103
   25CHL1  H19B 1818   6.315   2.239  10.268 -3.3549 -4.1196  1.8781
   25CHL1  H19C 1819   6.345   2.128  10.136 -1.5794 -2.7106  2.7748
   25CHL1    C1 1820   6.040   2.284  10.210  0.2863 -0.4655 -0.1755
   25CHL1   H1A 1821   6.075   2.379  10.165 -0.7242 -0.1677 -0.3305
   25CHL1   H1B 1822   5.936   2.272  10.174  0.6473 -0.9070 -1.0920
   25CHL1    C2 1823   6.025   2.307  10.366 -0.2638  0.1185  0.8156
   25CHL1   H2A 1824   5.938   2.372  10.389 -0.2175  0.3813  0.2595
   25CHL1   H2B 1825   6.117   2.360  10.398 -0.1279  0.8132 -0.6663
   25CHL1   C20 1826   6.155   2.046   9.455 -0.3049  0.5107  0.2200
   25CHL1   H20 1827   6.263   2.020   9.465 -0.1300  0.1689 -2.0638
   25CHL1   C21 1828   6.127   2.196   9.438 -0.0474 -0.6526 -0.1687
   25CHL1  H21A 1829   6.017   2.203   9.449  0.0070 -2.1212  1.5600
   25CHL1  H21B 1830   6.159   2.229   9.337  0.8123 -3.3714 -0.8263
   25CHL1  H21C 1831   6.166   2.268   9.513 -0.6347 -0.7700  0.2569
   25CHL1   C22 1832   6.109   1.972   9.325  0.1371 -0.0540  0.1073
   25CHL1  H22A 1833   6.074   1.871   9.355  0.5694 -0.1632  0.2562
   25CHL1  H22B 1834   6.022   2.032   9.291  0.5277  0.9919  0.8769
   25CHL1   C23 1835   6.217   1.948   9.215 -0.4286  0.0401 -0.5246
   25CHL1  H23A 1836   6.273   2.038   9.180 -1.3360  0.5319 -0.7442
   25CHL1  H23B 1837   6.290   1.869   9.243 -2.8246 -1.9877  0.1685
   25CHL1   C24 1838   6.159   1.884   9.087  0.0720  0.5549  0.0618
   25CHL1  H24A 1839   6.112   1.788   9.115  0.2034  0.8851  1.4671
   25CHL1  H24B 1840   6.085   1.956   9.045 -1.2214 -0.8867 -0.1691
   25CHL1   C25 1841   6.266   1.854   8.975 -0.8467 -0.3907 -0.2537
   25CHL1   H25 1842   6.305   1.953   8.943 -0.9478 -0.6543 -1.2210
   25CHL1   C26 1843   6.382   1.761   9.028 -0.1735 -0.4619  0.6582
   25CHL1  H26A 1844   6.458   1.735   8.951 -0.9568  0.4233 -0.4283
   25CHL1  H26B 1845   6.434   1.818   9.107 -0.7136 -0.1486  0.7880
   25CHL1  H26C 1846   6.343   1.665   9.067  2.9584 -2.0239  0.0655
   25CHL1   C27 1847   6.189   1.789   8.866  0.2279 -0.2160 -0.2567
   25CHL1  H27A 1848   6.158   1.685   8.891 -1.4159  0.6493  1.4450
   25CHL1  H27B 1849   6.096   1.843   8.837  0.1949 -0.9578 -1.5502
   25CHL1  H27C 1850   6.264   1.803   8.785  1.2505 -0.0266  0.7031
   26CHL1    C3 1851   0.135   4.905  10.084  0.1425  0.1041  0.3125
   26CHL1    H3 1852   0.031   4.933  10.058 -1.3057 -2.0044  3.5107
   26CHL1    O3 1853   0.143   4.900  10.226 -0.5373 -1.0411 -0.1292
   26CHL1   H3' 1854   0.065   4.951  10.248  2.2044  1.9891  3.1281
   26CHL1    C4 1855   0.174   4.770  10.035 -0.1184  0.5182 -0.1944
   26CHL1   H4A 1856   0.279   4.750  10.066 -0.3963  1.1345  1.2303
   26CHL1   H4B 1857   0.106   4.700  10.088  1.8173 -0.6756  0.7730
   26CHL1    C5 1858   0.180   4.759   9.892  0.5762  0.0725  0.2023
   26CHL1    C6 1859   0.108   4.663   9.833  0.2159 -0.0965 -0.6277
   26CHL1    H6 1860   0.054   4.593   9.899 -0.5130  1.0341  0.0093
   26CHL1    C7 1861   0.100   4.640   9.687  0.5817 -0.2693  0.5174
   26CHL1   H7A 1862   0.115   4.532   9.666  2.3277 -0.0619  0.6705
   26CHL1   H7B 1863  -0.002   4.656   9.645  1.6272  0.1634 -1.9483
   26CHL1    C8 1864   0.207   4.715   9.610 -0.4882 -0.4621  0.0025
   26CHL1    H8 1865   0.297   4.652   9.626  1.2918  1.4289 -2.1491
   26CHL1   C14 1866   0.181   4.720   9.457 -0.8553  0.6130 -0.2500
   26CHL1   H14 1867   0.097   4.793   9.459 -2.9980 -1.7852  3.6341
   26CHL1   C15 1868   0.120   4.605   9.391 -1.1500  0.3000  0.4000
   26CHL1  H15A 1869   0.167   4.508   9.416 -3.5763 -1.2382 -0.8258
   26CHL1  H15B 1870   0.011   4.592   9.406 -0.8599  0.1656  2.4693
   26CHL1   C16 1871   0.156   4.621   9.247  0.5784  0.7312  0.3614
   26CHL1  H16A 1872   0.216   4.535   9.209 -1.8298 -0.1738 -1.5850
   26CHL1  H16B 1873   0.069   4.612   9.178  0.0590  0.9365  0.9810
   26CHL1   C17 1874   0.224   4.763   9.238  0.8564  0.2122 -0.2085
   26CHL1   H17 1875   0.134   4.829   9.233  0.5088 -0.2192  0.3535
   26CHL1   C13 1876   0.289   4.780   9.374  0.1197  0.0884  0.8089
   26CHL1   C18 1877   0.415   4.691   9.364  0.2887  0.5086  0.2275
   26CHL1  H18A 1878   0.489   4.739   9.296  0.0286  0.6718  0.0593
   26CHL1  H18B 1879   0.463   4.670   9.462 -0.4982  0.9119  0.7006
   26CHL1  H18C 1880   0.401   4.591   9.319 -0.0918  1.1379 -1.0924
   26CHL1   C12 1881   0.317   4.925   9.419 -0.3340 -0.8098 -0.5037
   26CHL1  H12A 1882   0.393   4.977   9.357  2.0161 -1.8085  1.3992
   26CHL1  H12B 1883   0.224   4.982   9.404 -0.1156 -0.8422 -2.0302
   26CHL1   C11 1884   0.360   4.927   9.568 -0.2314 -0.2089  0.1232
   26CHL1  H11A 1885   0.453   4.869   9.586  0.5950  1.4114  1.2140
   26CHL1  H11B 1886   0.375   5.027   9.614 -0.9647 -1.0071  2.1588
   26CHL1    C9 1887   0.242   4.860   9.658  0.0662 -0.2429 -0.4827
   26CHL1    H9 1888   0.153   4.925   9.644  0.7607  0.4048 -1.9579
   26CHL1   C10 1889   0.265   4.867   9.814 -0.6337 -0.2898 -0.0204
   26CHL1   C19 1890   0.412   4.837   9.847 -0.0264 -0.5212 -0.1386
   26CHL1  H19A 1891   0.435   4.820   9.955  0.3594  1.0137  0.0351
   26CHL1  H19B 1892   0.438   4.740   9.800  1.2386  0.0897 -0.7437
   26CHL1  H19C 1893   0.480   4.912   9.800  0.4212  0.0783  1.4270
   26CHL1    C1 1894   0.232   5.010   9.869  0.2171 -0.1173 -0.0482
   26CHL1   H1A 1895   0.299   5.091   9.833 -1.0712  0.8128 -0.4194
   26CHL1   H1B 1896   0.128   5.031   9.836 -0.4694 -1.0808  1.4426
   26CHL1    C2 1897   0.234   5.007  10.029  0.0905  0.0806  0.2261
   26CHL1   H2A 1898   0.219   5.114  10.053 -2.0969 -0.2050  0.2800
   26CHL1   H2B 1899   0.331   4.977  10.073 -0.8876  0.5886  2.7672
   26CHL1   C20 1900   0.298   4.785   9.104  0.8165  0.0396  0.6445
   26CHL1   H20 1901   0.393   4.729   9.115  0.9798  0.3751  0.9297
   26CHL1   C21 1902   0.318   4.934   9.063 -0.2736 -0.1692 -0.1740
   26CHL1  H21A 1903   0.391   4.931   8.978 -0.4181 -0.5014 -0.2856
   26CHL1  H21B 1904   0.371   4.999   9.136  1.1508  0.2820 -1.5633
   26CHL1  H21C 1905   0.221   4.973   9.027 -1.3482 -0.6461  2.1824
   26CHL1   C22 1906   0.223   4.717   8.981  0.0066 -0.4780  0.1489
   26CHL1  H22A 1907   0.235   4.607   8.995 -1.1938 -0.3240  2.7070
   26CHL1  H22B 1908   0.114   4.739   8.986 -0.2365 -1.5896  0.0598
   26CHL1   C23 1909   0.280   4.739   8.838 -0.2638  1.0621  0.4730
   26CHL1  H23A 1910   0.254   4.845   8.817 -2.1754  0.6722  0.7938
   26CHL1  H23B 1911   0.390   4.739   8.852 -0.3818 -2.1907  1.8396
   26CHL1   C24 1912   0.239   4.650   8.720 -0.0992  0.0017  0.6892
   26CHL1  H24A 1913   0.130   4.658   8.702 -0.2882 -0.2433  1.6555
   26CHL1  H24B 1914   0.281   4.686   8.624  0.3384 -0.0081  0.8706
   26CHL1   C25 1915   0.273   4.500   8.730  0.5538  0.8582  0.5449
   26CHL1   H25 1916   0.206   4.449   8.802  0.3579 -0.3231 -0.4594
   26CHL1   C26 1917   0.228   4.440   8.596 -0.0207 -0.0140  0.2916
   26CHL1  H26A 1918   0.300   4.466   8.515  0.6959 -0.5097  0.7591
   26CHL1  H26B 1919   0.229   4.329   8.597 -0.4827 -0.0233 -0.1357
   26CHL1  H26C 1920   0.131   4.479   8.560  0.9004 -0.3928 -2.8106
   26CHL1   C27 1921   0.429   4.462   8.745  0.4764  0.0476  0.2994
   26CHL1  H27A 1922   0.495   4.513   8.672 -2.2059  0.3181 -2.0533
   26CHL1  H27B 1923   0.451   4.486   8.851  0.6165  1.8765 -0.1240
   26CHL1  H27C 1924   0.436   4.351   8.739 -0.4298  0.0353 -0.5894
   27CHL1    C3 1925   6.609   1.777  10.279  0.5589 -0.1031  0.3476
   27CHL1    H3 1926   6.713   1.815  10.282  0.2370  0.7752  0.7036
   27CHL1    O3 1927   6.565   1.784  10.414  0.1411  0.4833  0.0814
   27CHL1   H3' 1928   6.503   1.714  10.433  2.8201 -2.3611 -1.2237
   27CHL1    C4 1929   6.516   1.868  10.187 -0.1760 -0.1103  0.7680
   27CHL1   H4A 1930   6.413   1.831  10.205  0.1033 -2.3984 -1.9999
   27CHL1   H4B 1931   6.536   1.971  10.225  0.9657  0.4927 -1.3756
   27CHL1    C5 1932   6.545   1.846  10.041  0.4064 -0.2757  0.6409
   27CHL1    C6 1933   6.576   1.962   9.974 -0.7722  0.8153  0.3411
   27CHL1    H6 1934   6.576   2.061  10.021 -0.3602  0.7971  0.3844
   27CHL1    C7 1935   6.623   1.961   9.834  0.3400  0.0285 -0.7229
   27CHL1   H7A 1936   6.595   2.056   9.783  0.5215  0.6597  0.3442
   27CHL1   H7B 1937   6.734   1.975   9.834  0.3821 -0.3168 -0.9463
   27CHL1    C8 1938   6.587   1.838   9.762 -0.2347 -0.2353  0.3895
   27CHL1    H8 1939   6.478   1.842   9.739  0.1312  2.1756 -1.1650
   27CHL1   C14 1940   6.656   1.835   9.623 -0.5107  0.7422  0.3802
   27CHL1   H14 1941   6.765   1.846   9.643 -0.4014  0.7687 -0.2323
   27CHL1   C15 1942   6.631   1.955   9.524  0.4340  0.0950  0.2136
   27CHL1  H15A 1943   6.520   1.950   9.529  0.4065  1.0672  0.6964
   27CHL1  H15B 1944   6.665   2.051   9.567 -0.0083  1.2371 -1.9153
   27CHL1   C16 1945   6.698   1.905   9.397  0.4010  0.6082 -0.5600
   27CHL1  H16A 1946   6.626   1.916   9.314  2.3361  1.3529 -2.1701
   27CHL1  H16B 1947   6.790   1.957   9.364  0.4172 -0.4935 -2.2682
   27CHL1   C17 1948   6.728   1.750   9.414  0.2267 -0.2489  0.2968
   27CHL1   H17 1949   6.827   1.741   9.464 -0.9210  1.2350  2.9478
   27CHL1   C13 1950   6.641   1.703   9.538  0.0495 -0.7480  0.2362
   27CHL1   C18 1951   6.484   1.685   9.507  0.0175 -0.2196  0.1871
   27CHL1  H18A 1952   6.407   1.698   9.586 -0.2020 -1.2514  0.1539
   27CHL1  H18B 1953   6.461   1.748   9.418 -1.0936 -1.5735 -0.4925
   27CHL1  H18C 1954   6.465   1.578   9.484  1.7538 -1.0120  2.2916
   27CHL1   C12 1955   6.699   1.592   9.634 -0.1021 -0.2006 -0.2906
   27CHL1  H12A 1956   6.703   1.489   9.591 -0.3584  0.4383 -1.8486
   27CHL1  H12B 1957   6.806   1.609   9.660 -0.3644 -0.6285  1.1231
   27CHL1   C11 1958   6.618   1.587   9.764 -0.5035  0.3981 -0.2189
   27CHL1  H11A 1959   6.515   1.569   9.725  0.2396 -1.7153 -1.2801
   27CHL1  H11B 1960   6.649   1.496   9.819  0.5203  1.5180  1.0945
   27CHL1    C9 1961   6.627   1.714   9.843 -0.4940 -0.6748 -0.4394
   27CHL1    H9 1962   6.735   1.725   9.863 -0.6314 -1.3199  0.7035
   27CHL1   C10 1963   6.559   1.703   9.982 -0.2566  0.9258  0.3300
   27CHL1   C19 1964   6.421   1.640   9.969  0.2427 -0.5981 -0.2698
   27CHL1  H19A 1965   6.366   1.641  10.065 -0.7310  1.1677 -0.8070
   27CHL1  H19B 1966   6.366   1.695   9.889 -0.0740 -3.1109 -1.8325
   27CHL1  H19C 1967   6.431   1.537   9.929  1.3441 -0.5848 -0.0262
   27CHL1    C1 1968   6.641   1.617  10.083  0.3247 -0.9085 -0.1636
   27CHL1   H1A 1969   6.619   1.514  10.047  1.4792 -1.6331  1.1490
   27CHL1   H1B 1970   6.749   1.641  10.072 -0.5126  1.9769 -3.0244
   27CHL1    C2 1971   6.602   1.631  10.233 -0.1926  0.6808 -0.0107
   27CHL1   H2A 1972   6.668   1.571  10.299 -2.4398 -0.7824  0.9429
   27CHL1   H2B 1973   6.501   1.589  10.250  0.5762 -1.1766  0.0821
   27CHL1   C20 1974   6.725   1.663   9.289 -0.0610  0.4441  0.5231
   27CHL1   H20 1975   6.624   1.672   9.244  0.8880  1.4981 -1.4545
   27CHL1   C21 1976   6.735   1.502   9.320 -0.0226 -0.7693  0.3312
   27CHL1  H21A 1977   6.841   1.480   9.341 -0.0405 -1.8708 -0.6453
   27CHL1  H21B 1978   6.711   1.445   9.228 -0.4567  2.3803 -1.6018
   27CHL1  H21C 1979   6.666   1.472   9.402  0.4780  0.1959  1.1110
   27CHL1   C22 1980   6.828   1.712   9.184  0.2006 -0.1732  0.1615
   27CHL1  H22A 1981   6.814   1.822   9.172  0.9260  0.0478  1.2853
   27CHL1  H22B 1982   6.934   1.698   9.213 -0.3441  0.0116  2.3410
   27CHL1   C23 1983   6.815   1.637   9.053 -0.3131  0.2974  0.2108
   27CHL1  H23A 1984   6.856   1.534   9.057  1.5345  1.0271  0.5183
   27CHL1  H23B 1985   6.706   1.625   9.038 -0.3251 -0.4179  0.8223
   27CHL1   C24 1986   6.876   1.733   8.948 -0.1371  0.0878 -0.4558
   27CHL1  H24A 1987   6.827   1.832   8.959  0.0278  0.2073 -0.7854
   27CHL1  H24B 1988   6.985   1.732   8.972 -0.7102  1.6223  2.5039
   27CHL1   C25 1989   6.866   1.678   8.805  0.2310  0.2807  0.0001
   27CHL1   H25 1990   6.886   1.569   8.806  0.9568  0.4045  3.1954
   27CHL1   C26 1991   6.712   1.702   8.761 -0.1548  1.1085 -0.9052
   27CHL1  H26A 1992   6.697   1.652   8.663  1.3466 -2.2839  0.5273
   27CHL1  H26B 1993   6.648   1.649   8.835  1.8752  1.1903  0.9529
   27CHL1  H26C 1994   6.684   1.810   8.761  0.6314  1.3973  3.2637
   27CHL1   C27 1995   6.954   1.756   8.713  0.6403 -0.0224 -0.4084
   27CHL1  H27A 1996   7.063   1.752   8.737  0.6971  1.7820 -0.3319
   27CHL1  H27B 1997   6.942   1.704   8.616 -0.1374 -2.3084  0.8733
   27CHL1  H27C 1998   6.928   1.864   8.715  0.4644 -0.0757  0.1657
   28CHL1    C3 1999   5.722   6.760   9.952 -0.5544 -0.4096 -0.0354
   28CHL1    H3 2000   5.638   6.833   9.954  2.0428  2.6272  0.5096
   28CHL1    O3 2001   5.731   6.684  10.068  0.1123 -0.0768 -0.1102
   28CHL1   H3' 2002   5.784   6.611  10.037 -0.2265 -0.1429 -0.5455
   28CHL1    C4 2003   5.721   6.664   9.838  1.1334  0.2368 -0.4288
   28CHL1   H4A 2004   5.789   6.578   9.849 -0.1924 -0.8715 -0.6928
   28CHL1   H4B 2005   5.622   6.613   9.840  0.6094  1.2508  0.0520
   28CHL1    C5 2006   5.741   6.722   9.698 -0.4916  0.5305  0.0090
   28CHL1    C6 2007   5.656   6.706   9.599  0.5314 -0.7788  0.5458
   28CHL1    H6 2008   5.561   6.651   9.608 -0.7097  0.8751 -1.9026
   28CHL1    C7 2009   5.677   6.767   9.464 -0.3571 -0.1721  0.5074
   28CHL1   H7A 2010   5.649   6.698   9.381 -0.1217  0.2300  0.0943
   28CHL1   H7B 2011   5.609   6.853   9.446  0.9736  1.0004  0.9957
   28CHL1    C8 2012   5.825   6.809   9.434 -0.5665 -0.5701 -0.1537
   28CHL1    H8 2013   5.887   6.717   9.429  0.7533  0.3275 -0.6172
   28CHL1   C14 2014   5.848   6.882   9.306 -0.1563 -0.9520 -0.1815
   28CHL1   H14 2015   5.795   6.979   9.319  2.2303  0.4858 -0.8636
   28CHL1   C15 2016   5.798   6.822   9.173  0.2404 -0.2162  0.3830
   28CHL1  H15A 2017   5.831   6.716   9.169 -0.6775 -0.4559 -0.9444
   28CHL1  H15B 2018   5.687   6.824   9.168  0.2708  0.2243 -0.1906
   28CHL1   C16 2019   5.874   6.893   9.059  0.7261  0.5649 -0.0355
   28CHL1  H16A 2020   5.927   6.819   8.995 -0.7448 -0.6822  0.1431
   28CHL1  H16B 2021   5.800   6.951   9.000 -1.3109 -0.1737  1.7132
   28CHL1   C17 2022   5.976   6.988   9.130 -0.1158  0.0406  0.3711
   28CHL1   H17 2023   5.920   7.082   9.153 -1.1931 -0.4567 -0.1837
   28CHL1   C13 2024   5.997   6.928   9.274  0.3206 -0.2453 -0.0759
   28CHL1   C18 2025   6.081   6.802   9.264  0.2543 -0.0077  0.5307
   28CHL1  H18A 2026   6.082   6.750   9.362  0.1042 -0.5802  0.2298
   28CHL1  H18B 2027   6.048   6.740   9.177 -2.1336  1.0046  0.6662
   28CHL1  H18C 2028   6.187   6.823   9.237 -0.2619 -0.1013 -1.6624
   28CHL1   C12 2029   6.035   7.027   9.385 -0.5754 -0.0584 -0.6028
   28CHL1  H12A 2030   6.141   7.058   9.370 -0.2692 -0.2287  1.0454
   28CHL1  H12B 2031   5.970   7.117   9.392 -0.1931  0.2890 -1.5010
   28CHL1   C11 2032   6.022   6.953   9.523 -0.0712 -0.0489  0.2569
   28CHL1  H11A 2033   6.105   6.882   9.544 -0.5555 -0.2800  1.4217
   28CHL1  H11B 2034   6.027   7.027   9.606 -0.2702  0.3038 -0.0454
   28CHL1    C9 2035   5.883   6.888   9.546  0.1202  0.2013  0.2669
   28CHL1    H9 2036   5.815   6.973   9.566  0.3254  0.4617 -0.1125
   28CHL1   C10 2037   5.874   6.805   9.682 -0.0696  0.1928  1.1732
   28CHL1   C19 2038   5.996   6.716   9.698 -0.1293 -0.8811  0.2350
   28CHL1  H19A 2039   6.083   6.783   9.716  0.3550 -2.1108  2.7735
   28CHL1  H19B 2040   5.999   6.653   9.791 -1.5265  1.6226  2.0337
   28CHL1  H19C 2041   6.015   6.664   9.602 -0.0478 -2.1237  0.8997
   28CHL1    C1 2042   5.862   6.907   9.801 -0.5819 -0.5812  0.4756
   28CHL1   H1A 2043   5.955   6.968   9.807 -1.0748  0.4071 -1.4016
   28CHL1   H1B 2044   5.770   6.966   9.786  0.5360  1.9063  3.0036
   28CHL1    C2 2045   5.846   6.846   9.939 -0.1071 -0.2901 -0.2599
   28CHL1   H2A 2046   5.839   6.926  10.015  0.9581 -0.1183 -0.3353
   28CHL1   H2B 2047   5.941   6.790   9.957  0.2605  0.5659  0.4936
   28CHL1   C20 2048   6.088   7.028   9.033  0.0552  0.3594 -0.4214
   28CHL1   H20 2049   6.144   6.940   8.994  1.7551  0.7242  1.1154
   28CHL1   C21 2050   6.193   7.105   9.114 -0.6175  0.4218 -0.9304
   28CHL1  H21A 2051   6.141   7.184   9.171 -2.1427 -1.9096  1.0211
   28CHL1  H21B 2052   6.282   7.139   9.058  1.1139 -1.9281  0.2952
   28CHL1  H21C 2053   6.230   7.029   9.185 -2.3620  0.1140 -0.3168
   28CHL1   C22 2054   6.035   7.109   8.913 -0.2775 -0.4155 -0.1934
   28CHL1  H22A 2055   5.943   7.061   8.876 -0.6745  0.4823 -0.3884
   28CHL1  H22B 2056   6.015   7.216   8.936  2.4045 -0.0466  0.6413
   28CHL1   C23 2057   6.139   7.123   8.799  0.1811 -0.1593 -0.1944
   28CHL1  H23A 2058   6.231   7.166   8.844  2.0951 -2.1650 -2.0709
   28CHL1  H23B 2059   6.158   7.019   8.764  1.6329 -0.4337  1.3472
   28CHL1   C24 2060   6.081   7.201   8.686 -0.0243  0.0285  0.0801
   28CHL1  H24A 2061   5.972   7.178   8.676 -0.1734 -0.6362  2.7817
   28CHL1  H24B 2062   6.078   7.307   8.718 -0.9800 -0.1366  0.5880
   28CHL1   C25 2063   6.150   7.192   8.546 -0.6772  0.1247  0.4271
   28CHL1   H25 2064   6.260   7.198   8.562  0.2025 -3.2395 -3.5097
   28CHL1   C26 2065   6.115   7.063   8.475  0.2079 -0.2808  0.1389
   28CHL1  H26A 2066   6.015   7.029   8.510 -0.0967  0.1789 -0.2769
   28CHL1  H26B 2067   6.111   7.069   8.364 -0.9715  0.8789  0.2374
   28CHL1  H26C 2068   6.182   6.986   8.518  0.3443  0.4588  1.2748
   28CHL1   C27 2069   6.110   7.306   8.450  0.3085 -0.1288 -0.2281
   28CHL1  H27A 2070   6.144   7.404   8.491 -0.1071 -1.6759  4.0397
   28CHL1  H27B 2071   6.160   7.295   8.352  1.3070 -2.5482  0.5078
   28CHL1  H27C 2072   6.000   7.299   8.437  0.2847  0.9008 -0.6588
   29CHL1    C3 2073   0.232   4.723   6.636  0.0804 -0.1302  0.9013
   29CHL1    H3 2074   0.339   4.696   6.627  0.1771  0.0090  1.6449
   29CHL1    O3 2075   0.171   4.674   6.513  0.7930 -0.6319  0.0660
   29CHL1   H3' 2076   0.161   4.580   6.531 -1.7913 -0.3994  0.0306
   29CHL1    C4 2077   0.168   4.656   6.757  0.2106  0.3685 -0.4736
   29CHL1   H4A 2078   0.058   4.654   6.736  0.3763  0.9090 -1.4356
   29CHL1   H4B 2079   0.197   4.549   6.751  0.6281  0.3790  1.1426
   29CHL1    C5 2080   0.211   4.718   6.886 -0.2741 -0.3157  0.9727
   29CHL1    C6 2081   0.266   4.642   6.983 -0.1316 -0.3742  0.2008
   29CHL1    H6 2082   0.290   4.536   6.965  1.7633  0.0207  0.3254
   29CHL1    C7 2083   0.306   4.695   7.116  0.4315  0.1315  0.1739
   29CHL1   H7A 2084   0.286   4.623   7.199  0.9243  0.6224  0.7208
   29CHL1   H7B 2085   0.414   4.707   7.140  0.0188 -1.1461  2.9149
   29CHL1    C8 2086   0.249   4.833   7.152 -0.2154 -0.0635  0.4975
   29CHL1    H8 2087   0.142   4.811   7.174 -0.1090  0.3718  1.4962
   29CHL1   C14 2088   0.304   4.902   7.285  0.2194 -0.1012 -0.3234
   29CHL1   H14 2089   0.404   4.941   7.257  0.2428 -1.1794 -1.7589
   29CHL1   C15 2090   0.304   4.813   7.412  0.0870 -0.2323  0.3364
   29CHL1  H15A 2091   0.217   4.745   7.399  1.1629 -1.4661 -0.4939
   29CHL1  H15B 2092   0.400   4.760   7.429 -0.0374  0.3567  3.1953
   29CHL1   C16 2093   0.283   4.921   7.527  0.4355  0.1730 -0.2643
   29CHL1  H16A 2094   0.182   4.896   7.566  0.1284  1.5803 -0.1420
   29CHL1  H16B 2095   0.364   4.913   7.603 -0.8349 -1.2622  0.9775
   29CHL1   C17 2096   0.295   5.065   7.455 -0.3489 -0.1368 -0.3656
   29CHL1   H17 2097   0.404   5.079   7.439 -0.5459  1.1441 -0.6219
   29CHL1   C13 2098   0.232   5.033   7.319 -0.7176 -0.6172 -0.4477
   29CHL1   C18 2099   0.078   5.015   7.340 -0.3116 -0.3431  0.5621
   29CHL1  H18A 2100   0.048   4.924   7.397 -1.0092 -1.1124 -0.9724
   29CHL1  H18B 2101   0.041   5.115   7.371 -0.2908  0.6217 -2.3384
   29CHL1  H18C 2102   0.027   4.988   7.245 -1.3750 -1.9934  1.5628
   29CHL1   C12 2103   0.260   5.133   7.204  0.2558 -0.0032 -0.2707
   29CHL1  H12A 2104   0.212   5.232   7.222  1.1559  0.3823  0.0343
   29CHL1  H12B 2105   0.366   5.163   7.189  0.3697 -0.5156 -0.5072
   29CHL1   C11 2106   0.225   5.076   7.065  0.1919 -0.1477  0.0136
   29CHL1  H11A 2107   0.115   5.094   7.068  0.2661  0.1795  0.9658
   29CHL1  H11B 2108   0.266   5.134   6.980 -0.1948 -1.4749 -1.0909
   29CHL1    C9 2109   0.261   4.927   7.034 -0.4318  0.2329  0.6462
   29CHL1    H9 2110   0.369   4.930   7.010 -0.7167  1.1982 -0.5388
   29CHL1   C10 2111   0.196   4.871   6.905 -0.0126  0.2939 -0.1315
   29CHL1   C19 2112   0.038   4.890   6.917  0.4678  0.0112  0.4224
   29CHL1  H19A 2113   0.007   4.994   6.895  1.0131 -0.1581 -1.1865
   29CHL1  H19B 2114  -0.026   4.827   6.851  0.0798  0.1664  0.6528
   29CHL1  H19C 2115   0.003   4.868   7.020  1.2880  0.0809  0.7205
   29CHL1    C1 2116   0.251   4.938   6.780  0.1995 -0.2626  0.0898
   29CHL1   H1A 2117   0.221   5.045   6.775  0.5510 -0.1387  0.5978
   29CHL1   H1B 2118   0.362   4.930   6.782  0.2278 -0.7417 -2.1923
   29CHL1    C2 2119   0.207   4.874   6.643 -0.3018 -0.7687  0.3137
   29CHL1   H2A 2120   0.265   4.921   6.561  0.9682 -1.1347  0.9790
   29CHL1   H2B 2121   0.098   4.892   6.632 -0.2150 -1.2145 -1.3364
   29CHL1   C20 2122   0.244   5.181   7.547 -0.4151 -0.1401 -0.0167
   29CHL1   H20 2123   0.134   5.192   7.547 -0.1026  3.3487  1.8218
   29CHL1   C21 2124   0.298   5.310   7.484 -0.6078  0.0623 -0.5360
   29CHL1  H21A 2125   0.409   5.316   7.490 -0.6543 -0.1063  0.7283
   29CHL1  H21B 2126   0.272   5.400   7.545  1.7039  0.8401 -0.6687
   29CHL1  H21C 2127   0.260   5.330   7.382 -0.1751  0.1321 -0.6838
   29CHL1   C22 2128   0.278   5.168   7.691 -0.5297  0.5797  0.0977
   29CHL1  H22A 2129   0.248   5.066   7.723 -0.0689  0.2818 -0.4189
   29CHL1  H22B 2130   0.381   5.207   7.707  0.4436 -2.1989  0.9763
   29CHL1   C23 2131   0.185   5.252   7.779 -0.4475  0.0786 -0.0363
   29CHL1  H23A 2132   0.198   5.362   7.770 -0.3917  0.2242  1.6782
   29CHL1  H23B 2133   0.083   5.245   7.735 -0.4194 -0.1438 -0.0647
   29CHL1   C24 2134   0.179   5.218   7.932  0.3628  0.2311  0.2476
   29CHL1  H24A 2135   0.090   5.266   7.977  0.4708 -0.6219  1.3950
   29CHL1  H24B 2136   0.163   5.108   7.936  3.2763 -0.2206  0.7793
   29CHL1   C25 2137   0.313   5.245   8.005 -0.4578  0.3475  0.3772
   29CHL1   H25 2138   0.396   5.194   7.952 -0.4213 -2.7736  3.3109
   29CHL1   C26 2139   0.340   5.395   8.014 -0.0757 -0.5204 -0.6816
   29CHL1  H26A 2140   0.277   5.442   8.093 -0.1437 -0.2572 -0.8965
   29CHL1  H26B 2141   0.448   5.409   8.036  0.3187 -0.6764 -2.4824
   29CHL1  H26C 2142   0.324   5.460   7.926  0.7193 -0.3695 -0.7190
   29CHL1   C27 2143   0.307   5.184   8.142 -0.3968  0.3694 -0.2930
   29CHL1  H27A 2144   0.413   5.196   8.175 -0.9257  0.5172  1.3846
   29CHL1  H27B 2145   0.247   5.244   8.214  0.6875 -0.7441  1.5875
   29CHL1  H27C 2146   0.280   5.077   8.152 -0.8963  0.5222  0.0094
   30CHL1    C3 2147   5.441   2.806   7.393  0.2547  0.5100  0.1744
   30CHL1    H3 2148   5.383   2.737   7.458 -0.1571 -0.7648 -1.4895
   30CHL1    O3 2149   5.366   2.847   7.279 -0.3484  0.4171  0.1558
   30CHL1   H3' 2150   5.430   2.878   7.215  0.7217  0.4692  1.2401
   30CHL1    C4 2151   5.474   2.930   7.464  0.3708 -0.5313  0.5023
   30CHL1   H4A 2152   5.522   3.003   7.396  2.5733 -1.6474  0.8339
   30CHL1   H4B 2153   5.377   2.973   7.499 -0.3968 -1.0233 -0.9657
   30CHL1    C5 2154   5.553   2.889   7.585  0.0735 -0.4271 -0.3654
   30CHL1    C6 2155   5.509   2.915   7.711  0.0521 -0.2087 -0.2715
   30CHL1    H6 2156   5.409   2.959   7.726 -0.3741 -0.6787 -1.7158
   30CHL1    C7 2157   5.575   2.883   7.839  0.2528  0.1370 -0.5961
   30CHL1   H7A 2158   5.572   2.965   7.915  1.1766 -0.0907 -0.3145
   30CHL1   H7B 2159   5.530   2.791   7.883 -0.0763  0.0228 -1.1692
   30CHL1    C8 2160   5.724   2.860   7.813 -0.3528  0.7761  0.2881
   30CHL1    H8 2161   5.778   2.956   7.795  1.0739 -0.2367 -0.9520
   30CHL1   C14 2162   5.790   2.787   7.930 -0.3126  0.0186  0.2063
   30CHL1   H14 2163   5.726   2.697   7.944  0.0589 -0.5969 -1.9553
   30CHL1   C15 2164   5.774   2.867   8.062 -0.2103 -0.0655  0.2610
   30CHL1  H15A 2165   5.797   2.973   8.042  1.2681 -0.6843 -1.4710
   30CHL1  H15B 2166   5.679   2.847   8.116 -0.6768  2.3470  0.3930
   30CHL1   C16 2167   5.867   2.794   8.153  0.4962  0.1354  0.0666
   30CHL1  H16A 2168   5.921   2.878   8.202 -2.3428  1.1062  1.6077
   30CHL1  H16B 2169   5.827   2.721   8.227 -1.2668  1.4325  0.4235
   30CHL1   C17 2170   5.964   2.701   8.068 -0.2931 -1.0880  0.0132
   30CHL1   H17 2171   5.930   2.596   8.067  0.8654 -1.4665 -1.1687
   30CHL1   C13 2172   5.941   2.756   7.924 -0.6003  0.3811  0.0773
   30CHL1   C18 2173   6.033   2.887   7.895 -0.2214  0.1834  0.7238
   30CHL1  H18A 2174   6.004   2.940   7.802 -0.1269 -0.3148  0.4052
   30CHL1  H18B 2175   6.011   2.961   7.975 -1.7184 -0.4741  0.9505
   30CHL1  H18C 2176   6.138   2.861   7.871 -0.9106 -0.8429 -1.2152
   30CHL1   C12 2177   5.947   2.652   7.807  0.3529 -0.0871 -0.3472
   30CHL1  H12A 2178   6.056   2.637   7.793  0.6573  1.6256 -0.0140
   30CHL1  H12B 2179   5.893   2.561   7.839  0.8331 -0.2241  0.0784
   30CHL1   C11 2180   5.889   2.713   7.682  0.1566 -0.3544 -1.2434
   30CHL1  H11A 2181   5.954   2.796   7.648  1.4751 -1.1415 -0.6801
   30CHL1  H11B 2182   5.904   2.636   7.603 -0.2583 -0.0999 -1.5722
   30CHL1    C9 2183   5.741   2.761   7.694  0.6460  1.1973  0.3800
   30CHL1    H9 2184   5.678   2.674   7.720  0.1606  1.0238 -1.2964
   30CHL1   C10 2185   5.679   2.809   7.559 -0.2642  0.4275 -0.1014
   30CHL1   C19 2186   5.779   2.909   7.494  0.0721  0.1450 -0.4049
   30CHL1  H19A 2187   5.805   2.992   7.562 -0.4896  0.1855 -0.2358
   30CHL1  H19B 2188   5.871   2.851   7.474 -0.3617 -0.3921 -0.8924
   30CHL1  H19C 2189   5.759   2.957   7.395 -0.6210  1.4573  0.3627
   30CHL1    C1 2190   5.650   2.690   7.468  0.0941 -0.8031  0.2806
   30CHL1   H1A 2191   5.745   2.644   7.435  1.1565  1.3305  0.2747
   30CHL1   H1B 2192   5.597   2.616   7.532 -1.7464 -0.2989 -0.6127
   30CHL1    C2 2193   5.562   2.719   7.344 -0.6373 -0.2472  0.1829
   30CHL1   H2A 2194   5.533   2.633   7.280 -0.5124  0.3388 -0.6692
   30CHL1   H2B 2195   5.627   2.769   7.269 -1.4321 -1.0553 -1.0662
   30CHL1   C20 2196   6.110   2.684   8.122  0.3374  0.7470 -0.6607
   30CHL1   H20 2197   6.164   2.781   8.112  1.2558  0.3320  0.1005
   30CHL1   C21 2198   6.194   2.588   8.034 -0.0979  0.0277  0.5487
   30CHL1  H21A 2199   6.287   2.562   8.090 -0.1746  0.8326  1.0582
   30CHL1  H21B 2200   6.235   2.621   7.936  0.5140 -1.5102  0.2744
   30CHL1  H21C 2201   6.138   2.493   8.023 -0.3313  0.5046 -2.5550
   30CHL1   C22 2202   6.114   2.628   8.274  1.1757 -0.6079 -0.3292
   30CHL1  H22A 2203   6.222   2.610   8.293  0.6651  0.4821  4.1309
   30CHL1  H22B 2204   6.066   2.710   8.331  4.1165  0.9370 -0.0244
   30CHL1   C23 2205   6.027   2.509   8.313  0.5798 -0.6394 -0.6727
   30CHL1  H23A 2206   5.923   2.525   8.276 -0.0235 -0.9138  0.8326
   30CHL1  H23B 2207   6.072   2.416   8.273  1.6493 -0.8043  0.8454
   30CHL1   C24 2208   6.020   2.496   8.464  0.4428  0.6838 -0.4295
   30CHL1  H24A 2209   6.122   2.515   8.504  1.1577 -1.0380 -1.3981
   30CHL1  H24B 2210   5.940   2.559   8.508  0.8386  1.9689 -1.5437
   30CHL1   C25 2211   5.972   2.348   8.496  0.7825  0.4302 -0.5074
   30CHL1   H25 2212   5.958   2.346   8.606 -0.4618  0.8613 -0.6432
   30CHL1   C26 2213   5.835   2.307   8.440 -0.1871  0.5153 -0.1427
   30CHL1  H26A 2214   5.805   2.213   8.491  0.0655  0.7586  0.4571
   30CHL1  H26B 2215   5.771   2.395   8.461 -0.3194  0.2845  0.4393
   30CHL1  H26C 2216   5.843   2.303   8.330  2.4065  0.9689 -0.0142
   30CHL1   C27 2217   6.077   2.231   8.476  0.0728 -0.4158 -0.3284
   30CHL1  H27A 2218   6.039   2.134   8.512 -0.1346 -0.7231 -1.3524
   30CHL1  H27B 2219   6.101   2.217   8.368 -0.5152 -2.1307 -0.2475
   30CHL1  H27C 2220   6.176   2.250   8.524 -0.7606  3.3652  0.0854
   31CHL1    C3 2221   4.647   5.226   6.678 -0.0538  0.2963  0.4927
   31CHL1    H3 2222   4.750   5.266   6.686  0.4558 -0.7504 -0.5572
   31CHL1    O3 2223   4.614   5.186   6.540  0.5690 -0.1186 -0.4681
   31CHL1   H3' 2224   4.567   5.106   6.560 -2.7510  1.5396 -1.3011
   31CHL1    C4 2225   4.633   5.099   6.767  0.0194  0.6647 -0.6909
   31CHL1   H4A 2226   4.530   5.062   6.746  0.4518 -2.1966  2.0052
   31CHL1   H4B 2227   4.700   5.023   6.723 -0.6077  0.7053 -1.7576
   31CHL1    C5 2228   4.638   5.130   6.918  0.8770  0.3315 -0.1987
   31CHL1    C6 2229   4.710   5.040   6.991 -0.6259  0.4080 -0.4981
   31CHL1    H6 2230   4.752   4.953   6.940  0.2885  0.1153  0.7443
   31CHL1    C7 2231   4.717   5.049   7.143 -0.7255  0.3774  0.0029
   31CHL1   H7A 2232   4.705   4.945   7.182  0.9965  0.1697  0.0162
   31CHL1   H7B 2233   4.818   5.084   7.170 -2.1958  3.2861  1.8759
   31CHL1    C8 2234   4.614   5.154   7.206  0.5262  0.5222  0.3133
   31CHL1    H8 2235   4.513   5.108   7.202  1.1116 -0.7644  0.0958
   31CHL1   C14 2236   4.658   5.193   7.339  0.3009 -0.3590 -0.2458
   31CHL1   H14 2237   4.756   5.246   7.328  1.4099 -2.4237 -0.5457
   31CHL1   C15 2238   4.690   5.074   7.429  0.3342  0.5889 -0.8807
   31CHL1  H15A 2239   4.617   4.992   7.413 -1.2441  2.0733 -1.4802
   31CHL1  H15B 2240   4.787   5.025   7.406 -0.3970 -1.0841 -0.4320
   31CHL1   C16 2241   4.674   5.133   7.570 -0.1966 -0.4680 -0.7000
   31CHL1  H16A 2242   4.595   5.087   7.634 -0.1502 -0.3648 -0.5672
   31CHL1  H16B 2243   4.771   5.123   7.623  1.3055  0.5237 -3.1557
   31CHL1   C17 2244   4.631   5.288   7.550 -0.0086 -0.6510  0.1200
   31CHL1   H17 2245   4.722   5.352   7.541 -0.1483 -0.8587 -3.0480
   31CHL1   C13 2246   4.559   5.283   7.410 -0.0239  0.2762 -0.4383
   31CHL1   C18 2247   4.413   5.211   7.415 -0.5478  0.4550  0.1007
   31CHL1  H18A 2248   4.344   5.274   7.474 -0.5255  0.8315 -0.2695
   31CHL1  H18B 2249   4.382   5.205   7.308  2.5628  2.9723 -1.0421
   31CHL1  H18C 2250   4.416   5.109   7.458  0.2205  0.8786  1.0701
   31CHL1   C12 2251   4.554   5.418   7.335 -0.0341  0.0994  0.4122
   31CHL1  H12A 2252   4.479   5.485   7.383  1.9960  2.4486  0.3871
   31CHL1  H12B 2253   4.649   5.473   7.351 -2.0674  3.8951  0.0703
   31CHL1   C11 2254   4.525   5.398   7.187  0.2906 -0.1334  0.1728
   31CHL1  H11A 2255   4.416   5.380   7.176  0.0286  2.0092 -0.9335
   31CHL1  H11B 2256   4.546   5.491   7.130 -0.6676  0.6189  1.0442
   31CHL1    C9 2257   4.606   5.280   7.119 -0.7470  0.0026  0.1899
   31CHL1    H9 2258   4.713   5.309   7.115 -0.7845  0.1849  0.5318
   31CHL1   C10 2259   4.565   5.244   6.971 -0.2309 -0.1336  0.3689
   31CHL1   C19 2260   4.412   5.221   6.971  0.3828 -0.7001  0.3762
   31CHL1  H19A 2261   4.358   5.318   6.982  0.0379 -1.2247  3.9159
   31CHL1  H19B 2262   4.375   5.190   6.871  1.5056 -0.8330 -0.0067
   31CHL1  H19C 2263   4.382   5.146   7.047 -0.2513  1.1416  2.0091
   31CHL1    C1 2264   4.592   5.370   6.882  0.0333  0.3999  0.1888
   31CHL1   H1A 2265   4.519   5.448   6.914 -1.0045  0.1089 -1.4246
   31CHL1   H1B 2266   4.696   5.407   6.892  0.4383 -0.6357 -0.2467
   31CHL1    C2 2267   4.562   5.345   6.735  0.3279  0.1757  0.2850
   31CHL1   H2A 2268   4.576   5.434   6.670  0.1031  0.3017  0.4078
   31CHL1   H2B 2269   4.453   5.320   6.733 -0.1131  2.0695 -0.5575
   31CHL1   C20 2270   4.563   5.350   7.672 -0.5441  0.4649  0.7572
   31CHL1   H20 2271   4.469   5.291   7.680 -0.4145  0.1847  0.2049
   31CHL1   C21 2272   4.516   5.495   7.666  0.8541 -0.4432  0.2131
   31CHL1  H21A 2273   4.444   5.508   7.750 -0.3332 -2.2832 -0.4923
   31CHL1  H21B 2274   4.459   5.516   7.573 -1.6532 -0.9629  1.5744
   31CHL1  H21C 2275   4.600   5.567   7.678  1.9060 -1.5531 -0.4090
   31CHL1   C22 2276   4.655   5.327   7.798  0.0088 -0.3172  0.5075
   31CHL1  H22A 2277   4.690   5.222   7.811 -0.0734 -0.2499  1.2541
   31CHL1  H22B 2278   4.738   5.400   7.785 -0.4499  0.4683  1.9227
   31CHL1   C23 2279   4.588   5.359   7.936  0.2159 -0.1390  0.1441
   31CHL1  H23A 2280   4.654   5.310   8.011 -0.1716 -0.3655  0.3392
   31CHL1  H23B 2281   4.586   5.470   7.951 -0.5631 -0.1369  0.0314
   31CHL1   C24 2282   4.445   5.298   7.970 -1.1207 -0.6729  0.0888
   31CHL1  H24A 2283   4.363   5.348   7.914 -1.3133  0.2386  1.1521
   31CHL1  H24B 2284   4.447   5.189   7.952  1.6195 -0.9137  1.5807
   31CHL1   C25 2285   4.399   5.301   8.122 -0.1169 -0.5373  0.0999
   31CHL1   H25 2286   4.411   5.408   8.147  3.0404 -0.9338  0.4239
   31CHL1   C26 2287   4.250   5.256   8.145 -0.1297 -0.2774 -0.4566
   31CHL1  H26A 2288   4.217   5.274   8.250  0.8356  1.5014 -0.4331
   31CHL1  H26B 2289   4.197   5.323   8.074 -2.0864 -3.1088 -1.7357
   31CHL1  H26C 2290   4.232   5.149   8.124 -2.3033 -0.2032  0.9253
   31CHL1   C27 2291   4.496   5.214   8.208  0.2847  0.1253  0.3401
   31CHL1  H27A 2292   4.463   5.205   8.314 -0.5880 -0.5080  0.0225
   31CHL1  H27B 2293   4.604   5.240   8.205 -0.6581  4.2430 -1.2354
   31CHL1  H27C 2294   4.482   5.113   8.165  2.8042  0.5301 -1.5656
   32CHL1    C3 2295   6.034   3.144   6.909 -0.0550 -0.5933 -0.1457
   32CHL1    H3 2296   5.985   3.244   6.909 -0.0532 -0.5733  1.2253
   32CHL1    O3 2297   6.007   3.080   6.784  0.2159 -0.2310 -0.0894
   32CHL1   H3' 2298   6.057   2.999   6.770 -0.5688 -0.7284 -0.0371
   32CHL1    C4 2299   6.190   3.166   6.919 -0.4586 -0.2303 -0.4443
   32CHL1   H4A 2300   6.233   3.063   6.911  2.0554  0.6557  0.9667
   32CHL1   H4B 2301   6.221   3.227   6.832  1.6829 -0.3919  0.1655
   32CHL1    C5 2302   6.216   3.244   7.056 -0.3601  0.8894  0.0908
   32CHL1    C6 2303   6.286   3.354   7.077 -0.1806  0.3479  0.1303
   32CHL1    H6 2304   6.332   3.413   6.997  2.0713 -1.3528  0.1393
   32CHL1    C7 2305   6.304   3.431   7.209 -0.2614  0.8234 -0.7182
   32CHL1   H7A 2306   6.392   3.499   7.217 -0.0823  0.7230 -1.8142
   32CHL1   H7B 2307   6.218   3.502   7.213 -1.9232 -1.1766 -0.1114
   32CHL1    C8 2308   6.288   3.330   7.332  0.0803  0.6552  0.3303
   32CHL1    H8 2309   6.380   3.268   7.338  0.3003  0.8852 -0.5561
   32CHL1   C14 2310   6.278   3.399   7.465  0.4280 -0.5922  0.5262
   32CHL1   H14 2311   6.191   3.465   7.445  0.0003 -0.9922  1.0470
   32CHL1   C15 2312   6.390   3.498   7.511 -1.2478  0.0319  0.4504
   32CHL1  H15A 2313   6.486   3.441   7.514 -1.8411 -0.9432  1.0431
   32CHL1  H15B 2314   6.396   3.592   7.452  1.0413 -0.8331 -0.7751
   32CHL1   C16 2315   6.350   3.519   7.656  0.3520 -0.5083 -0.2165
   32CHL1  H16A 2316   6.437   3.513   7.726 -0.3020  0.9802  0.7485
   32CHL1  H16B 2317   6.316   3.624   7.667 -1.9830 -1.1908 -0.7438
   32CHL1   C17 2318   6.239   3.411   7.690  0.5866 -0.0091  0.0685
   32CHL1   H17 2319   6.139   3.457   7.676 -0.5312 -3.2095 -3.2085
   32CHL1   C13 2320   6.249   3.303   7.586 -0.4002 -0.3863 -0.2537
   32CHL1   C18 2321   6.379   3.209   7.611 -0.6607 -0.2814 -0.2223
   32CHL1  H18A 2322   6.401   3.134   7.532 -1.7621  0.0968 -0.9030
   32CHL1  H18B 2323   6.473   3.267   7.627 -0.3586 -0.2769 -1.9551
   32CHL1  H18C 2324   6.372   3.155   7.708  0.9386  3.0620  1.8361
   32CHL1   C12 2325   6.122   3.223   7.564 -0.2075  0.2012 -0.7910
   32CHL1  H12A 2326   6.095   3.154   7.647 -2.3059  1.3010 -0.5098
   32CHL1  H12B 2327   6.035   3.291   7.546 -0.9994 -0.2085  1.3454
   32CHL1   C11 2328   6.133   3.147   7.436 -0.1783 -0.8691 -0.3080
   32CHL1  H11A 2329   6.220   3.077   7.441  0.2375 -0.4238 -1.1767
   32CHL1  H11B 2330   6.041   3.090   7.409 -0.8887  0.0058  0.2494
   32CHL1    C9 2331   6.162   3.242   7.311  0.4921  0.2994  0.1740
   32CHL1    H9 2332   6.077   3.314   7.310  1.6412  1.7322  1.9720
   32CHL1   C10 2333   6.155   3.161   7.178  0.1555 -0.1463  0.6891
   32CHL1   C19 2334   6.235   3.035   7.196 -0.2370  0.1242  0.0895
   32CHL1  H19A 2335   6.333   3.053   7.244  0.5541 -1.5709 -0.8383
   32CHL1  H19B 2336   6.167   2.964   7.248 -2.8377  1.3412 -1.5178
   32CHL1  H19C 2337   6.273   2.990   7.102  0.1453 -0.8885  0.7238
   32CHL1    C1 2338   6.005   3.134   7.143  0.7663 -0.1706  0.2410
   32CHL1   H1A 2339   5.961   3.069   7.222 -1.2215 -0.4658 -1.0865
   32CHL1   H1B 2340   5.956   3.234   7.145  0.5600 -0.0845 -4.0578
   32CHL1    C2 2341   5.983   3.055   7.021 -0.4183  0.0483  0.7253
   32CHL1   H2A 2342   5.874   3.036   7.024 -0.6617  1.7093  3.2565
   32CHL1   H2B 2343   6.029   2.954   7.031 -0.4191  0.0811  1.0697
   32CHL1   C20 2344   6.249   3.377   7.846 -0.7877  0.7148  0.3966
   32CHL1   H20 2345   6.343   3.318   7.857 -0.5556  0.0663 -4.1572
   32CHL1   C21 2346   6.135   3.284   7.886 -0.3703  0.2780 -0.1682
   32CHL1  H21A 2347   6.036   3.329   7.862  0.1932  1.5146 -0.2578
   32CHL1  H21B 2348   6.130   3.263   7.995  1.4424 -2.9287 -0.6526
   32CHL1  H21C 2349   6.143   3.192   7.824  1.0345  1.2161 -1.4063
   32CHL1   C22 2350   6.251   3.500   7.943 -0.7182 -0.0680 -0.1637
   32CHL1  H22A 2351   6.297   3.589   7.896 -1.2518 -0.0602 -0.6826
   32CHL1  H22B 2352   6.148   3.525   7.978 -0.8547 -2.8839  1.6544
   32CHL1   C23 2353   6.336   3.479   8.071  0.1489 -0.0871 -0.2618
   32CHL1  H23A 2354   6.306   3.386   8.125 -0.3514 -0.1396 -0.6199
   32CHL1  H23B 2355   6.443   3.480   8.044  0.3736 -1.1957  0.5075
   32CHL1   C24 2356   6.329   3.575   8.185 -0.4660  0.1686  0.0749
   32CHL1  H24A 2357   6.317   3.679   8.146 -4.0529  0.1092  0.7960
   32CHL1  H24B 2358   6.235   3.562   8.244 -0.1211 -0.3289  0.5085
   32CHL1   C25 2359   6.452   3.564   8.278 -0.7306  0.3872 -0.5759
   32CHL1   H25 2360   6.539   3.569   8.210 -0.8175 -4.4904 -1.2349
   32CHL1   C26 2361   6.466   3.674   8.385  1.1572  0.6455 -0.7240
   32CHL1  H26A 2362   6.471   3.771   8.332  0.6477  1.0963  0.0362
   32CHL1  H26B 2363   6.376   3.679   8.450  1.6683 -0.4003  0.0895
   32CHL1  H26C 2364   6.556   3.677   8.450  1.0965  3.4264 -0.6973
   32CHL1   C27 2365   6.446   3.426   8.350 -0.3553  0.3755  0.4003
   32CHL1  H27A 2366   6.540   3.415   8.409 -0.0928 -0.4749 -0.1732
   32CHL1  H27B 2367   6.357   3.425   8.416  0.4567  0.3943  1.5073
   32CHL1  H27C 2368   6.439   3.342   8.277 -0.7261  2.1961 -1.7188
   33CHL1    C3 2369   6.602   4.162   6.866  0.3575 -0.2222 -0.0248
   33CHL1    H3 2370   6.520   4.090   6.890 -0.3241 -0.1820 -2.1565
   33CHL1    O3 2371   6.641   4.151   6.730  0.5594  0.0565 -0.0057
   33CHL1   H3' 2372   6.675   4.061   6.723 -4.6657 -2.2604  1.5066
   33CHL1    C4 2373   6.539   4.306   6.888  0.0670  0.5780 -0.1432
   33CHL1   H4A 2374   6.614   4.374   6.841  0.5824  0.3173  0.2967
   33CHL1   H4B 2375   6.454   4.308   6.816  0.5798  2.1218 -0.7393
   33CHL1    C5 2376   6.513   4.326   7.034  0.4256 -0.1613 -0.2335
   33CHL1    C6 2377   6.386   4.345   7.073  0.0905 -0.1333 -0.6846
   33CHL1    H6 2378   6.306   4.345   6.998  0.2786 -0.7191 -0.8893
   33CHL1    C7 2379   6.344   4.368   7.219  0.4689  0.3638  0.3223
   33CHL1   H7A 2380   6.290   4.465   7.222  0.2997  0.2229  3.2043
   33CHL1   H7B 2381   6.284   4.288   7.267  0.4358  0.1467 -0.0759
   33CHL1    C8 2382   6.466   4.406   7.310  0.7684  0.0298  0.5725
   33CHL1    H8 2383   6.499   4.507   7.277  1.4577 -0.6591 -0.8851
   33CHL1   C14 2384   6.426   4.401   7.459  0.3856  0.0077 -0.5630
   33CHL1   H14 2385   6.402   4.293   7.471 -2.1138  0.3708 -1.9336
   33CHL1   C15 2386   6.304   4.474   7.506  1.6361 -0.4054 -0.4607
   33CHL1  H15A 2387   6.296   4.568   7.447 -1.3966  0.6616  1.5568
   33CHL1  H15B 2388   6.209   4.419   7.489  1.3746 -0.5089  1.2715
   33CHL1   C16 2389   6.328   4.520   7.654 -0.3583 -0.2249 -0.2799
   33CHL1  H16A 2390   6.355   4.628   7.653 -0.4511 -0.2014 -1.2565
   33CHL1  H16B 2391   6.247   4.499   7.727 -0.7632  1.8728 -0.0831
   33CHL1   C17 2392   6.462   4.441   7.692  0.3625  0.0326 -0.1772
   33CHL1   H17 2393   6.433   4.337   7.715 -0.1225  0.4359  1.0883
   33CHL1   C13 2394   6.540   4.432   7.556  0.4933 -0.2465  0.3526
   33CHL1   C18 2395   6.597   4.574   7.532 -0.6810 -0.0742 -0.1854
   33CHL1  H18A 2396   6.649   4.612   7.622 -1.7777 -1.9716  1.3093
   33CHL1  H18B 2397   6.673   4.565   7.452  0.6924 -1.5142  1.2457
   33CHL1  H18C 2398   6.526   4.646   7.488 -3.2589 -3.4614 -1.8585
   33CHL1   C12 2399   6.650   4.322   7.539  1.1315 -0.7635 -0.0611
   33CHL1  H12A 2400   6.736   4.345   7.605  2.2462  0.6329 -1.9494
   33CHL1  H12B 2401   6.591   4.233   7.570  0.4753 -0.0471  0.7591
   33CHL1   C11 2402   6.695   4.312   7.386 -0.3719  0.2009  0.4896
   33CHL1  H11A 2403   6.753   4.403   7.359 -2.4183  1.3237 -0.2580
   33CHL1  H11B 2404   6.770   4.231   7.373  0.4045  1.1202 -0.8303
   33CHL1    C9 2405   6.579   4.309   7.284 -0.7242 -0.5799  0.4910
   33CHL1    H9 2406   6.525   4.214   7.307  0.0317 -1.1700 -0.1680
   33CHL1   C10 2407   6.624   4.309   7.132  0.1038 -0.2846 -0.0764
   33CHL1   C19 2408   6.725   4.430   7.111  0.2036 -0.3517 -0.0517
   33CHL1  H19A 2409   6.702   4.521   7.170 -1.3493 -1.2437  0.7287
   33CHL1  H19B 2410   6.822   4.390   7.149  0.0940 -1.4563 -0.9060
   33CHL1  H19C 2411   6.744   4.462   7.006 -1.8381 -0.7175 -0.5395
   33CHL1    C1 2412   6.696   4.170   7.103 -0.2914 -0.0973 -0.2793
   33CHL1   H1A 2413   6.788   4.161   7.164  0.4652  1.4182 -1.1496
   33CHL1   H1B 2414   6.628   4.084   7.117 -0.5057  0.1806  0.4031
   33CHL1    C2 2415   6.730   4.145   6.953 -0.1324  0.4060  0.5051
   33CHL1   H2A 2416   6.765   4.040   6.942  1.1537  0.9238 -0.4862
   33CHL1   H2B 2417   6.823   4.204   6.934 -0.2123  0.5889  0.6824
   33CHL1   C20 2418   6.523   4.488   7.824 -0.4806 -0.3532 -0.0959
   33CHL1   H20 2419   6.563   4.589   7.805 -0.4635 -0.0767  1.3578
   33CHL1   C21 2420   6.638   4.388   7.869  0.2780 -0.0105  0.4028
   33CHL1  H21A 2421   6.673   4.409   7.972  0.6601 -1.8153  0.6591
   33CHL1  H21B 2422   6.719   4.390   7.793 -0.3261 -3.3891 -0.4157
   33CHL1  H21C 2423   6.591   4.288   7.874  0.2060  0.0656  1.3164
   33CHL1   C22 2424   6.423   4.495   7.938 -0.6080  0.4587 -0.4717
   33CHL1  H22A 2425   6.325   4.543   7.915 -1.1020 -0.6536 -0.6703
   33CHL1  H22B 2426   6.403   4.395   7.982 -1.0146  0.6285 -0.2694
   33CHL1   C23 2427   6.477   4.587   8.046 -0.1160 -0.0218 -0.5944
   33CHL1  H23A 2428   6.576   4.554   8.085 -0.6675 -1.2714 -0.2265
   33CHL1  H23B 2429   6.502   4.687   8.003  0.6497  0.2146  0.3527
   33CHL1   C24 2430   6.380   4.611   8.169  0.2705  0.6142 -0.5975
   33CHL1  H24A 2431   6.406   4.710   8.213  0.9394  0.5635 -0.8666
   33CHL1  H24B 2432   6.273   4.623   8.142 -0.7884 -1.4246  2.4224
   33CHL1   C25 2433   6.371   4.499   8.272  0.8863  0.3003 -0.0374
   33CHL1   H25 2434   6.343   4.407   8.216  1.9944  0.0599 -0.2062
   33CHL1   C26 2435   6.499   4.482   8.354 -0.6472 -1.1302  0.1576
   33CHL1  H26A 2436   6.523   4.571   8.415  0.7835  0.1409 -2.1951
   33CHL1  H26B 2437   6.489   4.399   8.427  0.4544 -0.8441  0.6491
   33CHL1  H26C 2438   6.586   4.466   8.287 -1.1570 -2.9270 -0.1019
   33CHL1   C27 2439   6.246   4.513   8.360  0.5343  0.1086  0.3459
   33CHL1  H27A 2440   6.260   4.443   8.445 -0.2963 -2.5921 -1.6621
   33CHL1  H27B 2441   6.234   4.617   8.399 -0.2058  0.1250  0.0864
   33CHL1  H27C 2442   6.161   4.480   8.297  0.1589 -0.2804  1.0568
   34CHL1    C3 2443   1.004   2.298   7.088 -0.3787 -0.6593  0.0414
   34CHL1    H3 2444   0.922   2.227   7.109 -0.7762  0.0347  0.8838
   34CHL1    O3 2445   0.975   2.338   6.955  0.1327  0.0438  0.0220
   34CHL1   H3' 2446   0.936   2.265   6.906 -0.0114  0.2126 -0.1154
   34CHL1    C4 2447   0.987   2.422   7.175  0.0132  0.0610  0.1554
   34CHL1   H4A 2448   1.054   2.495   7.124  2.4096 -3.4140 -1.8548
   34CHL1   H4B 2449   0.879   2.444   7.163  0.3908  1.7434 -0.3192
   34CHL1    C5 2450   1.012   2.387   7.315 -0.0298  0.5539 -0.1988
   34CHL1    C6 2451   0.912   2.392   7.408 -0.0772 -0.0514  0.5621
   34CHL1    H6 2452   0.811   2.427   7.385  0.1740  1.5575  1.9021
   34CHL1    C7 2453   0.926   2.386   7.551  1.4270 -0.0358  0.2213
   34CHL1   H7A 2454   0.884   2.475   7.603  0.5905  0.5826 -1.4751
   34CHL1   H7B 2455   0.871   2.293   7.579  0.8900  0.1722 -0.1207
   34CHL1    C8 2456   1.069   2.366   7.597 -0.3942 -0.8524 -0.2271
   34CHL1    H8 2457   1.117   2.466   7.605 -1.1914 -0.5192  0.5570
   34CHL1   C14 2458   1.072   2.301   7.734 -0.7628 -0.6770  0.4919
   34CHL1   H14 2459   1.026   2.201   7.720 -0.8643 -0.7165  1.0981
   34CHL1   C15 2460   0.999   2.366   7.854  0.3221  0.3482  0.6706
   34CHL1  H15A 2461   0.998   2.477   7.859 -1.0833  0.5046 -2.2633
   34CHL1  H15B 2462   0.897   2.328   7.831  0.4042  0.5336 -0.0115
   34CHL1   C16 2463   1.057   2.302   7.977 -0.3458  1.4382  0.2164
   34CHL1  H16A 2464   1.076   2.375   8.059  0.5509  1.2457  0.1858
   34CHL1  H16B 2465   0.990   2.223   8.017 -0.5022  1.1354 -0.6357
   34CHL1   C17 2466   1.183   2.219   7.930 -0.3478 -0.1100  0.0403
   34CHL1   H17 2467   1.152   2.113   7.920 -1.7740  0.1325  1.4903
   34CHL1   C13 2468   1.217   2.271   7.791  1.0364  0.3160 -0.4715
   34CHL1   C18 2469   1.288   2.404   7.810 -0.1265 -0.0877 -0.4619
   34CHL1  H18A 2470   1.234   2.467   7.884  2.0824  0.4233  0.7499
   34CHL1  H18B 2471   1.390   2.392   7.851  0.2038  1.3903 -0.8392
   34CHL1  H18C 2472   1.286   2.456   7.712 -1.2899 -0.6567 -0.7571
   34CHL1   C12 2473   1.277   2.174   7.691  0.1895  0.3817 -0.1520
   34CHL1  H12A 2474   1.382   2.143   7.713 -0.8251 -2.8420  0.4044
   34CHL1  H12B 2475   1.214   2.083   7.695  0.0049  0.5841  1.7317
   34CHL1   C11 2476   1.277   2.232   7.551 -0.8624 -0.2675 -0.0985
   34CHL1  H11A 2477   1.353   2.313   7.556 -0.4969 -0.7027  2.3183
   34CHL1  H11B 2478   1.318   2.155   7.481  0.6696  0.1996  0.2720
   34CHL1    C9 2479   1.141   2.273   7.499  0.6808  0.2175 -0.2462
   34CHL1    H9 2480   1.082   2.179   7.509 -0.3399  0.5857 -2.5544
   34CHL1   C10 2481   1.146   2.321   7.349  0.5155 -0.1877 -0.3926
   34CHL1   C19 2482   1.243   2.438   7.328 -0.1783  0.1267  0.0455
   34CHL1  H19A 2483   1.239   2.491   7.230 -0.4962  0.9367  0.4886
   34CHL1  H19B 2484   1.220   2.514   7.406 -2.1040 -0.4889  0.0912
   34CHL1  H19C 2485   1.350   2.410   7.333  0.3097  1.6885 -1.1492
   34CHL1    C1 2486   1.170   2.201   7.249  0.0729  0.3157  0.3965
   34CHL1   H1A 2487   1.279   2.179   7.258  0.3106 -0.0079 -2.6570
   34CHL1   H1B 2488   1.114   2.114   7.290 -1.1607  0.0009 -1.8884
   34CHL1    C2 2489   1.149   2.232   7.105 -0.0190 -0.0685  0.7329
   34CHL1   H2A 2490   1.147   2.138   7.046  0.8109  0.6874 -0.5112
   34CHL1   H2B 2491   1.221   2.305   7.063  1.4655 -1.4182  0.8827
   34CHL1   C20 2492   1.287   2.214   8.044  0.2968  0.5264 -0.0565
   34CHL1   H20 2493   1.315   2.316   8.076  0.1064 -0.1350  2.3031
   34CHL1   C21 2494   1.424   2.148   8.004  0.2856  0.5163  0.2360
   34CHL1  H21A 2495   1.459   2.208   7.916  0.0690 -1.0423 -0.9358
   34CHL1  H21B 2496   1.403   2.051   7.956  0.9724  0.5512 -0.1501
   34CHL1  H21C 2497   1.500   2.148   8.085  0.9036 -1.8584 -0.3010
   34CHL1   C22 2498   1.244   2.139   8.164 -0.2381  0.7488 -0.6271
   34CHL1  H22A 2499   1.148   2.185   8.196 -0.6451  0.6268 -1.6581
   34CHL1  H22B 2500   1.217   2.033   8.142 -0.8889  1.1085 -1.5808
   34CHL1   C23 2501   1.345   2.144   8.285  0.1592 -0.3466  0.1851
   34CHL1  H23A 2502   1.438   2.087   8.266  1.6880  2.1934 -0.0868
   34CHL1  H23B 2503   1.370   2.249   8.308 -0.8748 -0.4928  2.1069
   34CHL1   C24 2504   1.294   2.093   8.424  0.3991  0.3105 -0.5470
   34CHL1  H24A 2505   1.211   2.164   8.445 -0.6642 -0.5330 -1.7729
   34CHL1  H24B 2506   1.245   1.997   8.397 -3.8291  1.7657  1.5017
   34CHL1   C25 2507   1.389   2.073   8.545 -1.4509  0.4439  0.7426
   34CHL1   H25 2508   1.457   1.989   8.520 -0.4533  1.7166 -0.9092
   34CHL1   C26 2509   1.454   2.213   8.573  0.4503  0.6202 -0.3027
   34CHL1  H26A 2510   1.524   2.244   8.493  0.1621 -0.0514 -0.8245
   34CHL1  H26B 2511   1.374   2.289   8.585  0.2775 -0.0908  3.8903
   34CHL1  H26C 2512   1.506   2.218   8.671 -1.5610 -1.2936  0.9387
   34CHL1   C27 2513   1.301   2.031   8.675 -0.7094  0.5324  0.0867
   34CHL1  H27A 2514   1.264   1.929   8.651  1.5795 -0.4939  0.7297
   34CHL1  H27B 2515   1.359   2.016   8.769  1.4375  2.1060 -0.9330
   34CHL1  H27C 2516   1.216   2.100   8.693 -1.4101 -0.1920 -0.4036
   35CHL1    C3 2517   4.252   3.630   7.348  0.0372 -0.0471  0.5988
   35CHL1    H3 2518   4.330   3.554   7.324  0.6427  0.7916 -0.1414
   35CHL1    O3 2519   4.179   3.651   7.226 -0.3062  0.5691  0.3794
   35CHL1   H3' 2520   4.236   3.683   7.156  0.1763 -1.3053 -0.1338
   35CHL1    C4 2521   4.155   3.579   7.455  0.3383 -0.2233 -0.0290
   35CHL1   H4A 2522   4.061   3.638   7.449 -0.5607 -1.6740 -0.5100
   35CHL1   H4B 2523   4.131   3.473   7.429 -2.8007  0.5165 -0.3219
   35CHL1    C5 2524   4.202   3.592   7.599  0.1834  0.4457  1.0245
   35CHL1    C6 2525   4.198   3.489   7.682 -0.1766  0.0257 -0.5256
   35CHL1    H6 2526   4.163   3.392   7.643  1.4017 -0.4707 -0.7320
   35CHL1    C7 2527   4.237   3.495   7.824  0.3200  0.0313 -0.6565
   35CHL1   H7A 2528   4.162   3.441   7.886  2.0270 -0.2809  1.1587
   35CHL1   H7B 2529   4.328   3.434   7.839  0.1819 -0.0393 -0.1003
   35CHL1    C8 2530   4.263   3.639   7.882 -0.0432  0.1860  0.5734
   35CHL1    H8 2531   4.174   3.703   7.896 -2.1904 -2.1557 -1.8111
   35CHL1   C14 2532   4.344   3.629   8.010 -0.2579  0.9709 -0.4264
   35CHL1   H14 2533   4.422   3.552   7.995 -1.2740 -0.4217  1.2080
   35CHL1   C15 2534   4.258   3.586   8.129  0.1955 -0.3621 -0.6122
   35CHL1  H15A 2535   4.159   3.634   8.117 -0.6849 -2.6964 -3.5358
   35CHL1  H15B 2536   4.247   3.478   8.103  1.4424 -0.7201  0.2666
   35CHL1   C16 2537   4.338   3.624   8.252 -0.1332  0.4591  0.5497
   35CHL1  H16A 2538   4.271   3.691   8.310 -0.6194 -0.2044  0.7663
   35CHL1  H16B 2539   4.364   3.528   8.304 -2.4585  0.6804  2.1998
   35CHL1   C17 2540   4.459   3.707   8.193  0.8458 -0.7791 -0.5372
   35CHL1   H17 2541   4.541   3.634   8.176  1.1451 -0.7705  0.7984
   35CHL1   C13 2542   4.406   3.762   8.059 -0.3518 -0.2974 -0.3865
   35CHL1   C18 2543   4.304   3.868   8.096  0.1860 -0.2739 -0.7666
   35CHL1  H18A 2544   4.351   3.968   8.107 -0.1531 -0.0989 -0.8880
   35CHL1  H18B 2545   4.236   3.898   8.014  0.3076  0.2367 -0.6845
   35CHL1  H18C 2546   4.226   3.845   8.172  1.4837 -0.0437  0.6516
   35CHL1   C12 2547   4.501   3.813   7.956  0.2143 -0.0489  0.1806
   35CHL1  H12A 2548   4.547   3.910   7.983 -2.9794  1.4212  0.5600
   35CHL1  H12B 2549   4.584   3.739   7.952 -0.6121 -0.9400 -0.8392
   35CHL1   C11 2550   4.423   3.836   7.825 -0.1268  1.2196  0.0199
   35CHL1  H11A 2551   4.361   3.928   7.821  0.1528  1.4033 -0.1496
   35CHL1  H11B 2552   4.486   3.860   7.736  0.2969  0.4637  0.1169
   35CHL1    C9 2553   4.343   3.707   7.777 -0.4719 -0.6662 -0.7766
   35CHL1    H9 2554   4.430   3.641   7.760  1.3292  2.1431 -2.9143
   35CHL1   C10 2555   4.263   3.729   7.643 -0.3510  0.0818 -0.1362
   35CHL1   C19 2556   4.144   3.826   7.655  0.0939  0.3671  0.6713
   35CHL1  H19A 2557   4.185   3.928   7.668  1.2396  0.1836 -1.3472
   35CHL1  H19B 2558   4.078   3.830   7.566  1.5976  0.0329 -0.4875
   35CHL1  H19C 2559   4.075   3.802   7.739 -0.9165 -0.5026 -0.3902
   35CHL1    C1 2560   4.361   3.771   7.529  0.0124  0.5576  0.2426
   35CHL1   H1A 2561   4.405   3.871   7.548  0.2463  0.9684 -2.3351
   35CHL1   H1B 2562   4.447   3.700   7.528 -0.7710 -0.4106  0.5754
   35CHL1    C2 2563   4.314   3.765   7.383  0.0534 -0.0706 -0.7346
   35CHL1   H2A 2564   4.406   3.787   7.324  0.9656  2.0915  1.4119
   35CHL1   H2B 2565   4.242   3.849   7.368 -2.1419 -1.7357  0.3207
   35CHL1   C20 2566   4.513   3.808   8.297  0.3447  0.3346  0.3108
   35CHL1   H20 2567   4.420   3.861   8.328 -0.7707 -0.1345 -2.0752
   35CHL1   C21 2568   4.610   3.902   8.241 -0.1199  0.1507 -0.3027
   35CHL1  H21A 2569   4.698   3.848   8.201 -1.5291 -1.0657 -1.8300
   35CHL1  H21B 2570   4.653   3.969   8.319 -0.4525 -2.0651  1.8452
   35CHL1  H21C 2571   4.566   3.968   8.163  0.5783  0.6687 -0.2541
   35CHL1   C22 2572   4.576   3.736   8.423 -0.1955 -0.1959 -0.3931
   35CHL1  H22A 2573   4.507   3.658   8.460  0.4504  0.2037  1.7411
   35CHL1  H22B 2574   4.674   3.688   8.400 -1.2131 -2.1342 -0.7369
   35CHL1   C23 2575   4.591   3.826   8.550  0.9918 -0.2887 -0.6627
   35CHL1  H23A 2576   4.641   3.920   8.520 -0.3725  1.1021  1.2834
   35CHL1  H23B 2577   4.492   3.851   8.595  1.8497  3.2891 -0.6467
   35CHL1   C24 2578   4.686   3.760   8.652 -1.0041 -0.1139 -0.5665
   35CHL1  H24A 2579   4.649   3.657   8.667 -0.5749 -0.2081 -0.1552
   35CHL1  H24B 2580   4.788   3.754   8.610  0.2601 -1.6286  2.5364
   35CHL1   C25 2581   4.680   3.830   8.795 -0.2082  0.3801  0.4218
   35CHL1   H25 2582   4.704   3.936   8.769  1.5653  0.1184  0.9298
   35CHL1   C26 2583   4.540   3.815   8.863 -0.2532  0.1517 -0.0340
   35CHL1  H26A 2584   4.505   3.714   8.835 -3.0008  0.7022  1.2806
   35CHL1  H26B 2585   4.538   3.824   8.974 -1.0749  0.0570 -0.0365
   35CHL1  H26C 2586   4.465   3.888   8.825  1.1811  1.6711  0.0021
   35CHL1   C27 2587   4.781   3.764   8.889  0.2856 -0.6120  0.1292
   35CHL1  H27A 2588   4.747   3.674   8.945  0.1658  0.8861  2.5397
   35CHL1  H27B 2589   4.808   3.834   8.971 -0.9686  0.1656 -0.0968
   35CHL1  H27C 2590   4.872   3.746   8.829  0.5148 -0.3394  0.3958
   36CHL1    C3 2591   4.838   2.887   7.248  0.2215 -0.3456  0.3727
   36CHL1    H3 2592   4.878   2.990   7.257 -2.0240  0.5487  0.4869
   36CHL1    O3 2593   4.820   2.845   7.113 -0.3837 -0.1830 -0.2962
   36CHL1   H3' 2594   4.892   2.890   7.069  0.3033 -1.5197 -0.5675
   36CHL1    C4 2595   4.940   2.791   7.312 -0.5216  0.3306 -0.5339
   36CHL1   H4A 2596   4.913   2.687   7.284 -1.2923  0.6705 -1.0511
   36CHL1   H4B 2597   5.039   2.802   7.263  0.7746  0.1370  1.9535
   36CHL1    C5 2598   4.960   2.799   7.458 -0.4502  0.0134  0.7455
   36CHL1    C6 2599   5.085   2.840   7.497  1.3726  0.4461 -0.5201
   36CHL1    H6 2600   5.162   2.857   7.420  0.3750  2.4851 -1.0981
   36CHL1    C7 2601   5.112   2.849   7.644 -0.3298  0.3458  0.8290
   36CHL1   H7A 2602   5.209   2.801   7.668 -1.1763 -1.5422  0.6062
   36CHL1   H7B 2603   5.121   2.956   7.672 -0.8741  1.0508 -1.6117
   36CHL1    C8 2604   5.005   2.778   7.732  0.6664 -0.2318  0.2153
   36CHL1    H8 2605   5.005   2.667   7.725  1.6237 -0.2178  0.0069
   36CHL1   C14 2606   5.026   2.826   7.876  0.1565 -0.2969 -0.0767
   36CHL1   H14 2607   5.010   2.936   7.880 -2.4687 -0.6668  0.2316
   36CHL1   C15 2608   5.167   2.808   7.950  0.3338 -0.7740 -0.2940
   36CHL1  H15A 2609   5.206   2.706   7.928 -2.0878 -2.1079  1.4576
   36CHL1  H15B 2610   5.238   2.879   7.901 -0.2065 -0.5850 -0.8035
   36CHL1   C16 2611   5.145   2.824   8.101 -0.7309 -0.1447  0.9761
   36CHL1  H16A 2612   5.178   2.726   8.141  1.6864  0.7152  1.1229
   36CHL1  H16B 2613   5.207   2.912   8.127  3.0821 -2.7719  1.2261
   36CHL1   C17 2614   4.994   2.847   8.118 -0.1202 -0.4424 -0.3738
   36CHL1   H17 2615   4.985   2.956   8.097  2.5783 -0.6114 -2.6606
   36CHL1   C13 2616   4.923   2.785   7.990  0.4349  0.3908  0.7253
   36CHL1   C18 2617   4.925   2.632   7.991  0.6226 -0.6231 -0.1379
   36CHL1  H18A 2618   4.910   2.591   7.889 -0.0718  3.1017 -1.5784
   36CHL1  H18B 2619   5.025   2.594   8.024  1.5442  0.8148 -1.2087
   36CHL1  H18C 2620   4.841   2.600   8.057  1.2353 -0.5402  0.6974
   36CHL1   C12 2621   4.786   2.850   7.941 -0.4498 -0.4847 -0.6636
   36CHL1  H12A 2622   4.698   2.825   8.003 -0.2035  1.6414  0.5972
   36CHL1  H12B 2623   4.790   2.961   7.944  0.6833 -0.5594  1.0950
   36CHL1   C11 2624   4.746   2.810   7.790  0.7347  0.2316 -0.4086
   36CHL1  H11A 2625   4.691   2.713   7.787 -0.7065  1.0107  0.3377
   36CHL1  H11B 2626   4.667   2.879   7.754 -0.4923 -2.2768 -2.7652
   36CHL1    C9 2627   4.864   2.822   7.688 -0.0328 -0.5035 -0.4414
   36CHL1    H9 2628   4.877   2.932   7.682 -1.7232 -0.2765 -0.2663
   36CHL1   C10 2629   4.837   2.785   7.544 -0.5322  0.1116  0.1704
   36CHL1   C19 2630   4.785   2.642   7.530 -0.9075  0.3912 -0.2931
   36CHL1  H19A 2631   4.699   2.625   7.599 -1.9364 -0.3742 -1.7458
   36CHL1  H19B 2632   4.749   2.614   7.429 -1.4000  0.7337 -0.2125
   36CHL1  H19C 2633   4.869   2.570   7.539 -0.1206  1.2370 -0.7839
   36CHL1    C1 2634   4.724   2.876   7.479  0.1052 -0.7843  0.5238
   36CHL1   H1A 2635   4.624   2.854   7.522 -0.0810  1.3498  1.2288
   36CHL1   H1B 2636   4.748   2.984   7.482  0.1721 -0.7182 -1.5985
   36CHL1    C2 2637   4.709   2.865   7.327  0.0940  0.6368  0.4055
   36CHL1   H2A 2638   4.629   2.932   7.289  0.2140  1.2982  1.3041
   36CHL1   H2B 2639   4.680   2.759   7.314 -0.6454  0.6991  1.5606
   36CHL1   C20 2640   4.937   2.812   8.249  0.0151  0.8312  0.5448
   36CHL1   H20 2641   4.827   2.802   8.247  0.0367  0.6919 -0.0150
   36CHL1   C21 2642   4.977   2.928   8.344 -0.9070 -0.6247 -0.2121
   36CHL1  H21A 2643   4.930   2.918   8.444 -2.7516  1.1012 -0.8591
   36CHL1  H21B 2644   4.943   3.024   8.300 -1.8327 -1.0112 -0.3643
   36CHL1  H21C 2645   5.086   2.927   8.363 -0.8214 -1.3751 -0.7123
   36CHL1   C22 2646   4.986   2.678   8.307  0.1697  0.5263 -0.4912
   36CHL1  H22A 2647   4.972   2.596   8.234 -0.3804 -1.1823  1.4730
   36CHL1  H22B 2648   5.096   2.665   8.321  0.1964 -0.1239 -1.2375
   36CHL1   C23 2649   4.908   2.643   8.436  0.3815  0.4073  0.0255
   36CHL1  H23A 2650   4.919   2.716   8.518 -1.1442 -1.4094  1.9026
   36CHL1  H23B 2651   4.799   2.651   8.416  0.3475 -1.3308 -0.5662
   36CHL1   C24 2652   4.942   2.504   8.483  0.4407  0.1021  0.5586
   36CHL1  H24A 2653   4.948   2.430   8.400  0.1690  1.2237 -0.4770
   36CHL1  H24B 2654   5.051   2.508   8.506  0.8360 -1.7980 -0.8531
   36CHL1   C25 2655   4.847   2.452   8.590  0.2689 -0.5808 -0.3109
   36CHL1   H25 2656   4.908   2.380   8.649  1.1023  1.9495  2.0706
   36CHL1   C26 2657   4.784   2.558   8.685  0.1705 -0.5010  0.6945
   36CHL1  H26A 2658   4.714   2.619   8.624  1.2849  0.2918  0.1846
   36CHL1  H26B 2659   4.721   2.516   8.766 -0.6052 -5.4275 -2.2363
   36CHL1  H26C 2660   4.851   2.633   8.733  1.1635 -0.7310 -0.2969
   36CHL1   C27 2661   4.732   2.376   8.522  0.3658 -0.0060  0.3915
   36CHL1  H27A 2662   4.668   2.449   8.467  0.6437  1.7438  2.3246
   36CHL1  H27B 2663   4.770   2.314   8.438 -2.0827 -0.7536 -0.1839
   36CHL1  H27C 2664   4.677   2.320   8.600 -0.5097 -0.8415 -0.8159
   37CHL1    C3 2665   1.502   5.099   6.934 -0.3374 -0.2809 -0.1915
   37CHL1    H3 2666   1.589   5.161   6.965 -0.4228 -0.9308  1.3929
   37CHL1    O3 2667   1.530   5.026   6.813  0.5139 -0.3304 -0.3911
   37CHL1   H3' 2668   1.451   5.043   6.762  0.5332  1.1957  0.0850
   37CHL1    C4 2669   1.486   5.002   7.056 -0.3728  0.5343  0.1797
   37CHL1   H4A 2670   1.408   4.927   7.030 -0.4027  0.5080  0.3442
   37CHL1   H4B 2671   1.586   4.955   7.067 -0.2691  0.6979 -0.0604
   37CHL1    C5 2672   1.453   5.075   7.184  0.3185  0.2759 -0.4919
   37CHL1    C6 2673   1.526   5.058   7.293 -1.1935 -0.1427  0.3729
   37CHL1    H6 2674   1.614   4.992   7.289  0.1511  1.6558 -0.5057
   37CHL1    C7 2675   1.479   5.132   7.419 -0.1742 -0.4848  0.1104
   37CHL1   H7A 2676   1.499   5.068   7.507  0.6703  1.1893  1.1663
   37CHL1   H7B 2677   1.542   5.220   7.441 -1.4500 -0.2690  3.1623
   37CHL1    C8 2678   1.337   5.186   7.419  0.4373 -0.7957  0.3716
   37CHL1    H8 2679   1.264   5.102   7.418 -2.3422  1.5347 -0.9340
   37CHL1   C14 2680   1.310   5.257   7.551 -0.4694 -0.0980 -0.0648
   37CHL1   H14 2681   1.386   5.338   7.550  0.9362 -1.3309  1.8866
   37CHL1   C15 2682   1.338   5.197   7.690 -0.5246  0.1012 -0.2572
   37CHL1  H15A 2683   1.299   5.095   7.710 -2.3600  0.9948  0.8443
   37CHL1  H15B 2684   1.446   5.204   7.712 -0.7913  0.7968  0.8616
   37CHL1   C16 2685   1.252   5.288   7.783  0.0048  0.7879  0.3435
   37CHL1  H16A 2686   1.170   5.231   7.832 -0.0152 -0.3359 -0.9650
   37CHL1  H16B 2687   1.317   5.326   7.865 -0.2465  1.1511  0.3754
   37CHL1   C17 2688   1.194   5.407   7.693  0.4992  0.2583 -0.4830
   37CHL1   H17 2689   1.280   5.477   7.697 -0.7814  1.8576 -0.1978
   37CHL1   C13 2690   1.178   5.339   7.557  0.3662  0.0864  0.3948
   37CHL1   C18 2691   1.060   5.244   7.553 -0.4603 -0.0480  0.3027
   37CHL1  H18A 2692   1.076   5.145   7.506 -1.5366 -0.3316  0.5328
   37CHL1  H18B 2693   1.032   5.207   7.654  1.9231  0.4105  1.1798
   37CHL1  H18C 2694   0.975   5.287   7.496 -0.5551 -0.7364 -0.0780
   37CHL1   C12 2695   1.180   5.431   7.434 -0.1340 -0.4457  0.6061
   37CHL1  H12A 2696   1.086   5.490   7.426  0.9084  1.0484 -1.2801
   37CHL1  H12B 2697   1.271   5.495   7.436  0.2026 -0.9344  0.9899
   37CHL1   C11 2698   1.183   5.354   7.297 -0.4026 -0.7453  0.9052
   37CHL1  H11A 2699   1.083   5.307   7.283  0.1441 -2.3748  2.1543
   37CHL1  H11B 2700   1.203   5.427   7.216  1.7802  0.7904  2.7932
   37CHL1    C9 2701   1.315   5.269   7.287  0.0608  1.5537  0.4669
   37CHL1    H9 2702   1.404   5.335   7.278 -0.9292  3.3571  3.1770
   37CHL1   C10 2703   1.329   5.171   7.163  0.3815 -0.3614 -0.5022
   37CHL1   C19 2704   1.202   5.088   7.157 -0.4621 -0.0408  0.4508
   37CHL1  H19A 2705   1.184   5.028   7.249  0.9335  0.0106  0.7740
   37CHL1  H19B 2706   1.116   5.157   7.141 -1.4881 -1.1598  1.1179
   37CHL1  H19C 2707   1.185   5.024   7.068 -0.0232 -1.4260  1.3449
   37CHL1    C1 2708   1.343   5.256   7.039 -0.5808 -0.4555  0.0844
   37CHL1   H1A 2709   1.249   5.314   7.028 -1.6506 -2.1448  0.2272
   37CHL1   H1B 2710   1.422   5.331   7.063 -0.4346  0.1177 -2.0965
   37CHL1    C2 2711   1.377   5.183   6.908  0.0420 -0.3737  0.3258
   37CHL1   H2A 2712   1.392   5.261   6.830  0.4097  2.6432  3.2923
   37CHL1   H2B 2713   1.295   5.111   6.888 -0.5708  0.7005 -1.1158
   37CHL1   C20 2714   1.064   5.464   7.754  0.1442 -0.4801 -0.2134
   37CHL1   H20 2715   0.969   5.429   7.709 -1.1533  2.5914  0.0423
   37CHL1   C21 2716   1.069   5.618   7.711 -0.3502  0.5431 -0.5429
   37CHL1  H21A 2717   0.982   5.680   7.741  0.2256  0.9295  0.3551
   37CHL1  H21B 2718   1.081   5.630   7.601 -1.5714 -0.0356 -0.7448
   37CHL1  H21C 2719   1.162   5.653   7.760 -1.0452 -0.8839  1.9357
   37CHL1   C22 2720   1.045   5.474   7.912  0.5241  0.6547 -0.3391
   37CHL1  H22A 2721   1.138   5.502   7.966 -0.1438  1.5555  0.3497
   37CHL1  H22B 2722   0.970   5.554   7.929 -0.8640 -1.2000  2.7500
   37CHL1   C23 2723   0.964   5.358   7.968  0.1932 -0.0718  0.4488
   37CHL1  H23A 2724   0.867   5.355   7.915  1.4123 -1.9734 -1.7701
   37CHL1  H23B 2725   1.014   5.260   7.957  1.0139  0.3610  0.2767
   37CHL1   C24 2726   0.926   5.393   8.117 -0.0837 -0.2077 -0.1488
   37CHL1  H24A 2727   1.018   5.376   8.176 -0.7813  0.9730  1.2944
   37CHL1  H24B 2728   0.897   5.500   8.124 -1.4309 -0.5713 -0.1013
   37CHL1   C25 2729   0.809   5.305   8.170  0.2387  0.0864 -0.1192
   37CHL1   H25 2730   0.710   5.317   8.121 -0.2932 -0.2878  0.8479
   37CHL1   C26 2731   0.830   5.155   8.152  0.5547 -0.7457  0.1859
   37CHL1  H26A 2732   0.756   5.091   8.204  0.5213  0.1233  1.2135
   37CHL1  H26B 2733   0.842   5.127   8.044  1.9239  2.3539 -0.5008
   37CHL1  H26C 2734   0.927   5.133   8.202 -0.4479 -1.0519  2.0270
   37CHL1   C27 2735   0.789   5.326   8.324  0.1426  0.3126  0.2664
   37CHL1  H27A 2736   0.767   5.434   8.338  0.8474  0.7364 -1.6821
   37CHL1  H27B 2737   0.699   5.268   8.354  0.8853 -0.8710  0.2066
   37CHL1  H27C 2738   0.878   5.312   8.389  0.2656 -1.7454 -0.3231
   38CHL1    C3 2739   5.024   5.842   6.724  0.4253  0.0492  0.4834
   38CHL1    H3 2740   5.084   5.933   6.746  2.2352 -1.1822  0.7483
   38CHL1    O3 2741   5.016   5.818   6.583  0.0530 -0.1250 -0.1701
   38CHL1   H3' 2742   4.983   5.728   6.589  0.7392 -0.4559 -1.3120
   38CHL1    C4 2743   5.067   5.717   6.804 -0.4357 -0.4167  0.1246
   38CHL1   H4A 2744   4.987   5.645   6.778  0.7238 -1.5580 -0.3221
   38CHL1   H4B 2745   5.163   5.682   6.759 -0.1723 -0.2283  0.5310
   38CHL1    C5 2746   5.067   5.748   6.954  0.1594  0.8016 -0.0212
   38CHL1    C6 2747   5.177   5.749   7.032 -0.3320  0.4087  0.2650
   38CHL1    H6 2748   5.268   5.707   6.988 -1.4662 -1.0465 -0.7600
   38CHL1    C7 2749   5.167   5.765   7.182  0.3049  0.8230 -0.4429
   38CHL1   H7A 2750   5.214   5.682   7.238 -2.0011 -0.5700 -0.4675
   38CHL1   H7B 2751   5.235   5.850   7.205  1.2832 -0.6021  2.1209
   38CHL1    C8 2752   5.025   5.778   7.242  0.1416  0.0744 -0.1116
   38CHL1    H8 2753   4.987   5.679   7.275  0.5100  0.6223  2.0186
   38CHL1   C14 2754   5.034   5.850   7.376  0.2513 -0.0160 -0.6168
   38CHL1   H14 2755   5.071   5.953   7.362  1.3186 -0.1562  1.0701
   38CHL1   C15 2756   5.130   5.797   7.493  0.0284 -0.6554  0.3863
   38CHL1  H15A 2757   5.134   5.686   7.500  0.8118 -0.6412  0.2749
   38CHL1  H15B 2758   5.231   5.839   7.475  0.2573 -1.4737 -0.2931
   38CHL1   C16 2759   5.066   5.852   7.626  0.9616 -0.2858 -0.4231
   38CHL1  H16A 2760   5.038   5.762   7.684 -0.2663 -1.7394 -3.1637
   38CHL1  H16B 2761   5.127   5.920   7.689  1.8047 -1.5927  0.1855
   38CHL1   C17 2762   4.940   5.933   7.587  0.3121  0.3070  0.3581
   38CHL1   H17 2763   4.975   6.037   7.564  0.6789 -0.0704 -0.8278
   38CHL1   C13 2764   4.899   5.871   7.448 -0.0752 -0.1054 -0.1160
   38CHL1   C18 2765   4.834   5.729   7.482 -0.1036  0.6042  0.6577
   38CHL1  H18A 2766   4.733   5.752   7.524 -0.0680  1.4665  0.2830
   38CHL1  H18B 2767   4.816   5.670   7.389  1.5680 -1.7394  1.7722
   38CHL1  H18C 2768   4.893   5.664   7.549 -1.7119 -1.3424  0.2373
   38CHL1   C12 2769   4.804   5.948   7.358 -0.2818  0.0578  0.1326
   38CHL1  H12A 2770   4.703   5.967   7.402  0.5710  2.8585  0.9812
   38CHL1  H12B 2771   4.853   6.046   7.341 -2.1028  0.9396 -0.1572
   38CHL1   C11 2772   4.793   5.896   7.217  0.2580  0.0353 -0.6962
   38CHL1  H11A 2773   4.734   5.802   7.212  1.8998 -0.8846 -3.3850
   38CHL1  H11B 2774   4.738   5.973   7.160  0.4869  1.8236  1.4262
   38CHL1    C9 2775   4.933   5.855   7.148  0.6508 -0.1909  0.0768
   38CHL1    H9 2776   4.985   5.953   7.144 -1.5050  0.9131 -1.6635
   38CHL1   C10 2777   4.924   5.791   7.011  0.2730 -0.8776  1.0745
   38CHL1   C19 2778   4.827   5.661   7.019  0.0724 -0.5968 -0.3233
   38CHL1  H19A 2779   4.820   5.606   6.922 -1.7228  4.3351 -3.2058
   38CHL1  H19B 2780   4.866   5.595   7.099  1.6275  3.0871  2.0950
   38CHL1  H19C 2781   4.719   5.678   7.038  0.0282 -0.0587 -1.0078
   38CHL1    C1 2782   4.877   5.902   6.909 -0.6917  0.1859 -0.0720
   38CHL1   H1A 2783   4.770   5.921   6.930  0.0093  3.1518  1.1120
   38CHL1   H1B 2784   4.926   5.999   6.932  0.7784 -0.3177 -0.9936
   38CHL1    C2 2785   4.884   5.863   6.767  0.2687 -0.5256 -0.1119
   38CHL1   H2A 2786   4.828   5.932   6.701  0.6786 -1.8565 -1.8818
   38CHL1   H2B 2787   4.820   5.773   6.753 -0.6533  0.2201 -0.7605
   38CHL1   C20 2788   4.835   5.958   7.693 -0.0091  0.3211 -0.2291
   38CHL1   H20 2789   4.739   5.916   7.656 -0.0824  0.5824 -0.3420
   38CHL1   C21 2790   4.794   6.106   7.686 -0.2754 -0.1507 -0.0100
   38CHL1  H21A 2791   4.721   6.130   7.766 -1.5441  0.1935 -1.2494
   38CHL1  H21B 2792   4.766   6.138   7.584  0.4799 -1.2963 -0.5951
   38CHL1  H21C 2793   4.878   6.173   7.716 -0.0868 -0.9513  1.2518
   38CHL1   C22 2794   4.869   5.902   7.834  0.2314 -0.4624 -0.8706
   38CHL1  H22A 2795   4.936   5.813   7.840 -0.9661 -1.2846  1.0048
   38CHL1  H22B 2796   4.922   5.989   7.879 -1.6873  1.4517 -2.2720
   38CHL1   C23 2797   4.747   5.866   7.925 -0.0719 -0.0727 -0.1614
   38CHL1  H23A 2798   4.670   5.946   7.924  0.8121  0.8609  2.2420
   38CHL1  H23B 2799   4.696   5.784   7.871 -0.6372 -0.2913  0.6840
   38CHL1   C24 2800   4.787   5.818   8.067 -0.1863  0.0622 -0.0271
   38CHL1  H24A 2801   4.846   5.725   8.054 -0.1167  0.1077 -0.0347
   38CHL1  H24B 2802   4.851   5.885   8.126 -2.8134  1.1282  1.7035
   38CHL1   C25 2803   4.660   5.766   8.141  0.4028 -0.1061 -0.0228
   38CHL1   H25 2804   4.603   5.704   8.068  1.4141 -3.1254  1.6420
   38CHL1   C26 2805   4.708   5.664   8.252 -0.1879  0.2162  0.1934
   38CHL1  H26A 2806   4.790   5.705   8.314 -0.3822  1.8339 -0.5828
   38CHL1  H26B 2807   4.618   5.634   8.310  1.8097 -2.6622  1.9069
   38CHL1  H26C 2808   4.746   5.573   8.200 -0.3555 -0.2195  0.8316
   38CHL1   C27 2809   4.584   5.883   8.188 -0.2980  0.3186 -0.6101
   38CHL1  H27A 2810   4.485   5.845   8.223 -0.5428  0.2465 -1.3632
   38CHL1  H27B 2811   4.631   5.937   8.273  1.5418  0.2701 -1.5775
   38CHL1  H27C 2812   4.575   5.958   8.107  2.3939  0.7758 -0.5169
   39CHL1    C3 2813   4.274   4.822   6.909  0.1867  0.3539  0.4889
   39CHL1    H3 2814   4.351   4.901   6.903 -1.2298  1.7630  0.6400
   39CHL1    O3 2815   4.212   4.824   6.783 -0.9481 -0.1265  0.1005
   39CHL1   H3' 2816   4.225   4.914   6.753 -1.0388  0.0827  0.6787
   39CHL1    C4 2817   4.334   4.686   6.957 -0.9260  0.7792 -0.3224
   39CHL1   H4A 2818   4.253   4.610   6.945 -2.2433  2.0246  0.5791
   39CHL1   H4B 2819   4.413   4.664   6.881 -1.2485 -0.6428 -0.2667
   39CHL1    C5 2820   4.384   4.681   7.098  0.6764  0.1170  0.5282
   39CHL1    C6 2821   4.498   4.622   7.136 -0.0769  0.8278  0.1933
   39CHL1    H6 2822   4.556   4.567   7.060 -3.2454 -0.6296 -1.2770
   39CHL1    C7 2823   4.549   4.628   7.275  0.7830  0.0622 -0.0359
   39CHL1   H7A 2824   4.597   4.534   7.309  0.4280 -0.5266 -1.1370
   39CHL1   H7B 2825   4.621   4.712   7.278  1.2339 -0.2634 -1.4289
   39CHL1    C8 2826   4.444   4.654   7.382  0.2571 -0.8554  0.0304
   39CHL1    H8 2827   4.377   4.567   7.400  0.8316 -1.1620  0.6878
   39CHL1   C14 2828   4.519   4.692   7.508  1.1479  0.1263  0.6343
   39CHL1   H14 2829   4.563   4.792   7.492 -1.5560  1.3179  0.4758
   39CHL1   C15 2830   4.628   4.594   7.560  0.3412  0.1650 -0.4159
   39CHL1  H15A 2831   4.584   4.492   7.561 -3.1422  1.5914 -1.8952
   39CHL1  H15B 2832   4.720   4.585   7.498  1.4461  0.0552  1.2018
   39CHL1   C16 2833   4.656   4.630   7.704  0.2781 -0.4431  0.4380
   39CHL1  H16A 2834   4.638   4.535   7.759 -0.0649 -0.4497  0.3157
   39CHL1  H16B 2835   4.762   4.664   7.711  0.2594 -0.1172 -0.7616
   39CHL1   C17 2836   4.542   4.744   7.738 -0.2794 -0.8033  0.0684
   39CHL1   H17 2837   4.592   4.839   7.708  0.1217 -1.6362 -2.0155
   39CHL1   C13 2838   4.432   4.720   7.629 -0.0819 -0.0273 -0.3489
   39CHL1   C18 2839   4.349   4.597   7.669  0.1535 -0.1292 -0.5373
   39CHL1  H18A 2840   4.403   4.505   7.700 -1.4998  0.0189  3.0700
   39CHL1  H18B 2841   4.289   4.621   7.759  1.5696  0.0565  0.3752
   39CHL1  H18C 2842   4.278   4.575   7.587 -3.8908  2.2263  2.1726
   39CHL1   C12 2843   4.330   4.831   7.599  0.3258 -0.4636 -0.3604
   39CHL1  H12A 2844   4.245   4.833   7.670  0.8489 -0.0303  0.2570
   39CHL1  H12B 2845   4.391   4.924   7.596 -1.7523  0.9456  0.1805
   39CHL1   C11 2846   4.266   4.817   7.452  0.5130  0.0735 -0.8158
   39CHL1  H11A 2847   4.183   4.744   7.467 -0.5777  1.3561 -0.4396
   39CHL1  H11B 2848   4.208   4.909   7.427  1.9090  1.0737 -0.4689
   39CHL1    C9 2849   4.359   4.772   7.336  0.5209  0.3448  0.4226
   39CHL1    H9 2850   4.432   4.854   7.321  1.4523 -0.7322 -1.0488
   39CHL1   C10 2851   4.289   4.754   7.204  0.3383 -0.0430 -0.2155
   39CHL1   C19 2852   4.160   4.663   7.230  1.0171  0.3295  0.2066
   39CHL1  H19A 2853   4.176   4.595   7.316 -2.6411  1.4405  1.8673
   39CHL1  H19B 2854   4.067   4.721   7.251 -0.7206 -2.3601  0.0405
   39CHL1  H19C 2855   4.139   4.594   7.146  0.8519 -1.6394  1.8292
   39CHL1    C1 2856   4.242   4.890   7.143 -0.0380  0.8589  0.2635
   39CHL1   H1A 2857   4.169   4.918   7.222 -1.1221  0.1432 -0.4652
   39CHL1   H1B 2858   4.321   4.967   7.140  0.3554  0.4301 -0.7120
   39CHL1    C2 2859   4.175   4.872   7.008 -0.1444 -0.1674 -0.2290
   39CHL1   H2A 2860   4.135   4.971   6.977  5.4236  2.6794  1.0766
   39CHL1   H2B 2861   4.093   4.796   7.012 -0.6493  0.3671 -0.3214
   39CHL1   C20 2862   4.504   4.748   7.881 -0.0757 -0.0783  0.1191
   39CHL1   H20 2863   4.451   4.657   7.916  0.5375  0.1810  1.7870
   39CHL1   C21 2864   4.400   4.862   7.902  0.7284  0.4475  0.3132
   39CHL1  H21A 2865   4.426   4.953   7.843 -0.0203  0.4223 -0.0591
   39CHL1  H21B 2866   4.398   4.893   8.009 -3.1993 -1.2921  0.8343
   39CHL1  H21C 2867   4.299   4.820   7.883 -0.3336  2.8270  0.4664
   39CHL1   C22 2868   4.623   4.773   7.971 -0.0302  0.9180 -0.5506
   39CHL1  H22A 2869   4.691   4.685   7.960 -0.0603  0.7047  0.8737
   39CHL1  H22B 2870   4.680   4.866   7.949  4.2613 -1.1537  1.2534
   39CHL1   C23 2871   4.610   4.757   8.121  1.1525 -0.1180 -0.2296
   39CHL1  H23A 2872   4.546   4.835   8.167 -0.7020 -1.6876 -0.0700
   39CHL1  H23B 2873   4.541   4.671   8.135  0.2498  0.9624  2.1862
   39CHL1   C24 2874   4.740   4.738   8.196  0.3422 -0.2687  0.2758
   39CHL1  H24A 2875   4.773   4.632   8.189  0.0170 -0.2427 -1.9007
   39CHL1  H24B 2876   4.823   4.791   8.145  0.2913 -0.0664  0.4063
   39CHL1   C25 2877   4.742   4.790   8.338  0.0766  0.2184 -0.2758
   39CHL1   H25 2878   4.836   4.762   8.391  0.8519 -1.7308 -2.6012
   39CHL1   C26 2879   4.736   4.938   8.352  0.4025 -0.7568 -0.1041
   39CHL1  H26A 2880   4.831   4.988   8.321 -0.2302  0.9124  0.6007
   39CHL1  H26B 2881   4.651   4.973   8.289 -0.3536  0.7422  1.7091
   39CHL1  H26C 2882   4.712   4.969   8.456  0.2979 -1.0899 -0.0307
   39CHL1   C27 2883   4.632   4.719   8.422  0.3179 -0.1906 -0.6625
   39CHL1  H27A 2884   4.647   4.609   8.414  1.2983 -0.2638  1.8114
   39CHL1  H27B 2885   4.645   4.744   8.530  0.6717  0.3537 -0.8273
   39CHL1  H27C 2886   4.533   4.749   8.380 -1.1468 -4.7933 -0.7254
   40CHL1    C3 2887   0.337   3.776   6.970  0.0035  0.1944  0.2579
   40CHL1    H3 2888   0.325   3.887   6.969  0.4310  0.2446 -0.8773
   40CHL1    O3 2889   0.297   3.735   6.837 -1.0022  0.5586  0.4625
   40CHL1   H3' 2890   0.282   3.640   6.844  0.2595  0.1468 -1.8145
   40CHL1    C4 2891   0.484   3.729   7.006 -0.4722 -0.4280 -0.2759
   40CHL1   H4A 2892   0.486   3.622   6.977  0.7206 -0.1768 -1.1449
   40CHL1   H4B 2893   0.543   3.778   6.926 -1.0470 -0.4093 -0.6886
   40CHL1    C5 2894   0.527   3.754   7.148  0.2837  0.2554  0.0457
   40CHL1    C6 2895   0.639   3.823   7.178  0.5273  0.3290  0.2389
   40CHL1    H6 2896   0.710   3.855   7.100  1.2718 -2.0099 -0.0923
   40CHL1    C7 2897   0.682   3.853   7.329 -0.4781  0.6152  0.3282
   40CHL1   H7A 2898   0.789   3.832   7.354 -0.3642  1.1112  0.2528
   40CHL1   H7B 2899   0.662   3.961   7.344 -0.9447  0.8336 -1.6888
   40CHL1    C8 2900   0.602   3.770   7.431 -0.5551  0.3105 -0.0611
   40CHL1    H8 2901   0.639   3.666   7.423  0.2197  0.4663  1.3409
   40CHL1   C14 2902   0.621   3.835   7.567 -1.1301  0.2010  0.1110
   40CHL1   H14 2903   0.571   3.933   7.560 -1.2734  0.2232  1.2928
   40CHL1   C15 2904   0.758   3.889   7.611 -0.0848  0.2878  0.4055
   40CHL1  H15A 2905   0.827   3.802   7.603  0.1637  0.6784 -1.8801
   40CHL1  H15B 2906   0.794   3.969   7.543  2.5327  0.4064  1.8306
   40CHL1   C16 2907   0.739   3.923   7.758 -0.5156  0.6402 -1.1803
   40CHL1  H16A 2908   0.810   3.880   7.832 -2.6847  0.3095  0.7778
   40CHL1  H16B 2909   0.732   4.033   7.772 -4.2400  0.3987 -0.4409
   40CHL1   C17 2910   0.598   3.863   7.798  0.1518 -0.2000 -0.1244
   40CHL1   H17 2911   0.529   3.950   7.804  1.3001  0.8976 -2.0968
   40CHL1   C13 2912   0.552   3.769   7.684 -0.2389  0.1691 -0.6636
   40CHL1   C18 2913   0.615   3.632   7.691  0.8234  0.0636  0.3904
   40CHL1  H18A 2914   0.569   3.567   7.612  1.7808  1.3240 -1.2214
   40CHL1  H18B 2915   0.724   3.621   7.676  0.5291 -0.6694 -1.3837
   40CHL1  H18C 2916   0.573   3.580   7.780 -1.4900 -1.3244 -1.4422
   40CHL1   C12 2917   0.401   3.763   7.645  0.1569 -0.7781  0.7484
   40CHL1  H12A 2918   0.344   3.705   7.722  0.1148 -1.9003 -0.1200
   40CHL1  H12B 2919   0.365   3.868   7.652 -1.4070 -1.0319 -2.4837
   40CHL1   C11 2920   0.365   3.710   7.507  0.1228 -0.0477  0.1321
   40CHL1  H11A 2921   0.383   3.600   7.510  1.2912  0.1414  0.2683
   40CHL1  H11B 2922   0.260   3.727   7.475 -0.2672  2.1748  2.4707
   40CHL1    C9 2923   0.447   3.770   7.393 -0.7928  0.3146 -0.0646
   40CHL1    H9 2924   0.421   3.878   7.388  0.0382  0.5214  0.0180
   40CHL1   C10 2925   0.422   3.702   7.255 -0.1541  0.1623 -0.2861
   40CHL1   C19 2926   0.422   3.551   7.270  0.0607 -0.0766  0.0175
   40CHL1  H19A 2927   0.334   3.518   7.329 -1.0807  3.1767  0.2258
   40CHL1  H19B 2928   0.409   3.494   7.175  1.0528  3.1967 -2.1607
   40CHL1  H19C 2929   0.514   3.503   7.310  1.1693  0.7454 -1.5190
   40CHL1    C1 2930   0.278   3.741   7.215 -1.0159 -0.2065  0.4067
   40CHL1   H1A 2931   0.209   3.691   7.287 -0.4891  0.5472  1.4478
   40CHL1   H1B 2932   0.262   3.850   7.228 -0.7971 -0.4072  2.6211
   40CHL1    C2 2933   0.238   3.713   7.070  0.1987  0.5279 -0.3237
   40CHL1   H2A 2934   0.132   3.731   7.041  0.0750 -0.1529 -0.2936
   40CHL1   H2B 2935   0.242   3.603   7.061 -0.4271  0.6218 -1.8958
   40CHL1   C20 2936   0.591   3.808   7.948  0.2903 -0.8329  0.4645
   40CHL1   H20 2937   0.657   3.718   7.943  1.4760  0.0626 -0.1240
   40CHL1   C21 2938   0.450   3.759   7.986 -0.2888  0.2220 -0.3472
   40CHL1  H21A 2939   0.446   3.748   8.096  0.7240  1.1509 -0.2059
   40CHL1  H21B 2940   0.444   3.660   7.937  1.4458 -0.2351  0.3273
   40CHL1  H21C 2941   0.364   3.819   7.949 -0.0209  0.1172 -1.1424
   40CHL1   C22 2942   0.640   3.916   8.051 -0.3404 -0.3883 -0.0672
   40CHL1  H22A 2943   0.639   3.877   8.155  2.8180 -3.0212 -0.9510
   40CHL1  H22B 2944   0.745   3.932   8.020 -0.1603  1.4599  1.4391
   40CHL1   C23 2945   0.567   4.055   8.037  0.6523 -0.1818  0.1738
   40CHL1  H23A 2946   0.590   4.103   7.940  0.0039  1.3107  0.7484
   40CHL1  H23B 2947   0.464   4.015   8.041  0.6636 -0.1790  0.5297
   40CHL1   C24 2948   0.605   4.140   8.159  0.4292 -0.0307  0.0126
   40CHL1  H24A 2949   0.603   4.076   8.250  3.5304 -1.3967 -0.7960
   40CHL1  H24B 2950   0.713   4.163   8.147  0.5180 -0.6976 -0.4546
   40CHL1   C25 2951   0.521   4.263   8.199  0.1273 -0.4873 -0.1363
   40CHL1   H25 2952   0.415   4.233   8.215 -0.8371  1.3867 -2.6375
   40CHL1   C26 2953   0.568   4.328   8.330 -0.0753 -0.5667 -0.0069
   40CHL1  H26A 2954   0.673   4.356   8.305 -0.0083  0.0686  0.9731
   40CHL1  H26B 2955   0.510   4.421   8.345  1.6394  0.9496 -2.3031
   40CHL1  H26C 2956   0.555   4.266   8.421  0.1411 -2.8830 -1.4999
   40CHL1   C27 2957   0.514   4.364   8.088  0.0288  0.2203  0.2796
   40CHL1  H27A 2958   0.618   4.401   8.073  0.3426 -0.2363  1.2941
   40CHL1  H27B 2959   0.493   4.307   7.995  2.9794 -0.3480 -0.0853
   40CHL1  H27C 2960   0.441   4.446   8.106  1.1364  1.6629 -1.6469
   41CHL1    C3 2961   0.877   4.107   7.039  0.0371  0.6915 -0.3854
   41CHL1    H3 2962   0.819   4.022   7.083 -0.9555  1.1656 -0.7764
   41CHL1    O3 2963   0.875   4.118   6.899  0.1911  0.3562 -0.3025
   41CHL1   H3' 2964   0.933   4.191   6.879  1.5483 -1.1517 -2.0954
   41CHL1    C4 2965   0.840   4.246   7.090  0.4122  0.4772  0.0533
   41CHL1   H4A 2966   0.910   4.321   7.047  1.4241  0.4776  1.6549
   41CHL1   H4B 2967   0.739   4.281   7.059  1.2789 -0.6138 -4.3187
   41CHL1    C5 2968   0.846   4.252   7.239 -0.0204  0.8394 -0.4999
   41CHL1    C6 2969   0.731   4.264   7.314 -0.3281  0.0214 -0.3050
   41CHL1    H6 2970   0.639   4.278   7.256  0.4515 -2.5425 -2.2058
   41CHL1    C7 2971   0.724   4.288   7.467 -0.5877  0.1570 -0.3246
   41CHL1   H7A 2972   0.663   4.381   7.478  2.3735  2.3176 -1.3290
   41CHL1   H7B 2973   0.676   4.206   7.524 -2.6322  2.0168  0.7390
   41CHL1    C8 2974   0.870   4.309   7.522 -1.0499 -0.0074  0.3079
   41CHL1    H8 2975   0.902   4.413   7.501  0.6861 -0.6378 -0.2447
   41CHL1   C14 2976   0.875   4.305   7.673  0.4369  0.4964 -0.1566
   41CHL1   H14 2977   0.838   4.201   7.680  0.7883  0.4139  0.5565
   41CHL1   C15 2978   0.775   4.394   7.756  0.1190 -0.0110 -0.1599
   41CHL1  H15A 2979   0.800   4.494   7.715  4.2841 -0.9552 -0.1411
   41CHL1  H15B 2980   0.668   4.372   7.736 -0.4308  3.7813 -1.9354
   41CHL1   C16 2981   0.825   4.367   7.899  0.6246 -0.3159 -0.6715
   41CHL1  H16A 2982   0.829   4.463   7.955 -0.1187  0.0728 -1.2757
   41CHL1  H16B 2983   0.757   4.291   7.943  2.1239 -0.1981  1.9229
   41CHL1   C17 2984   0.961   4.294   7.897 -0.0116 -1.2635  0.0270
   41CHL1   H17 2985   0.932   4.188   7.916  0.3726 -1.5745 -1.0652
   41CHL1   C13 2986   1.004   4.309   7.747 -0.2568 -0.4112  0.4275
   41CHL1   C18 2987   1.080   4.441   7.729 -0.1255  0.4075  0.5538
   41CHL1  H18A 2988   1.173   4.453   7.790 -0.3671 -1.7775  1.4006
   41CHL1  H18B 2989   1.103   4.466   7.624 -0.1947  1.7753  0.8525
   41CHL1  H18C 2990   1.013   4.528   7.744 -1.6261 -0.4663 -0.9697
   41CHL1   C12 2991   1.087   4.188   7.679  0.2605 -1.0160  0.0311
   41CHL1  H12A 2992   1.185   4.169   7.727 -0.1858  0.1461  1.4525
   41CHL1  H12B 2993   1.025   4.097   7.695 -3.3551  1.0395 -1.5514
   41CHL1   C11 2994   1.100   4.204   7.529 -0.5941  0.0642 -1.0703
   41CHL1  H11A 2995   1.163   4.294   7.517  0.5201 -0.2203  2.0772
   41CHL1  H11B 2996   1.155   4.115   7.491  1.0707  0.2038  0.9242
   41CHL1    C9 2997   0.969   4.214   7.456 -0.0931 -0.9797  0.6846
   41CHL1    H9 2998   0.928   4.112   7.464 -1.4390 -0.9480 -4.1618
   41CHL1   C10 2999   0.980   4.227   7.304  0.6032  0.2436 -0.6746
   41CHL1   C19 3000   1.074   4.338   7.277  0.5095 -0.5170  0.8053
   41CHL1  H19A 3001   1.087   4.353   7.167  2.3394  1.4921  1.2632
   41CHL1  H19B 3002   1.040   4.433   7.323 -3.4002 -1.8708  0.8668
   41CHL1  H19C 3003   1.175   4.303   7.307  0.8126 -2.2061 -1.9764
   41CHL1    C1 3004   1.028   4.094   7.233 -0.4914 -0.0831  0.1259
   41CHL1   H1A 3005   1.137   4.099   7.256 -0.0370  0.4244 -2.0262
   41CHL1   H1B 3006   0.993   4.003   7.286 -0.4319 -1.0559 -1.4658
   41CHL1    C2 3007   1.025   4.079   7.077  0.3961 -0.3046 -0.4047
   41CHL1   H2A 3008   1.059   3.975   7.056  0.9891 -0.5098  1.4942
   41CHL1   H2B 3009   1.087   4.160   7.032 -0.2615 -0.4057 -1.5177
   41CHL1   C20 3010   1.055   4.342   8.005 -1.1484  0.8709  0.4453
   41CHL1   H20 3011   1.095   4.445   7.991  0.1904  0.7117  2.8786
   41CHL1   C21 3012   1.177   4.247   8.008  0.4154  0.1336  0.4042
   41CHL1  H21A 3013   1.235   4.270   7.916  0.0513 -2.0476 -0.3855
   41CHL1  H21B 3014   1.141   4.143   7.999  2.4067 -0.4704 -0.6398
   41CHL1  H21C 3015   1.238   4.259   8.101 -1.0189 -3.1687  1.8516
   41CHL1   C22 3016   0.978   4.356   8.144 -0.1442  0.0702 -0.1786
   41CHL1  H22A 3017   0.906   4.440   8.129 -2.4753 -1.9773 -0.7613
   41CHL1  H22B 3018   0.913   4.271   8.172 -2.3617  0.9407 -2.3657
   41CHL1   C23 3019   1.068   4.389   8.267 -0.1781  0.0653  0.6832
   41CHL1  H23A 3020   1.157   4.322   8.265  0.5745  1.0505  0.0714
   41CHL1  H23B 3021   1.104   4.495   8.270  0.8876 -0.1925 -1.4841
   41CHL1   C24 3022   0.985   4.377   8.397 -0.0561 -0.7632 -0.0737
   41CHL1  H24A 3023   0.912   4.461   8.401 -3.7708 -3.8645  0.5019
   41CHL1  H24B 3024   0.945   4.274   8.402 -0.0511 -0.7667 -0.0930
   41CHL1   C25 3025   1.069   4.403   8.530 -0.1562  0.7255  0.8625
   41CHL1   H25 3026   1.169   4.447   8.513  0.4598 -0.6255  0.9100
   41CHL1   C26 3027   0.988   4.503   8.614 -0.0196  0.4414 -0.2125
   41CHL1  H26A 3028   0.970   4.595   8.555  3.4275  1.2496 -0.1130
   41CHL1  H26B 3029   0.888   4.456   8.623  0.0285  0.3804  0.0137
   41CHL1  H26C 3030   1.036   4.521   8.712 -0.2894  0.7972 -0.1498
   41CHL1   C27 3031   1.100   4.269   8.603 -0.0533 -0.1313  0.7552
   41CHL1  H27A 3032   1.012   4.212   8.639  0.8164 -0.6674  2.0721
   41CHL1  H27B 3033   1.153   4.207   8.527  0.4746 -1.0841  1.8909
   41CHL1  H27C 3034   1.163   4.286   8.692 -1.6540  0.4532  1.7936
   42CHL1    C3 3035   2.530   1.206   6.921  1.0844 -0.5830 -0.0415
   42CHL1    H3 3036   2.629   1.167   6.953 -0.5261 -4.0529  0.8780
   42CHL1    O3 3037   2.515   1.182   6.779 -0.0365 -0.8445  0.5996
   42CHL1   H3' 3038   2.580   1.234   6.731 -1.7723  0.6683 -0.1944
   42CHL1    C4 3039   2.416   1.128   6.987  0.1505 -0.3390  0.2681
   42CHL1   H4A 3040   2.321   1.164   6.942 -0.2594 -2.3422 -0.5403
   42CHL1   H4B 3041   2.436   1.023   6.956  4.0121 -0.0290  1.4845
   42CHL1    C5 3042   2.400   1.144   7.136  0.3893  0.2671 -0.0000
   42CHL1    C6 3043   2.390   1.044   7.222  1.2443  0.0995 -0.1949
   42CHL1    H6 3044   2.397   0.944   7.178 -0.0212 -0.0430 -0.1073
   42CHL1    C7 3045   2.381   1.054   7.371  0.3349 -0.3986 -0.5906
   42CHL1   H7A 3046   2.317   0.969   7.406  0.7350 -0.2927  0.4191
   42CHL1   H7B 3047   2.486   1.046   7.407  0.6219 -0.7565 -1.4990
   42CHL1    C8 3048   2.328   1.192   7.405  0.0256  0.1999 -0.1791
   42CHL1    H8 3049   2.223   1.201   7.367  0.7310  1.7866 -1.8678
   42CHL1   C14 3050   2.337   1.199   7.561 -0.3014  0.8603  0.1592
   42CHL1   H14 3051   2.444   1.186   7.585  0.1997  1.4604 -1.7023
   42CHL1   C15 3052   2.255   1.094   7.640  0.1354 -0.1992  0.2874
   42CHL1  H15A 3053   2.152   1.082   7.601 -0.1919 -2.0641  1.6336
   42CHL1  H15B 3054   2.310   0.998   7.637  3.5504  1.6236  1.8999
   42CHL1   C16 3055   2.259   1.151   7.783 -0.0439 -0.5310  0.4880
   42CHL1  H16A 3056   2.161   1.143   7.835 -1.2818  0.8516 -1.5499
   42CHL1  H16B 3057   2.331   1.095   7.847  0.1334 -1.3258 -0.3997
   42CHL1   C17 3058   2.312   1.296   7.773  0.1684  0.0828 -0.3299
   42CHL1   H17 3059   2.421   1.292   7.795 -0.2626  2.0105  2.3951
   42CHL1   C13 3060   2.303   1.336   7.621 -0.2297 -0.2018 -0.1214
   42CHL1   C18 3061   2.154   1.364   7.581  0.0590 -0.3937  0.2839
   42CHL1  H18A 3062   2.131   1.353   7.473  0.2447 -1.3651  0.3314
   42CHL1  H18B 3063   2.088   1.290   7.632  1.0556 -0.5313  1.3955
   42CHL1  H18C 3064   2.112   1.458   7.622 -2.9021 -1.3521 -0.3605
   42CHL1   C12 3065   2.404   1.428   7.561 -0.4292 -0.4812  0.2634
   42CHL1  H12A 3066   2.412   1.530   7.604 -1.1894 -0.6224  0.7568
   42CHL1  H12B 3067   2.503   1.380   7.574 -0.9740 -1.6443  0.1507
   42CHL1   C11 3068   2.395   1.446   7.403 -0.7853 -0.3557 -0.0599
   42CHL1  H11A 3069   2.301   1.496   7.373  0.6985  1.1863 -2.2827
   42CHL1  H11B 3070   2.481   1.500   7.359 -0.6335 -1.7533 -1.5387
   42CHL1    C9 3071   2.411   1.306   7.339 -0.3088  0.2753 -0.4686
   42CHL1    H9 3072   2.518   1.285   7.359 -0.1600 -0.4287 -1.9152
   42CHL1   C10 3073   2.396   1.293   7.180 -0.4108 -0.5281 -0.3014
   42CHL1   C19 3074   2.268   1.355   7.138  0.5559  0.2563 -0.3638
   42CHL1  H19A 3075   2.184   1.323   7.203  1.2420  2.1080  1.4849
   42CHL1  H19B 3076   2.270   1.466   7.138 -0.0525  0.2710  0.0063
   42CHL1  H19C 3077   2.247   1.329   7.032 -0.3817 -0.9089  0.0998
   42CHL1    C1 3078   2.508   1.374   7.120 -0.0234  0.9517  0.2838
   42CHL1   H1A 3079   2.502   1.481   7.150 -1.1708  0.8647  0.3960
   42CHL1   H1B 3080   2.606   1.331   7.152  0.2719  2.1946  1.0650
   42CHL1    C2 3081   2.519   1.353   6.968  0.0752  0.6638  0.3310
   42CHL1   H2A 3082   2.614   1.404   6.943  1.1471 -0.6401  1.6749
   42CHL1   H2B 3083   2.435   1.394   6.909  1.8356  0.4432 -2.4056
   42CHL1   C20 3084   2.248   1.389   7.868 -0.0759 -0.7753  0.4921
   42CHL1   H20 3085   2.138   1.390   7.853 -0.0226 -0.0219  0.1507
   42CHL1   C21 3086   2.303   1.537   7.861  0.2487 -0.4944  1.0303
   42CHL1  H21A 3087   2.254   1.600   7.938 -1.9882 -0.2343 -0.5279
   42CHL1  H21B 3088   2.309   1.590   7.763  0.3839 -0.8378  0.8496
   42CHL1  H21C 3089   2.408   1.529   7.896  0.8570  0.9825 -0.3819
   42CHL1   C22 3090   2.256   1.337   8.015  0.6591 -0.6092  0.3172
   42CHL1  H22A 3091   2.192   1.400   8.080  0.4842  0.1340 -0.5657
   42CHL1  H22B 3092   2.212   1.236   8.026  3.1278 -1.9179 -1.4279
   42CHL1   C23 3093   2.393   1.327   8.084 -0.1240 -0.5557  0.7275
   42CHL1  H23A 3094   2.465   1.284   8.011  0.5397  1.6314  0.0643
   42CHL1  H23B 3095   2.427   1.432   8.097 -0.5008 -0.4180  0.6127
   42CHL1   C24 3096   2.389   1.270   8.226  0.4281  0.2300  0.1171
   42CHL1  H24A 3097   2.323   1.334   8.289 -0.2037  0.9055 -1.1978
   42CHL1  H24B 3098   2.341   1.170   8.224  1.2912 -0.1788 -0.0181
   42CHL1   C25 3099   2.528   1.253   8.294 -0.5044 -0.5266  0.5319
   42CHL1   H25 3100   2.583   1.175   8.239  0.1375  1.2760 -1.4590
   42CHL1   C26 3101   2.606   1.379   8.296 -0.4938 -0.1827  0.6400
   42CHL1  H26A 3102   2.700   1.356   8.350 -0.6542 -2.3348  0.0383
   42CHL1  H26B 3103   2.635   1.419   8.196  0.1155 -0.3281  0.7618
   42CHL1  H26C 3104   2.552   1.463   8.345  1.4645  0.6081  1.4837
   42CHL1   C27 3105   2.510   1.193   8.424  0.0213  0.2103 -0.5242
   42CHL1  H27A 3106   2.606   1.163   8.470  0.0046  0.8059 -0.0978
   42CHL1  H27B 3107   2.432   1.115   8.437  0.7016 -0.6035 -1.2805
   42CHL1  H27C 3108   2.466   1.270   8.491 -1.5514 -2.3120  1.4235
   43CHL1    C3 3109   2.205   4.997   6.923 -0.1387 -0.3408  0.4114
   43CHL1    H3 3110   2.128   5.073   6.948 -0.2919 -0.5295  0.5174
   43CHL1    O3 3111   2.223   5.004   6.784  0.0465 -0.2714  0.1260
   43CHL1   H3' 3112   2.240   4.913   6.760  2.8732  0.1322  0.3881
   43CHL1    C4 3113   2.342   5.026   6.987  0.1458  0.3813 -0.4452
   43CHL1   H4A 3114   2.413   4.944   6.962 -0.5017 -0.6283  0.9529
   43CHL1   H4B 3115   2.382   5.120   6.943  0.2870  0.7887  0.5466
   43CHL1    C5 3116   2.322   5.030   7.137  0.0195 -0.0518 -0.0126
   43CHL1    C6 3117   2.360   5.137   7.208  0.8646  0.3306 -0.0386
   43CHL1    H6 3118   2.392   5.225   7.149 -0.6029  0.9799  0.0938
   43CHL1    C7 3119   2.341   5.152   7.363 -0.2244  0.4150  0.2127
   43CHL1   H7A 3120   2.424   5.208   7.411 -1.2994  0.4861  2.0198
   43CHL1   H7B 3121   2.251   5.218   7.366 -0.6154 -0.0057 -1.6785
   43CHL1    C8 3122   2.314   5.019   7.430  0.0720  0.5448 -0.5083
   43CHL1    H8 3123   2.408   4.961   7.438  0.0551  0.1405 -2.7842
   43CHL1   C14 3124   2.270   5.044   7.570 -0.8844  0.9395  0.4600
   43CHL1   H14 3125   2.173   5.096   7.561 -0.3023  1.9016 -0.3024
   43CHL1   C15 3126   2.362   5.120   7.659  0.1522 -0.3483  0.1215
   43CHL1  H15A 3127   2.469   5.091   7.650  0.3021  0.0544  0.5808
   43CHL1  H15B 3128   2.367   5.230   7.646 -0.4170 -0.2893  0.3846
   43CHL1   C16 3129   2.313   5.090   7.801 -0.3915  0.6317 -0.3817
   43CHL1  H16A 3130   2.397   5.060   7.868 -0.6980  1.7122  0.4973
   43CHL1  H16B 3131   2.261   5.175   7.851  1.1336  0.8108  0.9362
   43CHL1   C17 3132   2.204   4.982   7.782 -0.1617  0.1467  0.1767
   43CHL1   H17 3133   2.108   5.031   7.756 -0.1980 -0.8219 -1.6324
   43CHL1   C13 3134   2.231   4.915   7.641 -0.9996  0.6347  0.9512
   43CHL1   C18 3135   2.344   4.816   7.670  0.3216  0.3859 -0.2076
   43CHL1  H18A 3136   2.308   4.737   7.739 -0.0626 -0.4203 -1.3126
   43CHL1  H18B 3137   2.366   4.760   7.577 -0.0096 -1.6710  0.9155
   43CHL1  H18C 3138   2.433   4.867   7.713  0.0209  0.5829  0.1855
   43CHL1   C12 3139   2.117   4.852   7.569  0.8158 -0.2468  0.2424
   43CHL1  H12A 3140   2.073   4.755   7.601  0.2369  0.1392  0.6295
   43CHL1  H12B 3141   2.034   4.926   7.566  2.2410  1.3925  0.8656
   43CHL1   C11 3142   2.146   4.828   7.425 -0.3994  0.3497 -0.2714
   43CHL1  H11A 3143   2.216   4.742   7.430 -0.2884  0.4203 -0.6133
   43CHL1  H11B 3144   2.056   4.785   7.377 -0.6717  0.3335  0.2496
   43CHL1    C9 3145   2.210   4.948   7.351  0.0186  0.3534 -0.1452
   43CHL1    H9 3146   2.131   5.026   7.342 -1.5504 -0.9209  2.0464
   43CHL1   C10 3147   2.257   4.907   7.200  0.9038 -0.3852 -0.8877
   43CHL1   C19 3148   2.365   4.794   7.207 -0.0418 -0.2646 -0.3497
   43CHL1  H19A 3149   2.397   4.757   7.108 -0.4409 -1.3006 -0.1004
   43CHL1  H19B 3150   2.459   4.820   7.260 -0.0899  0.7523 -0.7381
   43CHL1  H19C 3151   2.303   4.712   7.248  1.4114 -1.1407  0.1189
   43CHL1    C1 3152   2.137   4.855   7.115  0.4320 -0.0799 -0.9917
   43CHL1   H1A 3153   2.102   4.759   7.158  0.1910  0.6907  0.6213
   43CHL1   H1B 3154   2.049   4.923   7.125  1.3252  1.0105 -0.2784
   43CHL1    C2 3155   2.166   4.856   6.965  0.7592 -0.8665  0.1790
   43CHL1   H2A 3156   2.077   4.830   6.903  0.2000 -0.8322  0.9620
   43CHL1   H2B 3157   2.254   4.791   6.948  0.8928 -0.6198 -0.0950
   43CHL1   C20 3158   2.195   4.897   7.909 -0.9120 -0.9184  0.5908
   43CHL1   H20 3159   2.283   4.831   7.910 -1.7985 -2.3146 -2.9965
   43CHL1   C21 3160   2.077   4.795   7.898  0.3537 -0.3218  0.1364
   43CHL1  H21A 3161   1.981   4.844   7.870  0.0385 -2.0216 -1.8510
   43CHL1  H21B 3162   2.054   4.743   7.993 -2.6518 -1.5862 -1.2317
   43CHL1  H21C 3163   2.098   4.707   7.834  2.3895  0.4669 -0.3495
   43CHL1   C22 3164   2.185   4.977   8.043 -0.3027 -0.4282  0.1024
   43CHL1  H22A 3165   2.269   5.049   8.039 -3.0630  2.8387 -3.1032
   43CHL1  H22B 3166   2.091   5.037   8.033  0.9827  1.8919  1.3590
   43CHL1   C23 3167   2.192   4.896   8.175  0.5542  0.1071 -0.1213
   43CHL1  H23A 3168   2.106   4.825   8.181  1.1887 -0.6608  0.0098
   43CHL1  H23B 3169   2.284   4.834   8.180 -0.6875 -1.6150  3.0679
   43CHL1   C24 3170   2.198   4.993   8.295 -0.5985  0.2401  0.4960
   43CHL1  H24A 3171   2.264   5.081   8.274  1.7579 -1.0693  2.1192
   43CHL1  H24B 3172   2.095   5.023   8.322 -0.2200  1.4535  0.6354
   43CHL1   C25 3173   2.253   4.932   8.424 -0.5945  0.2115 -0.5503
   43CHL1   H25 3174   2.358   4.899   8.410 -1.3284 -3.0664  1.1854
   43CHL1   C26 3175   2.259   5.041   8.532  0.3478  0.8621  1.0669
   43CHL1  H26A 3176   2.257   4.998   8.634  1.2299 -2.9956 -0.4874
   43CHL1  H26B 3177   2.352   5.099   8.513  0.5024  0.4871  0.6840
   43CHL1  H26C 3178   2.174   5.113   8.533 -1.5377 -1.3094 -0.1693
   43CHL1   C27 3179   2.180   4.807   8.468  0.2455  0.2285  0.1122
   43CHL1  H27A 3180   2.234   4.763   8.555 -0.6594  0.8443  0.9928
   43CHL1  H27B 3181   2.075   4.835   8.491  1.2714  1.9515  3.0672
   43CHL1  H27C 3182   2.170   4.730   8.389 -0.2887 -0.0434  0.4473
   44CHL1    C3 3183   1.953   3.830   6.714  0.3013 -0.2364  0.4269
   44CHL1    H3 3184   1.897   3.735   6.724  1.5057 -0.7428  2.4805
   44CHL1    O3 3185   1.960   3.876   6.575  0.3601 -0.0048  0.1961
   44CHL1   H3' 3186   1.995   3.966   6.577 -0.9007  0.5117 -0.2999
   44CHL1    C4 3187   1.868   3.931   6.794 -0.3625  0.8146  0.3028
   44CHL1   H4A 3188   1.898   4.036   6.774 -0.6103  0.8945  0.3409
   44CHL1   H4B 3189   1.767   3.929   6.746 -0.5809  0.9691  0.7523
   44CHL1    C5 3190   1.872   3.903   6.939 -0.1163  0.0950 -0.0803
   44CHL1    C6 3191   1.763   3.876   7.008  0.0887  0.2011  0.8035
   44CHL1    H6 3192   1.670   3.864   6.950  0.4020  0.5339  0.2303
   44CHL1    C7 3193   1.757   3.841   7.157 -0.3374 -0.1881 -0.2698
   44CHL1   H7A 3194   1.666   3.887   7.199  1.2900  1.5346  1.4656
   44CHL1   H7B 3195   1.742   3.732   7.167  1.2793 -0.4056  0.0067
   44CHL1    C8 3196   1.882   3.895   7.229 -0.1076 -0.6745  0.7878
   44CHL1    H8 3197   1.865   4.004   7.235  0.2994 -0.6917  2.5871
   44CHL1   C14 3198   1.877   3.839   7.371 -0.1252  0.4723  0.1131
   44CHL1   H14 3199   1.886   3.728   7.368 -0.7695  0.3859  1.0940
   44CHL1   C15 3200   1.748   3.863   7.449 -0.0383  0.4986  0.4939
   44CHL1  H15A 3201   1.725   3.970   7.432  2.0661  0.6241 -1.8337
   44CHL1  H15B 3202   1.680   3.781   7.417  1.5139 -0.4109 -0.5534
   44CHL1   C16 3203   1.791   3.842   7.595 -0.2383 -0.3410 -0.5550
   44CHL1  H16A 3204   1.783   3.942   7.643 -0.8344 -1.2711  1.3315
   44CHL1  H16B 3205   1.725   3.768   7.645  2.0836 -3.7877 -2.4230
   44CHL1   C17 3206   1.948   3.810   7.597 -0.9326  0.4541  0.0545
   44CHL1   H17 3207   1.959   3.700   7.585 -0.2930  0.6429 -1.2439
   44CHL1   C13 3208   1.998   3.879   7.466 -0.3059  0.6183  0.9546
   44CHL1   C18 3209   2.008   4.034   7.475 -0.4953  0.5165 -0.5053
   44CHL1  H18A 3210   2.019   4.093   7.382  0.4588  1.5730  0.2602
   44CHL1  H18B 3211   1.912   4.072   7.515  0.4032 -1.7712  4.2428
   44CHL1  H18C 3212   2.095   4.067   7.536  0.1948 -0.9938 -0.6241
   44CHL1   C12 3213   2.124   3.824   7.394 -0.7191 -0.0660 -0.2044
   44CHL1  H12A 3214   2.223   3.844   7.441  0.4165 -1.5768 -1.8789
   44CHL1  H12B 3215   2.112   3.714   7.383  0.1328 -0.2357  0.5174
   44CHL1   C11 3216   2.134   3.867   7.239 -0.4890  0.2840 -0.6067
   44CHL1  H11A 3217   2.149   3.977   7.232 -1.4260  0.3200 -2.1847
   44CHL1  H11B 3218   2.221   3.811   7.199 -0.5076 -0.4796  0.4004
   44CHL1    C9 3219   2.003   3.843   7.155 -0.4089  0.6306  0.0710
   44CHL1    H9 3220   1.988   3.733   7.148 -2.4093  0.9554 -1.2398
   44CHL1   C10 3221   2.011   3.897   7.006  0.1293  0.3185  0.1161
   44CHL1   C19 3222   2.063   4.044   6.998 -0.2622 -0.0374 -0.1172
   44CHL1  H19A 3223   2.071   4.083   6.894  0.9892 -0.3131 -0.1297
   44CHL1  H19B 3224   2.011   4.122   7.058 -2.4530 -0.7225 -1.0901
   44CHL1  H19C 3225   2.171   4.040   7.025 -0.3928 -0.3226  0.3730
   44CHL1    C1 3226   2.093   3.794   6.929  0.0544  0.3294 -0.6749
   44CHL1   H1A 3227   2.197   3.800   6.969 -0.9505 -1.1014  2.3533
   44CHL1   H1B 3228   2.055   3.693   6.955 -0.5861  1.2981  2.3986
   44CHL1    C2 3229   2.089   3.815   6.775 -0.4207  0.5075  0.1531
   44CHL1   H2A 3230   2.117   3.715   6.736 -0.3510  0.0956  1.2419
   44CHL1   H2B 3231   2.158   3.893   6.735  0.8057  0.0140  1.2855
   44CHL1   C20 3232   2.013   3.850   7.733 -0.6519 -0.0633 -0.5538
   44CHL1   H20 3233   2.009   3.960   7.747 -1.7524 -0.1421 -0.1325
   44CHL1   C21 3234   2.165   3.821   7.732 -0.4826 -0.5950 -0.1836
   44CHL1  H21A 3235   2.212   3.868   7.643  0.5148  1.1532  1.2334
   44CHL1  H21B 3236   2.192   3.714   7.748  1.5296 -0.0181  0.3568
   44CHL1  H21C 3237   2.209   3.876   7.818 -1.5403 -0.7250  0.4553
   44CHL1   C22 3238   1.951   3.783   7.858  0.6751  0.6122  0.1465
   44CHL1  H22A 3239   1.841   3.800   7.863  0.1443 -1.9038 -1.5906
   44CHL1  H22B 3240   1.967   3.674   7.846 -0.4769  0.7162 -2.9250
   44CHL1   C23 3241   2.002   3.826   7.991 -0.4543 -0.7227  1.0156
   44CHL1  H23A 3242   2.113   3.822   7.999 -0.2681  1.7051  0.1484
   44CHL1  H23B 3243   1.986   3.933   8.017  2.9117  0.3310 -0.9819
   44CHL1   C24 3244   1.956   3.738   8.109 -0.4248 -0.1569 -0.3703
   44CHL1  H24A 3245   1.846   3.747   8.106 -0.4873 -0.1413  1.4830
   44CHL1  H24B 3246   1.981   3.636   8.073 -0.1012 -0.8157  1.6428
   44CHL1   C25 3247   2.006   3.773   8.252 -0.1177  0.2839  0.0040
   44CHL1   H25 3248   2.112   3.804   8.258  0.1322 -0.7124  0.8532
   44CHL1   C26 3249   1.903   3.879   8.309  0.1371 -0.3601 -0.0627
   44CHL1  H26A 3250   1.924   3.885   8.418 -1.1190 -0.8720  0.2261
   44CHL1  H26B 3251   1.925   3.979   8.266 -2.5284 -1.3779 -4.0679
   44CHL1  H26C 3252   1.797   3.849   8.292 -0.3296  2.3050 -2.1725
   44CHL1   C27 3253   1.989   3.653   8.348 -0.2096  0.1347 -0.7082
   44CHL1  H27A 3254   2.044   3.688   8.439 -1.4181  1.8331 -0.6087
   44CHL1  H27B 3255   1.886   3.616   8.369 -0.1049 -0.5829 -1.4561
   44CHL1  H27C 3256   2.042   3.565   8.306 -1.0859 -1.5809  1.6267
   45CHL1    C3 3257   3.291   1.996   6.901 -0.7314  0.1677 -0.1836
   45CHL1    H3 3258   3.362   2.079   6.881  0.6295 -0.7299  0.8658
   45CHL1    O3 3259   3.241   1.942   6.779 -0.4029  0.2362  0.4699
   45CHL1   H3' 3260   3.178   2.005   6.742 -1.8187 -0.8138  1.0657
   45CHL1    C4 3261   3.368   1.885   6.984  0.2697  0.1312  0.5809
   45CHL1   H4A 3262   3.294   1.803   6.976  0.6997 -0.3031  1.0290
   45CHL1   H4B 3263   3.461   1.853   6.932 -0.8332  2.5529 -3.0904
   45CHL1    C5 3264   3.387   1.910   7.134 -0.1367 -0.0671 -0.0009
   45CHL1    C6 3265   3.500   1.881   7.196 -0.1270  0.0530 -0.1346
   45CHL1    H6 3266   3.587   1.834   7.148  0.2165  1.1196 -0.5679
   45CHL1    C7 3267   3.522   1.910   7.338  0.3817  0.4624 -0.6363
   45CHL1   H7A 3268   3.578   1.825   7.384 -0.4252  0.3813  0.1895
   45CHL1   H7B 3269   3.569   2.009   7.354 -1.8909  1.4564 -0.0151
   45CHL1    C8 3270   3.390   1.916   7.424 -0.7568  0.0379  0.0009
   45CHL1    H8 3271   3.354   1.811   7.435  0.0112 -0.2117  0.2002
   45CHL1   C14 3272   3.416   1.960   7.561 -0.2769  0.1543  0.0041
   45CHL1   H14 3273   3.454   2.063   7.544  2.8139 -1.0132 -0.4912
   45CHL1   C15 3274   3.514   1.887   7.647  0.5099  0.2462 -0.3199
   45CHL1  H15A 3275   3.506   1.778   7.626 -2.9704 -0.2411  2.9715
   45CHL1  H15B 3276   3.621   1.918   7.639  0.8747 -0.2839  2.1271
   45CHL1   C16 3277   3.469   1.908   7.791 -0.2674 -0.0148  0.1231
   45CHL1  H16A 3278   3.449   1.810   7.839 -0.0030  0.3915  1.0745
   45CHL1  H16B 3279   3.545   1.959   7.853 -0.6475  1.8668 -0.9319
   45CHL1   C17 3280   3.341   1.988   7.785  0.7069  0.1330 -0.1512
   45CHL1   H17 3281   3.372   2.095   7.775 -0.9556  0.7142  0.7231
   45CHL1   C13 3282   3.283   1.963   7.647 -0.1250  0.1265 -0.5777
   45CHL1   C18 3283   3.221   1.822   7.650  0.2368  0.4012  0.5693
   45CHL1  H18A 3284   3.120   1.840   7.694 -0.8947 -2.2313 -0.7952
   45CHL1  H18B 3285   3.208   1.775   7.551  3.0271  1.2100 -0.2167
   45CHL1  H18C 3286   3.265   1.748   7.720  0.6732 -0.5912 -0.7422
   45CHL1   C12 3287   3.184   2.069   7.598 -0.6172 -0.0736  0.7755
   45CHL1  H12A 3288   3.088   2.070   7.656 -1.7832 -0.7792 -1.1110
   45CHL1  H12B 3289   3.236   2.166   7.609  0.2416 -0.4448 -0.0353
   45CHL1   C11 3290   3.168   2.053   7.440 -0.0672  0.4145 -0.5648
   45CHL1  H11A 3291   3.097   1.968   7.424 -1.2366  1.3984 -0.6769
   45CHL1  H11B 3292   3.112   2.141   7.403 -2.1238 -1.2559 -1.5544
   45CHL1    C9 3293   3.297   2.014   7.355  0.7575 -1.0323  0.2786
   45CHL1    H9 3294   3.359   2.106   7.347 -0.7064  0.0634  1.2072
   45CHL1   C10 3295   3.263   1.974   7.206 -0.5567 -0.4130  0.0683
   45CHL1   C19 3296   3.158   1.856   7.209  0.1843  0.7317  0.0932
   45CHL1  H19A 3297   3.208   1.767   7.252  0.6106  0.1527 -1.5673
   45CHL1  H19B 3298   3.057   1.874   7.252  0.8977 -0.2392  2.2676
   45CHL1  H19C 3299   3.139   1.835   7.101 -0.2036  2.1394 -0.1226
   45CHL1    C1 3300   3.215   2.092   7.126  0.4949 -0.6141  0.2851
   45CHL1   H1A 3301   3.130   2.129   7.186  1.3655 -1.0011  1.7763
   45CHL1   H1B 3302   3.290   2.174   7.124  0.4930 -0.5973  0.9770
   45CHL1    C2 3303   3.168   2.055   6.980 -0.9986  0.6707  0.0474
   45CHL1   H2A 3304   3.119   2.149   6.947 -0.4795  1.1533  0.6351
   45CHL1   H2B 3305   3.083   1.984   6.972 -2.4730  2.6159 -1.8381
   45CHL1   C20 3306   3.233   1.988   7.904 -0.2185  0.4366  0.4136
   45CHL1   H20 3307   3.131   2.011   7.867 -0.7512 -0.0222  1.5587
   45CHL1   C21 3308   3.268   2.099   7.998  0.2737 -0.3118 -0.2541
   45CHL1  H21A 3309   3.182   2.112   8.066 -0.4580 -1.4594 -0.9439
   45CHL1  H21B 3310   3.295   2.196   7.950  1.0883  1.0932  2.9207
   45CHL1  H21C 3311   3.355   2.075   8.062 -1.0460  0.6907  1.9605
   45CHL1   C22 3312   3.221   1.849   7.977  0.2419 -0.0092  0.0266
   45CHL1  H22A 3313   3.198   1.770   7.902 -1.3482  0.5148 -0.0549
   45CHL1  H22B 3314   3.317   1.826   8.027 -1.0036 -1.5135  1.8223
   45CHL1   C23 3315   3.113   1.849   8.069  0.0550 -0.1507 -0.5251
   45CHL1  H23A 3316   3.116   1.926   8.148 -1.4848 -1.1021  0.5016
   45CHL1  H23B 3317   3.012   1.863   8.025  0.4165 -1.0000 -1.6669
   45CHL1   C24 3318   3.105   1.711   8.151 -0.1882  0.7211  0.2675
   45CHL1  H24A 3319   3.122   1.621   8.088  1.8411  1.1963  0.0964
   45CHL1  H24B 3320   3.198   1.712   8.211  0.2545  0.0535 -0.3996
   45CHL1   C25 3321   2.982   1.703   8.241 -0.2381 -0.3194  0.0739
   45CHL1   H25 3322   2.899   1.699   8.167 -0.8371 -0.5385  0.7479
   45CHL1   C26 3323   2.972   1.564   8.308 -0.1961 -0.2037 -0.1581
   45CHL1  H26A 3324   2.881   1.552   8.371  0.7048 -2.3694  0.7549
   45CHL1  H26B 3325   2.966   1.477   8.239  3.4595  0.1409 -0.9999
   45CHL1  H26C 3326   3.065   1.556   8.368  0.6492 -0.0391 -1.4331
   45CHL1   C27 3327   2.967   1.815   8.343 -0.0109 -0.4323 -0.1397
   45CHL1  H27A 3328   3.048   1.817   8.419 -1.5199 -0.7197  1.5047
   45CHL1  H27B 3329   2.937   1.917   8.311 -0.7100 -0.0647  1.6370
   45CHL1  H27C 3330   2.887   1.791   8.417  0.9914  1.0828  1.4491
   46CHL1    C3 3331   2.751   3.225   6.996  0.2443 -0.2006  0.2009
   46CHL1    H3 3332   2.719   3.329   7.016 -0.3935 -0.4935  0.7332
   46CHL1    O3 3333   2.748   3.191   6.860  0.2307 -0.0264  1.3495
   46CHL1   H3' 3334   2.794   3.108   6.850 -1.0016 -0.5712  0.0738
   46CHL1    C4 3335   2.895   3.203   7.051  0.3698  0.0890  0.4159
   46CHL1   H4A 3336   2.930   3.098   7.034  1.2364  0.0778  2.1525
   46CHL1   H4B 3337   2.956   3.269   6.985 -0.2995 -0.3401 -0.6389
   46CHL1    C5 3338   2.893   3.239   7.201 -0.2053  0.1840  0.0012
   46CHL1    C6 3339   2.958   3.346   7.248  0.2296 -0.2114  0.2007
   46CHL1    H6 3340   3.011   3.414   7.180 -0.4576  2.8182  2.6188
   46CHL1    C7 3341   2.959   3.379   7.398  0.3774 -0.8060 -0.4837
   46CHL1   H7A 3342   3.063   3.400   7.432 -0.2260  0.1191  0.8312
   46CHL1   H7B 3343   2.887   3.459   7.425 -1.8242 -2.3575 -1.6160
   46CHL1    C8 3344   2.913   3.252   7.481 -0.2777 -0.4831  0.3036
   46CHL1    H8 3345   2.991   3.174   7.471 -1.6903 -1.8796 -0.0427
   46CHL1   C14 3346   2.901   3.287   7.633  0.1569 -0.4402  0.9508
   46CHL1   H14 3347   2.818   3.360   7.639  0.8055  0.2148  2.0253
   46CHL1   C15 3348   3.013   3.353   7.703 -0.8081  0.1575  0.2243
   46CHL1  H15A 3349   3.107   3.300   7.678 -1.2762 -0.8306  0.5596
   46CHL1  H15B 3350   3.023   3.461   7.678  0.4671  0.1649  0.7405
   46CHL1   C16 3351   2.982   3.343   7.855  0.3717  0.5536  0.1902
   46CHL1  H16A 3352   3.067   3.307   7.916 -0.4195 -2.1586 -0.2315
   46CHL1  H16B 3353   2.945   3.442   7.890  0.2137  0.5444  0.0501
   46CHL1   C17 3354   2.861   3.242   7.863 -0.1119  0.0050 -0.0851
   46CHL1   H17 3355   2.777   3.314   7.871 -1.8547 -1.9709 -0.3821
   46CHL1   C13 3356   2.850   3.171   7.725  0.1809 -0.1320  0.2660
   46CHL1   C18 3357   2.943   3.044   7.727 -0.3536  0.0726  1.1315
   46CHL1  H18A 3358   2.976   3.017   7.625  0.0617  0.7730  1.0748
   46CHL1  H18B 3359   3.031   3.065   7.792  0.8029  0.9617 -0.6801
   46CHL1  H18C 3360   2.874   2.966   7.765 -3.1292  0.4895 -2.7393
   46CHL1   C12 3361   2.711   3.137   7.669  0.4357 -0.2098  0.1328
   46CHL1  H12A 3362   2.668   3.052   7.725 -2.0100  1.8306  1.4508
   46CHL1  H12B 3363   2.645   3.227   7.668 -0.5610 -0.9396 -1.3645
   46CHL1   C11 3364   2.722   3.086   7.525  0.0397  0.0412 -0.9663
   46CHL1  H11A 3365   2.782   2.993   7.524  0.4646  0.3182 -1.9424
   46CHL1  H11B 3366   2.621   3.061   7.486 -0.1638  0.3538 -0.6422
   46CHL1    C9 3367   2.790   3.188   7.427 -0.8314  0.2757  0.0306
   46CHL1    H9 3368   2.712   3.268   7.432 -2.5581 -1.2119 -2.1268
   46CHL1   C10 3369   2.800   3.144   7.280 -0.1202 -0.0560  0.3292
   46CHL1   C19 3370   2.871   3.004   7.282 -0.9621 -0.7449 -0.1018
   46CHL1  H19A 3371   2.963   3.013   7.343 -0.2240 -0.3910 -1.2471
   46CHL1  H19B 3372   2.821   2.921   7.336 -0.5584 -0.6090  0.4730
   46CHL1  H19C 3373   2.901   2.975   7.179 -2.0592 -1.5074 -0.2182
   46CHL1    C1 3374   2.661   3.131   7.217 -0.6228  0.2499  0.0409
   46CHL1   H1A 3375   2.609   3.053   7.277 -0.4898  0.7812  0.8410
   46CHL1   H1B 3376   2.615   3.228   7.246  0.3333  1.1395 -1.3530
   46CHL1    C2 3377   2.662   3.117   7.068 -0.7007 -0.4569  0.1128
   46CHL1   H2A 3378   2.562   3.136   7.024 -0.9264  1.9741  1.5435
   46CHL1   H2B 3379   2.691   3.018   7.028 -0.8550 -0.0883 -0.9464
   46CHL1   C20 3380   2.854   3.161   7.999 -0.4286 -0.0077 -0.8047
   46CHL1   H20 3381   2.948   3.106   8.016 -0.7054 -0.1654  0.2957
   46CHL1   C21 3382   2.728   3.072   7.989 -0.2157 -0.0510 -0.5690
   46CHL1  H21A 3383   2.721   2.995   8.069  0.5464  0.9072  0.4360
   46CHL1  H21B 3384   2.730   3.013   7.895 -0.7097 -1.5552  0.3492
   46CHL1  H21C 3385   2.645   3.144   7.997  0.5141  0.9435 -1.8075
   46CHL1   C22 3386   2.832   3.261   8.115  0.0233 -0.0374 -0.2915
   46CHL1  H22A 3387   2.926   3.316   8.136 -0.8096  0.6642  1.7840
   46CHL1  H22B 3388   2.746   3.327   8.089 -0.8329 -0.3824  1.5651
   46CHL1   C23 3389   2.812   3.199   8.254 -0.0637  0.0311  0.1399
   46CHL1  H23A 3390   2.736   3.118   8.259  1.1755 -1.1973 -0.5245
   46CHL1  H23B 3391   2.902   3.143   8.285  0.3898  0.6789  0.0179
   46CHL1   C24 3392   2.777   3.299   8.371 -0.5605  0.2984  0.3954
   46CHL1  H24A 3393   2.859   3.370   8.396 -1.3273  1.4400 -0.2774
   46CHL1  H24B 3394   2.677   3.345   8.357  0.6417  2.8415 -0.1449
   46CHL1   C25 3395   2.746   3.220   8.494  1.0053 -0.2607  1.0209
   46CHL1   H25 3396   2.653   3.165   8.471 -0.4322  2.4675  0.0724
   46CHL1   C26 3397   2.864   3.137   8.539 -0.1663 -0.6455 -0.8625
   46CHL1  H26A 3398   2.882   3.056   8.464 -2.9456 -0.0515 -2.2438
   46CHL1  H26B 3399   2.948   3.210   8.539 -0.9846  0.3184  1.3254
   46CHL1  H26C 3400   2.846   3.099   8.642  2.1438 -0.5403 -0.3953
   46CHL1   C27 3401   2.692   3.316   8.599 -0.5255  0.0436 -0.2363
   46CHL1  H27A 3402   2.776   3.379   8.635 -0.4495 -1.0533  1.6038
   46CHL1  H27B 3403   2.612   3.388   8.570  0.3987  0.0237 -2.9677
   46CHL1  H27C 3404   2.659   3.270   8.695  1.4307  2.0711  1.4728
   47CHL1    C3 3405   1.985   3.281   6.686  0.1203  0.1449 -0.1801
   47CHL1    H3 3406   2.045   3.191   6.708  0.1244  0.2225  0.1321
   47CHL1    O3 3407   1.991   3.297   6.545  0.0928 -0.4238  0.4436
   47CHL1   H3' 3408   1.902   3.323   6.522  0.4271 -0.8626 -1.4218
   47CHL1    C4 3409   1.839   3.257   6.728 -0.5169 -0.5324  0.9348
   47CHL1   H4A 3410   1.778   3.344   6.695  0.0246 -0.2078  0.7776
   47CHL1   H4B 3411   1.797   3.162   6.688  2.3380 -1.7518  0.7095
   47CHL1    C5 3412   1.834   3.247   6.878  0.1058 -0.7394 -0.5330
   47CHL1    C6 3413   1.784   3.137   6.930 -0.3612  0.2860  0.0841
   47CHL1    H6 3414   1.732   3.070   6.860  0.1574 -0.3171  0.2707
   47CHL1    C7 3415   1.790   3.111   7.078  0.1740  0.1536 -0.1891
   47CHL1   H7A 3416   1.695   3.063   7.110 -1.1543  1.6836 -1.7438
   47CHL1   H7B 3417   1.876   3.043   7.095  0.2398  0.3397  0.2288
   47CHL1    C8 3418   1.814   3.235   7.174 -0.0305 -0.0105 -0.4688
   47CHL1    H8 3419   1.720   3.295   7.179  1.6950  2.8327 -1.5045
   47CHL1   C14 3420   1.848   3.197   7.324  0.7817  0.3594  0.6865
   47CHL1   H14 3421   1.948   3.150   7.321  0.2051 -0.9048  0.9768
   47CHL1   C15 3422   1.761   3.094   7.392 -0.2863 -0.2451  0.5517
   47CHL1  H15A 3423   1.658   3.136   7.393 -0.0456  0.3332  1.9674
   47CHL1  H15B 3424   1.762   2.994   7.344  1.9311  0.5186 -1.0724
   47CHL1   C16 3425   1.815   3.096   7.535  0.1753 -0.4460 -0.0755
   47CHL1  H16A 3426   1.724   3.099   7.600  0.8938  0.4046  0.9207
   47CHL1  H16B 3427   1.877   3.008   7.559 -1.3311 -2.1988 -2.4132
   47CHL1   C17 3428   1.894   3.229   7.549  0.2784  0.5766 -0.0989
   47CHL1   H17 3429   2.000   3.194   7.546  0.4498  0.9973  0.8622
   47CHL1   C13 3430   1.870   3.308   7.420 -0.6068  0.9962  0.6530
   47CHL1   C18 3431   1.742   3.394   7.444 -0.1580  0.0799 -0.4191
   47CHL1  H18A 3432   1.675   3.325   7.498  0.5631 -1.0429 -0.9310
   47CHL1  H18B 3433   1.764   3.487   7.501  0.3656 -0.3775  0.1284
   47CHL1  H18C 3434   1.694   3.422   7.347  2.6480  2.6637 -1.1653
   47CHL1   C12 3435   1.996   3.388   7.361 -0.3430 -0.1991  0.1273
   47CHL1  H12A 3436   2.013   3.476   7.427  0.3727 -0.2432  0.0065
   47CHL1  H12B 3437   2.087   3.325   7.357  0.3290  0.7938 -0.8748
   47CHL1   C11 3438   1.969   3.436   7.213 -0.0781 -0.1441  0.1648
   47CHL1  H11A 3439   1.889   3.511   7.225  1.6702  2.1734 -2.1625
   47CHL1  H11B 3440   2.048   3.497   7.163  0.2642  0.4881  1.4577
   47CHL1    C9 3441   1.931   3.319   7.114  0.1874  0.5772  0.4890
   47CHL1    H9 3442   2.016   3.248   7.120 -0.0566  0.3660  1.6735
   47CHL1   C10 3443   1.909   3.355   6.961 -0.1070  0.1739  0.0980
   47CHL1   C19 3444   1.811   3.473   6.959 -0.8062  0.3057  0.8779
   47CHL1  H19A 3445   1.719   3.453   7.018 -0.2292 -4.6070  0.2727
   47CHL1  H19B 3446   1.860   3.560   7.008 -0.9746  0.8759  0.0388
   47CHL1  H19C 3447   1.777   3.508   6.859  0.5682 -0.2331  0.2042
   47CHL1    C1 3448   2.047   3.396   6.899  0.2444 -0.1248  0.5622
   47CHL1   H1A 3449   2.080   3.499   6.926  1.9116 -0.1212 -1.3914
   47CHL1   H1B 3450   2.132   3.335   6.937  0.3975 -0.4932 -0.3750
   47CHL1    C2 3451   2.042   3.403   6.756 -0.7735 -0.1952  0.7583
   47CHL1   H2A 3452   2.142   3.419   6.711 -0.9416  1.4753  0.9538
   47CHL1   H2B 3453   1.981   3.489   6.721 -0.8975 -0.6901 -0.2697
   47CHL1   C20 3454   1.894   3.293   7.687 -0.3481  0.8070 -0.3192
   47CHL1   H20 3455   1.796   3.340   7.712 -0.5354  0.5604 -0.5895
   47CHL1   C21 3456   2.003   3.402   7.687  0.2517  0.1641  0.3104
   47CHL1  H21A 3457   1.970   3.487   7.624  0.8949  0.4543  0.3695
   47CHL1  H21B 3458   2.100   3.368   7.646  0.3463  1.1398 -0.2852
   47CHL1  H21C 3459   2.022   3.440   7.789 -1.0647  0.2585  0.5329
   47CHL1   C22 3460   1.928   3.186   7.796  0.0587  0.7498  0.3826
   47CHL1  H22A 3461   1.864   3.097   7.781  0.7964  0.5596 -1.9291
   47CHL1  H22B 3462   2.037   3.164   7.786  0.1994  1.4845  0.2324
   47CHL1   C23 3463   1.893   3.233   7.934 -0.7603  0.0069 -0.0396
   47CHL1  H23A 3464   1.929   3.338   7.944 -2.1120  0.5060 -0.2502
   47CHL1  H23B 3465   1.782   3.232   7.939 -0.8310  1.6683 -0.9812
   47CHL1   C24 3466   1.947   3.153   8.054 -0.3370  0.4842  0.0102
   47CHL1  H24A 3467   1.938   3.046   8.024 -0.1258 -0.1784  2.2155
   47CHL1  H24B 3468   2.057   3.163   8.059 -0.3812  1.1879 -0.4265
   47CHL1   C25 3469   1.868   3.178   8.192  0.7113 -0.4699  0.1495
   47CHL1   H25 3470   1.761   3.173   8.163  0.7292 -1.1170  0.1809
   47CHL1   C26 3471   1.899   3.078   8.297  0.0185 -0.2950  0.0655
   47CHL1  H26A 3472   1.902   2.974   8.258 -0.5575 -0.2665 -0.0580
   47CHL1  H26B 3473   1.999   3.102   8.340 -0.9269 -0.4240  2.3997
   47CHL1  H26C 3474   1.829   3.079   8.383 -0.9706  0.9879 -0.7451
   47CHL1   C27 3475   1.907   3.322   8.243 -0.5413 -0.4953 -0.7522
   47CHL1  H27A 3476   1.879   3.400   8.170 -0.8684 -0.9559 -1.1261
   47CHL1  H27B 3477   1.866   3.339   8.345 -0.0294  1.1646 -0.8056
   47CHL1  H27C 3478   2.014   3.331   8.272 -0.5590 -2.0136 -0.1648
   48CHL1    C3 3479   5.995   5.673   6.274  0.1027  0.8394  0.2980
   48CHL1    H3 3480   6.098   5.712   6.260  0.4438  0.4241  1.6359
   48CHL1    O3 3481   5.939   5.650   6.151 -0.6672 -0.1604  0.1135
   48CHL1   H3' 3482   5.954   5.732   6.103  0.9602 -0.9006 -0.6996
   48CHL1    C4 3483   5.994   5.537   6.354  0.3239 -0.5035 -0.2785
   48CHL1   H4A 3484   5.895   5.486   6.349  0.5869 -1.1699  1.1439
   48CHL1   H4B 3485   6.066   5.472   6.299  1.0107 -1.1843  1.3903
   48CHL1    C5 3486   6.041   5.554   6.491 -0.6119 -0.1204  0.6267
   48CHL1    C6 3487   6.150   5.489   6.535  0.1115 -0.0972 -0.3900
   48CHL1    H6 3488   6.203   5.424   6.463  1.1468 -0.2253  0.4693
   48CHL1    C7 3489   6.192   5.494   6.679  0.4469 -0.2266  0.5592
   48CHL1   H7A 3490   6.198   5.388   6.713  1.3055  0.1259  1.5471
   48CHL1   H7B 3491   6.291   5.544   6.685 -0.5183  1.8062 -0.2499
   48CHL1    C8 3492   6.082   5.549   6.779  0.2651  0.3115  0.3920
   48CHL1    H8 3493   6.002   5.474   6.797  0.2590  0.1424 -0.3520
   48CHL1   C14 3494   6.153   5.571   6.916  0.2217 -0.2901 -0.0035
   48CHL1   H14 3495   6.238   5.641   6.898 -0.4030  0.3930 -0.3346
   48CHL1   C15 3496   6.225   5.454   6.977  0.3406  0.4274  0.2088
   48CHL1  H15A 3497   6.157   5.366   6.973  0.6021  0.2521 -0.4115
   48CHL1  H15B 3498   6.327   5.444   6.933  0.1432 -1.8315  0.2184
   48CHL1   C16 3499   6.239   5.496   7.130  0.3449 -0.9459  1.2720
   48CHL1  H16A 3500   6.198   5.413   7.191 -3.4254  0.3693  0.6421
   48CHL1  H16B 3501   6.342   5.527   7.159  0.2991 -0.3635  0.8209
   48CHL1   C17 3502   6.157   5.623   7.149 -0.0403  0.0172 -0.2158
   48CHL1   H17 3503   6.224   5.711   7.146 -2.1125  1.5871 -1.2677
   48CHL1   C13 3504   6.064   5.633   7.023  0.4459  0.2562 -0.0801
   48CHL1   C18 3505   5.942   5.543   7.047  0.0467 -0.9349  0.6694
   48CHL1  H18A 3506   5.878   5.572   7.134 -1.5258 -3.2251  0.3061
   48CHL1  H18B 3507   5.883   5.536   6.954 -1.2307  1.5836  1.2455
   48CHL1  H18C 3508   5.962   5.437   7.074  2.3346 -0.3836  1.2261
   48CHL1   C12 3509   6.013   5.772   6.960  0.3100 -0.0452  0.0860
   48CHL1  H12A 3510   5.958   5.817   7.046  1.1413  0.7340  0.2234
   48CHL1  H12B 3511   6.106   5.833   6.950  0.0586  0.7402  2.1314
   48CHL1   C11 3512   5.943   5.761   6.829 -0.0799  0.2242  0.4736
   48CHL1  H11A 3513   5.842   5.717   6.845  0.4016 -1.4490 -0.8923
   48CHL1  H11B 3514   5.931   5.865   6.791 -0.8877 -0.1884 -0.4225
   48CHL1    C9 3515   6.026   5.679   6.720 -0.2460 -0.2554  0.2487
   48CHL1    H9 3516   6.117   5.740   6.702 -1.2851  1.0712 -0.5960
   48CHL1   C10 3517   5.961   5.653   6.583 -0.6949 -0.1469 -0.2205
   48CHL1   C19 3518   5.823   5.596   6.609  0.2150  0.1434  0.0438
   48CHL1  H19A 3519   5.753   5.676   6.643 -0.0311 -0.8949  2.0846
   48CHL1  H19B 3520   5.770   5.540   6.530 -1.1103  0.5604  0.6252
   48CHL1  H19C 3521   5.836   5.520   6.689 -0.1837  0.8477  0.7959
   48CHL1    C1 3522   5.945   5.783   6.501  0.1315 -0.5554 -0.0482
   48CHL1   H1A 3523   5.875   5.853   6.551  1.4226  0.9042 -0.2246
   48CHL1   H1B 3524   6.048   5.825   6.494  0.9764 -2.6437 -0.6266
   48CHL1    C2 3525   5.904   5.773   6.353 -0.0567 -0.1434 -0.3279
   48CHL1   H2A 3526   5.900   5.869   6.298 -1.0209 -0.2929 -0.5298
   48CHL1   H2B 3527   5.801   5.733   6.364 -0.2282  0.6175  0.8576
   48CHL1   C20 3528   6.086   5.631   7.283 -0.0291 -0.5730 -0.6369
   48CHL1   H20 3529   6.014   5.547   7.295  0.3085 -0.7631  0.1349
   48CHL1   C21 3530   6.004   5.762   7.306 -1.0157  0.1202 -0.1500
   48CHL1  H21A 3531   5.911   5.759   7.244 -0.7536 -1.4609 -0.4832
   48CHL1  H21B 3532   6.071   5.847   7.282  0.5081 -1.1567 -0.4662
   48CHL1  H21C 3533   5.980   5.776   7.414  3.4539 -1.9093  1.2133
   48CHL1   C22 3534   6.186   5.619   7.407 -0.2392 -0.0339 -0.0601
   48CHL1  H22A 3535   6.238   5.522   7.390  1.5475  0.7604  0.7689
   48CHL1  H22B 3536   6.250   5.710   7.410 -2.3257  1.5396 -1.9737
   48CHL1   C23 3537   6.123   5.615   7.546  0.5814 -0.1334  0.8089
   48CHL1  H23A 3538   6.073   5.712   7.565  0.0622 -0.3140  0.3497
   48CHL1  H23B 3539   6.046   5.536   7.548  0.3375  0.0595 -0.4569
   48CHL1   C24 3540   6.218   5.599   7.665 -0.3660 -0.3389 -0.0655
   48CHL1  H24A 3541   6.256   5.495   7.663  0.2547 -0.0992 -0.8921
   48CHL1  H24B 3542   6.300   5.671   7.645 -0.5883 -0.2327 -0.5964
   48CHL1   C25 3543   6.171   5.620   7.812  0.0374 -0.1754  0.0604
   48CHL1   H25 3544   6.097   5.545   7.847  0.7421 -0.7467  0.3300
   48CHL1   C26 3545   6.289   5.600   7.910  1.1425  0.5484 -0.1006
   48CHL1  H26A 3546   6.244   5.627   8.008  0.2681  1.8821 -0.8592
   48CHL1  H26B 3547   6.334   5.498   7.910 -1.0999 -0.4655 -0.1931
   48CHL1  H26C 3548   6.365   5.670   7.869  0.8236  0.4198 -0.9112
   48CHL1   C27 3549   6.125   5.760   7.838  0.3403 -0.4300 -0.4385
   48CHL1  H27A 3550   6.208   5.829   7.812  0.3728 -0.1944  0.2810
   48CHL1  H27B 3551   6.029   5.781   7.786 -2.5074 -1.3134  4.1967
   48CHL1  H27C 3552   6.106   5.774   7.947 -2.3425  2.4988 -1.2055
   49CHL1    C3 3553   5.030   6.786   6.855  0.0786  0.1486 -0.5813
   49CHL1    H3 3554   5.111   6.711   6.857 -1.4420 -1.5839 -2.5318
   49CHL1    O3 3555   5.003   6.818   6.725 -0.0680 -0.1791 -0.1958
   49CHL1   H3' 3556   4.949   6.745   6.691  0.3788 -0.5781 -0.0481
   49CHL1    C4 3557   4.908   6.746   6.932  0.2525  0.1964 -0.2072
   49CHL1   H4A 3558   4.842   6.834   6.924  2.1756  1.7051  0.1995
   49CHL1   H4B 3559   4.849   6.664   6.885  1.3375 -0.0932 -1.0853
   49CHL1    C5 3560   4.939   6.711   7.082  0.1793  0.0912 -0.9353
   49CHL1    C6 3561   4.903   6.591   7.129  1.0880 -1.1000 -0.1687
   49CHL1    H6 3562   4.833   6.529   7.071 -1.7265  1.3437  0.5355
   49CHL1    C7 3563   4.942   6.541   7.264 -0.6149  0.5559  0.1363
   49CHL1   H7A 3564   4.860   6.490   7.319 -0.1332  0.0812  0.4211
   49CHL1   H7B 3565   5.032   6.477   7.261 -1.6380 -0.8669 -0.5465
   49CHL1    C8 3566   4.984   6.665   7.353  0.3098  0.6656  0.5531
   49CHL1    H8 3567   4.894   6.721   7.386 -1.4070 -2.3748  1.2516
   49CHL1   C14 3568   5.039   6.613   7.483 -0.7454 -0.4137 -0.9507
   49CHL1   H14 3569   5.119   6.541   7.454  1.8266  2.0385 -0.2393
   49CHL1   C15 3570   4.941   6.535   7.570 -0.3434 -0.3168 -0.0826
   49CHL1  H15A 3571   4.844   6.588   7.581 -0.7645 -0.9233 -0.8103
   49CHL1  H15B 3572   4.922   6.439   7.517  0.6924  0.5375 -2.0699
   49CHL1   C16 3573   5.015   6.531   7.704  0.4874  0.5871  0.0479
   49CHL1  H16A 3574   4.941   6.533   7.787  0.5533  0.3689  0.1135
   49CHL1  H16B 3575   5.058   6.429   7.713 -1.5148 -0.1746  1.3836
   49CHL1   C17 3576   5.130   6.632   7.701 -0.2899  0.0477 -0.3814
   49CHL1   H17 3577   5.222   6.580   7.667 -1.1910 -0.5916 -1.8864
   49CHL1   C13 3578   5.087   6.720   7.581  0.2329  0.2469 -0.9638
   49CHL1   C18 3579   4.969   6.811   7.632 -0.5182 -0.0220  0.1340
   49CHL1  H18A 3580   4.902   6.765   7.708 -1.9453 -2.4880 -2.5244
   49CHL1  H18B 3581   5.017   6.898   7.681 -0.6852 -0.0969  0.4345
   49CHL1  H18C 3582   4.916   6.850   7.543  0.7386  2.1845  0.3270
   49CHL1   C12 3583   5.196   6.807   7.514 -0.4467 -0.1055 -0.3220
   49CHL1  H12A 3584   5.234   6.883   7.585 -1.7222 -1.4786  1.8858
   49CHL1  H12B 3585   5.280   6.734   7.508  0.0493  0.1490  2.7013
   49CHL1   C11 3586   5.151   6.867   7.381 -0.3086 -0.1682  0.4834
   49CHL1  H11A 3587   5.070   6.935   7.413 -0.7779 -0.5528  0.1172
   49CHL1  H11B 3588   5.228   6.921   7.321 -3.6326  1.1742 -2.7329
   49CHL1    C9 3589   5.090   6.754   7.287  0.2966 -0.5435 -0.0937
   49CHL1    H9 3590   5.175   6.687   7.264  0.5087  0.0341 -1.0332
   49CHL1   C10 3591   5.030   6.813   7.157  0.2057 -0.2897 -0.1105
   49CHL1   C19 3592   4.929   6.922   7.191  0.2854  0.1527  0.5466
   49CHL1  H19A 3593   4.888   6.980   7.106 -0.2756  0.9951  1.3819
   49CHL1  H19B 3594   4.845   6.890   7.257 -0.1995 -0.5572 -0.4112
   49CHL1  H19C 3595   4.973   7.000   7.257  1.7898 -1.0559  1.0071
   49CHL1    C1 3596   5.142   6.871   7.069  0.3197  0.6229  0.2471
   49CHL1   H1A 3597   5.189   6.960   7.116  2.5501 -0.7907  0.7839
   49CHL1   H1B 3598   5.219   6.793   7.057 -1.0618 -1.0296  1.7878
   49CHL1    C2 3599   5.095   6.907   6.927 -0.0141  0.1749 -0.4424
   49CHL1   H2A 3600   5.183   6.922   6.862  0.7325 -2.0928 -0.0130
   49CHL1   H2B 3601   5.033   6.999   6.938  2.2711  1.6432  0.4137
   49CHL1   C20 3602   5.166   6.690   7.837 -0.2019 -0.3547  0.0871
   49CHL1   H20 3603   5.079   6.751   7.870  1.7663  1.5000  1.9680
   49CHL1   C21 3604   5.282   6.794   7.831 -0.4165 -0.0514 -0.1903
   49CHL1  H21A 3605   5.253   6.889   7.782 -1.9920  0.5901  1.9152
   49CHL1  H21B 3606   5.378   6.766   7.783 -0.5749 -1.6079  0.3856
   49CHL1  H21C 3607   5.305   6.822   7.936  1.3773 -0.8005 -0.3689
   49CHL1   C22 3608   5.197   6.586   7.945  0.0081 -0.5423 -0.3220
   49CHL1  H22A 3609   5.106   6.522   7.947  1.2112 -2.4895 -3.8676
   49CHL1  H22B 3610   5.285   6.532   7.905  0.2260  1.4807 -2.6953
   49CHL1   C23 3611   5.208   6.630   8.087 -0.2382 -0.1955  0.0261
   49CHL1  H23A 3612   5.302   6.690   8.094 -1.8801  2.2606  1.7827
   49CHL1  H23B 3613   5.128   6.701   8.116 -0.1908 -0.0399 -0.2182
   49CHL1   C24 3614   5.203   6.512   8.185 -0.6456 -0.1873  0.2458
   49CHL1  H24A 3615   5.096   6.482   8.192 -1.1566  1.8162  1.6566
   49CHL1  H24B 3616   5.262   6.426   8.150  0.9243  0.5319  1.0806
   49CHL1   C25 3617   5.251   6.550   8.331 -0.3539 -0.7963  0.2200
   49CHL1   H25 3618   5.230   6.453   8.381  0.1321 -0.5394  0.9293
   49CHL1   C26 3619   5.400   6.584   8.347  0.0705 -0.1910  0.1700
   49CHL1  H26A 3620   5.458   6.508   8.291 -0.6364 -1.2823  0.8919
   49CHL1  H26B 3621   5.420   6.686   8.307  3.5151 -1.1401 -0.6682
   49CHL1  H26C 3622   5.418   6.591   8.456  0.3908  0.4370  0.0775
   49CHL1   C27 3623   5.167   6.667   8.389 -0.0751 -1.2512 -0.3888
   49CHL1  H27A 3624   5.062   6.638   8.368 -0.1228 -1.2189 -0.1925
   49CHL1  H27B 3625   5.176   6.682   8.498  1.8636  0.2197 -0.7237
   49CHL1  H27C 3626   5.182   6.770   8.349  0.3041  0.0577  2.9881
   50CHL1    C3 3627   5.524   1.210   6.844  0.2840 -0.3580  0.1422
   50CHL1    H3 3628   5.463   1.301   6.865 -2.3195 -2.0139 -0.0550
   50CHL1    O3 3629   5.538   1.203   6.708 -0.3693 -0.6684 -0.8426
   50CHL1   H3' 3630   5.562   1.111   6.696  2.4272 -0.4840  2.4112
   50CHL1    C4 3631   5.656   1.208   6.932 -0.6629 -0.2034  0.4135
   50CHL1   H4A 3632   5.712   1.130   6.876 -0.0780  0.4380  0.0813
   50CHL1   H4B 3633   5.706   1.307   6.917  1.0969 -1.1413 -0.1273
   50CHL1    C5 3634   5.634   1.183   7.082 -0.1185 -0.3269  0.0113
   50CHL1    C6 3635   5.685   1.260   7.183  0.3467 -0.2137 -0.7993
   50CHL1    H6 3636   5.739   1.352   7.154  0.1082 -0.4172 -1.9088
   50CHL1    C7 3637   5.683   1.241   7.326  0.5486 -0.6264 -0.6062
   50CHL1   H7A 3638   5.785   1.245   7.370  0.7707 -0.5256 -1.1336
   50CHL1   H7B 3639   5.619   1.314   7.381  2.0443 -0.8437  1.4900
   50CHL1    C8 3640   5.629   1.095   7.353  0.4052 -0.0964  0.2643
   50CHL1    H8 3641   5.716   1.028   7.339  1.6602  1.3637  0.9181
   50CHL1   C14 3642   5.575   1.093   7.495  0.0570 -0.6460 -0.5878
   50CHL1   H14 3643   5.483   1.154   7.491 -0.2705 -1.0358  0.6893
   50CHL1   C15 3644   5.667   1.158   7.602  0.4127  0.2045  0.2907
   50CHL1  H15A 3645   5.763   1.107   7.581  0.3888  0.2811  0.0027
   50CHL1  H15B 3646   5.662   1.269   7.599  1.7439  0.2636  0.2825
   50CHL1   C16 3647   5.601   1.116   7.737 -0.3361  0.7600 -0.1776
   50CHL1  H16A 3648   5.676   1.077   7.809 -0.4837  0.7873 -0.0095
   50CHL1  H16B 3649   5.542   1.198   7.783  0.4064  0.0743  2.0212
   50CHL1   C17 3650   5.500   1.001   7.697 -0.3677  0.4924  0.6404
   50CHL1   H17 3651   5.405   1.059   7.693 -1.3755 -1.1768 -0.5383
   50CHL1   C13 3652   5.524   0.957   7.550 -0.5414 -0.3859 -0.3839
   50CHL1   C18 3653   5.643   0.854   7.543  0.4272 -0.0934  0.8160
   50CHL1  H18A 3654   5.603   0.757   7.578  1.6425 -0.9841 -0.1886
   50CHL1  H18B 3655   5.683   0.836   7.440  0.2916  2.5709  0.2617
   50CHL1  H18C 3656   5.720   0.892   7.614 -0.0084 -0.0599  1.2694
   50CHL1   C12 3657   5.407   0.912   7.463 -0.5437 -0.1979 -0.0668
   50CHL1  H12A 3658   5.369   0.811   7.490  0.9538 -0.7947 -0.1382
   50CHL1  H12B 3659   5.321   0.976   7.490 -0.2842 -0.2994  1.0407
   50CHL1   C11 3660   5.445   0.921   7.308 -0.4666 -0.1281 -0.1019
   50CHL1  H11A 3661   5.527   0.847   7.296  1.2565  1.7682 -0.5181
   50CHL1  H11B 3662   5.359   0.902   7.241 -0.6722  1.9316 -0.4621
   50CHL1    C9 3663   5.510   1.053   7.260  0.7228 -0.4039  0.6013
   50CHL1    H9 3664   5.432   1.132   7.268  0.6391 -0.2567 -1.4807
   50CHL1   C10 3665   5.547   1.063   7.105  0.9496 -0.2673  0.2327
   50CHL1   C19 3666   5.623   0.928   7.059 -0.1771  0.2670 -0.3061
   50CHL1  H19A 3667   5.550   0.844   7.068 -1.8709  1.6995 -0.2858
   50CHL1  H19B 3668   5.659   0.932   6.954  0.0186  1.9547 -0.1927
   50CHL1  H19C 3669   5.701   0.904   7.134 -0.6484  0.0703  0.1298
   50CHL1    C1 3670   5.416   1.078   7.025  0.2671  0.1532 -0.3543
   50CHL1   H1A 3671   5.354   0.986   7.032  0.8774 -0.5215 -3.1129
   50CHL1   H1B 3672   5.363   1.164   7.072 -0.5874  0.2258 -1.4208
   50CHL1    C2 3673   5.442   1.090   6.876 -0.4118  0.1221 -0.3930
   50CHL1   H2A 3674   5.344   1.095   6.824 -1.8573  1.5009  2.4044
   50CHL1   H2B 3675   5.493   0.998   6.840  0.0536 -0.8663  2.6293
   50CHL1   C20 3676   5.489   0.890   7.803  0.4909 -0.9337  0.0592
   50CHL1   H20 3677   5.580   0.827   7.801 -0.1062 -1.8580  1.5368
   50CHL1   C21 3678   5.373   0.794   7.767 -0.0253  0.2173 -0.0588
   50CHL1  H21A 3679   5.278   0.845   7.742 -1.1042 -2.0778 -0.8315
   50CHL1  H21B 3680   5.354   0.720   7.848 -0.5324  0.9716  0.5100
   50CHL1  H21C 3681   5.395   0.727   7.680 -1.0093  0.2751 -0.3655
   50CHL1   C22 3682   5.459   0.938   7.947 -0.2178 -0.0444  0.1497
   50CHL1  H22A 3683   5.520   1.026   7.975 -0.6521  1.2035 -2.7021
   50CHL1  H22B 3684   5.353   0.971   7.951 -0.5484 -0.9967 -0.5456
   50CHL1   C23 3685   5.486   0.836   8.057  0.0316  0.7244 -0.5888
   50CHL1  H23A 3686   5.472   0.881   8.157  0.5622 -1.4364  0.4956
   50CHL1  H23B 3687   5.420   0.748   8.040  1.1216  0.3979 -3.4647
   50CHL1   C24 3688   5.634   0.786   8.058 -0.2785 -0.3056 -0.0289
   50CHL1  H24A 3689   5.650   0.710   7.978  1.2697 -0.7693  0.7051
   50CHL1  H24B 3690   5.702   0.869   8.032  1.0437 -1.7803 -1.3784
   50CHL1   C25 3691   5.688   0.728   8.188  0.6071 -0.4249  0.4501
   50CHL1   H25 3692   5.605   0.675   8.240  1.9669 -0.2869  2.8296
   50CHL1   C26 3693   5.804   0.621   8.175  0.2107 -0.1644 -0.5515
   50CHL1  H26A 3694   5.771   0.529   8.123 -2.8761 -0.3649  1.6254
   50CHL1  H26B 3695   5.892   0.668   8.125 -0.2684  0.2692 -0.9857
   50CHL1  H26C 3696   5.841   0.595   8.277  0.9259  0.8052 -0.5536
   50CHL1   C27 3697   5.744   0.829   8.281  0.5483 -0.4279  0.7722
   50CHL1  H27A 3698   5.835   0.877   8.242 -0.1337  0.6596  0.5048
   50CHL1  H27B 3699   5.670   0.908   8.307  1.3864  0.0778  1.6561
   50CHL1  H27C 3700   5.776   0.778   8.375 -1.5770  0.3369  1.9554
   51CHL1    C3 3701   5.504   6.731   6.909 -0.5444  0.0307  0.3422
   51CHL1    H3 3702   5.461   6.823   6.953  1.9191  2.2586 -1.7167
   51CHL1    O3 3703   5.494   6.732   6.765  0.5955  0.0054 -0.1718
   51CHL1   H3' 3704   5.447   6.652   6.740  1.6859 -0.2947 -1.3457
   51CHL1    C4 3705   5.656   6.727   6.940  0.0585 -0.0445  0.0409
   51CHL1   H4A 3706   5.700   6.627   6.916  0.7398 -0.2462  2.0441
   51CHL1   H4B 3707   5.710   6.810   6.891 -1.0784  0.2736 -0.6919
   51CHL1    C5 3708   5.676   6.734   7.094 -0.1289 -0.1782 -0.1390
   51CHL1    C6 3709   5.750   6.831   7.139 -0.7051 -0.3721 -0.7062
   51CHL1    H6 3710   5.807   6.896   7.071  1.3866 -0.9449  0.4562
   51CHL1    C7 3711   5.791   6.830   7.284  0.3495  0.5568  0.4035
   51CHL1   H7A 3712   5.902   6.839   7.289  0.4767  0.7227 -2.1127
   51CHL1   H7B 3713   5.749   6.923   7.328  1.3580 -0.1692  2.9386
   51CHL1    C8 3714   5.737   6.701   7.361 -0.2598  0.1942  0.4570
   51CHL1    H8 3715   5.818   6.628   7.339  0.2304  0.8298  0.1439
   51CHL1   C14 3716   5.734   6.732   7.505  0.1958 -0.2262 -0.6642
   51CHL1   H14 3717   5.658   6.811   7.517  0.3624 -0.2364  0.5455
   51CHL1   C15 3718   5.856   6.802   7.570 -0.1739  0.5420  0.2216
   51CHL1  H15A 3719   5.948   6.746   7.542 -1.7001 -1.4665 -0.9415
   51CHL1  H15B 3720   5.854   6.906   7.533  1.4977  0.2825 -0.6459
   51CHL1   C16 3721   5.828   6.791   7.719 -0.3947 -0.0463  0.5962
   51CHL1  H16A 3722   5.921   6.767   7.775 -0.9501  0.6549  1.8424
   51CHL1  H16B 3723   5.799   6.893   7.751  0.1770  1.6192 -3.7996
   51CHL1   C17 3724   5.715   6.687   7.734 -0.4927  0.5171 -0.3282
   51CHL1   H17 3725   5.625   6.746   7.760 -1.0559 -1.3701  2.2407
   51CHL1   C13 3726   5.694   6.617   7.602  0.1331  0.7606 -0.1111
   51CHL1   C18 3727   5.806   6.506   7.581  1.0482 -0.3564  0.3902
   51CHL1  H18A 3728   5.828   6.481   7.475  0.4584  1.0153 -0.0561
   51CHL1  H18B 3729   5.896   6.539   7.636 -0.2915  3.3888  0.4331
   51CHL1  H18C 3730   5.762   6.415   7.628 -1.3210  0.5212 -0.0173
   51CHL1   C12 3731   5.550   6.574   7.560 -0.1302  0.2567 -0.1524
   51CHL1  H12A 3732   5.518   6.487   7.621 -0.9434  0.0528 -0.8666
   51CHL1  H12B 3733   5.490   6.666   7.576  0.6877  1.3890 -3.1594
   51CHL1   C11 3734   5.541   6.540   7.411 -0.3976  0.6447  0.0045
   51CHL1  H11A 3735   5.603   6.450   7.393 -1.6214 -0.4108  0.9637
   51CHL1  H11B 3736   5.432   6.532   7.391 -0.5434  0.1633  0.9546
   51CHL1    C9 3737   5.598   6.650   7.315 -1.3510 -0.3837  0.6945
   51CHL1    H9 3738   5.529   6.734   7.337 -1.5317 -0.3900  0.1469
   51CHL1   C10 3739   5.601   6.620   7.165 -0.6448 -0.1233  0.6355
   51CHL1   C19 3740   5.678   6.489   7.149 -0.9603  0.2866  0.4057
   51CHL1  H19A 3741   5.623   6.406   7.200  1.4439 -2.2014 -0.9296
   51CHL1  H19B 3742   5.684   6.447   7.046 -0.0096  0.2900  0.4542
   51CHL1  H19C 3743   5.774   6.485   7.204 -0.3374 -1.3396 -0.7721
   51CHL1    C1 3744   5.456   6.603   7.116  0.5927 -0.6386  0.2120
   51CHL1   H1A 3745   5.410   6.511   7.158 -3.0097  0.9571 -0.0434
   51CHL1   H1B 3746   5.388   6.676   7.165 -0.2587 -1.9879  1.0968
   51CHL1    C2 3747   5.434   6.607   6.963  1.1866 -0.6467  0.5409
   51CHL1   H2A 3748   5.329   6.595   6.929  0.8819  0.3697  1.0933
   51CHL1   H2B 3749   5.488   6.518   6.926 -0.0288 -1.1502 -0.0654
   51CHL1   C20 3750   5.733   6.598   7.863  0.5003 -0.9586  0.0208
   51CHL1   H20 3751   5.820   6.528   7.863  0.9784 -0.3698  0.0655
   51CHL1   C21 3752   5.601   6.517   7.879 -0.1746  0.0582  0.0649
   51CHL1  H21A 3753   5.592   6.447   7.794 -0.9481  0.1467  0.0783
   51CHL1  H21B 3754   5.511   6.582   7.877  0.0759  0.3595 -1.7070
   51CHL1  H21C 3755   5.606   6.453   7.970 -2.8324 -1.8372 -1.0760
   51CHL1   C22 3756   5.768   6.673   7.994  0.2147 -0.1841 -0.1746
   51CHL1  H22A 3757   5.774   6.596   8.074 -1.2264 -0.8737 -0.6977
   51CHL1  H22B 3758   5.870   6.715   7.989  0.1605  0.0327  0.4810
   51CHL1   C23 3759   5.668   6.786   8.027 -0.0921 -0.4556 -0.2191
   51CHL1  H23A 3760   5.646   6.856   7.944  1.3308 -1.3207 -1.3407
   51CHL1  H23B 3761   5.566   6.742   8.037 -0.3690  0.2154 -0.0500
   51CHL1   C24 3762   5.697   6.856   8.160 -0.1732  0.1060 -0.3403
   51CHL1  H24A 3763   5.603   6.874   8.216  0.9066 -1.2066  1.9283
   51CHL1  H24B 3764   5.751   6.793   8.233 -2.1726  1.2456  2.2097
   51CHL1   C25 3765   5.767   6.991   8.144 -0.5889  0.0299  0.6840
   51CHL1   H25 3766   5.709   7.063   8.083 -0.7753 -0.3224  0.4371
   51CHL1   C26 3767   5.790   7.056   8.284 -0.1517 -0.0767  0.1524
   51CHL1  H26A 3768   5.845   6.980   8.344  1.2292  0.7066 -0.0904
   51CHL1  H26B 3769   5.845   7.152   8.273  1.9062 -1.2440 -0.0134
   51CHL1  H26C 3770   5.686   7.068   8.322 -0.0459  1.3792 -0.0114
   51CHL1   C27 3771   5.905   6.979   8.076 -0.3798 -0.1386  0.5205
   51CHL1  H27A 3772   5.967   7.063   8.113  0.4237 -0.9433  1.0195
   51CHL1  H27B 3773   5.957   6.883   8.096 -1.3277 -0.8771 -0.5080
   51CHL1  H27C 3774   5.889   6.977   7.966  0.9779 -2.2382  0.3257
   52CHL1    C3 3775   0.542   1.667   6.934  0.3700 -0.8035 -0.4988
   52CHL1    H3 3776   0.499   1.769   6.923 -1.6252 -1.6640 -0.8027
   52CHL1    O3 3777   0.488   1.593   6.825  0.4392 -0.1214 -0.2523
   52CHL1   H3' 3778   0.466   1.502   6.845 -3.3181  1.1387  1.9297
   52CHL1    C4 3779   0.692   1.681   6.914 -0.1172 -0.3169  0.6154
   52CHL1   H4A 3780   0.731   1.589   6.866 -0.3038  0.5690 -1.3179
   52CHL1   H4B 3781   0.703   1.763   6.840 -0.0401 -2.4722 -1.8312
   52CHL1    C5 3782   0.781   1.734   7.027 -0.4280  0.6273  0.8473
   52CHL1    C6 3783   0.879   1.828   7.012  0.3010 -0.1502  0.0435
   52CHL1    H6 3784   0.882   1.879   6.915 -0.5596  0.0943  0.1333
   52CHL1    C7 3785   0.975   1.853   7.117  0.0568  0.3315 -0.2402
   52CHL1   H7A 3786   1.073   1.838   7.067 -0.9109 -3.3604 -1.1511
   52CHL1   H7B 3787   0.963   1.952   7.166  0.4106  0.9387 -1.3571
   52CHL1    C8 3788   0.970   1.756   7.242  0.1892  0.7254 -0.5967
   52CHL1    H8 3789   1.009   1.655   7.218 -1.6538  0.0522 -0.8087
   52CHL1   C14 3790   1.048   1.811   7.365 -0.3604 -0.1336  0.5444
   52CHL1   H14 3791   1.003   1.911   7.382  0.8116  0.6549 -0.9325
   52CHL1   C15 3792   1.200   1.825   7.357 -0.3556 -0.5395 -0.6615
   52CHL1  H15A 3793   1.235   1.732   7.307  0.2208 -1.0704  0.7011
   52CHL1  H15B 3794   1.233   1.907   7.290  0.4412  0.5366  1.0142
   52CHL1   C16 3795   1.245   1.820   7.504  0.1985 -0.8756  0.3163
   52CHL1  H16A 3796   1.325   1.744   7.511 -1.0446 -2.1393  1.0938
   52CHL1  H16B 3797   1.290   1.918   7.531 -1.2611  0.2913 -1.3413
   52CHL1   C17 3798   1.121   1.804   7.589  0.3655  0.2158 -0.4926
   52CHL1   H17 3799   1.069   1.902   7.602 -0.9444 -0.6412  0.9585
   52CHL1   C13 3800   1.020   1.736   7.493 -0.0863 -0.6783 -0.2268
   52CHL1   C18 3801   1.072   1.589   7.482  0.2380  0.8517 -0.5610
   52CHL1  H18A 3802   1.181   1.578   7.498  0.2277  1.2698 -0.2040
   52CHL1  H18B 3803   1.017   1.523   7.551  1.7365 -0.2427 -0.4007
   52CHL1  H18C 3804   1.051   1.532   7.388  0.6566 -1.0987  0.5095
   52CHL1   C12 3805   0.873   1.739   7.525  0.6021 -0.1095  0.7654
   52CHL1  H12A 3806   0.855   1.674   7.614 -1.4565 -1.2011 -0.4075
   52CHL1  H12B 3807   0.832   1.840   7.547  1.6554  0.6136 -0.5480
   52CHL1   C11 3808   0.784   1.668   7.412 -0.3588  0.6389  0.3299
   52CHL1  H11A 3809   0.802   1.559   7.419 -3.8331  0.0954  1.2933
   52CHL1  H11B 3810   0.677   1.685   7.434 -0.5593 -0.0588 -0.0903
   52CHL1    C9 3811   0.818   1.732   7.277  0.3939 -0.5327  0.0958
   52CHL1    H9 3812   0.774   1.834   7.285  1.6930 -0.0793  1.7180
   52CHL1   C10 3813   0.749   1.661   7.159  0.4938  0.3625 -0.0949
   52CHL1   C19 3814   0.790   1.510   7.147 -0.1799  0.1295  0.0751
   52CHL1  H19A 3815   0.739   1.453   7.227  0.8719 -2.1220 -0.8270
   52CHL1  H19B 3816   0.751   1.461   7.056  0.2169 -2.6959  1.3851
   52CHL1  H19C 3817   0.898   1.487   7.159 -0.2850  0.2113  1.2597
   52CHL1    C1 3818   0.595   1.668   7.181 -0.0514  0.2588 -0.3400
   52CHL1   H1A 3819   0.562   1.618   7.275  0.0414  1.0840  0.1468
   52CHL1   H1B 3820   0.567   1.773   7.205  2.5641  0.5530  1.6230
   52CHL1    C2 3821   0.512   1.609   7.070 -0.8157  0.1822 -0.5289
   52CHL1   H2A 3822   0.404   1.621   7.092 -1.0834  1.3377 -2.4071
   52CHL1   H2B 3823   0.539   1.501   7.078  2.3109  1.0218  1.4110
   52CHL1   C20 3824   1.123   1.755   7.738  0.0370  0.1788  0.0217
   52CHL1   H20 3825   1.083   1.651   7.738  1.3442 -0.3461  0.2452
   52CHL1   C21 3826   1.022   1.839   7.817  0.9894  0.2107  0.1124
   52CHL1  H21A 3827   0.926   1.862   7.766  0.4378  0.4459  1.2486
   52CHL1  H21B 3828   1.066   1.934   7.853 -2.9568  1.9177  0.6223
   52CHL1  H21C 3829   0.999   1.789   7.913 -0.1555  1.6414  0.6042
   52CHL1   C22 3830   1.260   1.757   7.798 -0.3385  0.0280 -0.3523
   52CHL1  H22A 3831   1.309   1.670   7.750  1.1080  1.0640 -0.7921
   52CHL1  H22B 3832   1.308   1.853   7.768  0.0402 -0.9091 -2.8716
   52CHL1   C23 3833   1.259   1.744   7.948  0.6975  0.4257  0.4828
   52CHL1  H23A 3834   1.197   1.822   7.997 -0.5400 -2.4137  3.5962
   52CHL1  H23B 3835   1.223   1.641   7.965 -0.7699  0.4207 -2.4496
   52CHL1   C24 3836   1.392   1.757   8.011  0.4884  0.3543  0.7176
   52CHL1  H24A 3837   1.455   1.673   7.976 -0.1792  0.7741 -1.5554
   52CHL1  H24B 3838   1.439   1.852   7.976 -1.7982  0.0963 -3.4548
   52CHL1   C25 3839   1.392   1.755   8.166 -0.5251  0.1806 -1.0362
   52CHL1   H25 3840   1.321   1.832   8.205 -1.1426 -1.1985  0.6113
   52CHL1   C26 3841   1.362   1.618   8.234  0.0380  0.5298  0.3071
   52CHL1  H26A 3842   1.333   1.642   8.338  0.3987  2.9051 -0.1131
   52CHL1  H26B 3843   1.276   1.561   8.193 -1.2571  1.5160  1.6310
   52CHL1  H26C 3844   1.442   1.540   8.237  0.7606  1.3138  1.7839
   52CHL1   C27 3845   1.532   1.799   8.219  0.6295  0.0873  0.4211
   52CHL1  H27A 3846   1.520   1.814   8.329  1.4299 -0.5824  0.5963
   52CHL1  H27B 3847   1.615   1.730   8.196 -0.1070 -1.3745  2.0251
   52CHL1  H27C 3848   1.550   1.901   8.178 -0.0190 -0.7090 -1.9417
   53CHL1    C3 3849   3.253   4.532   7.192 -0.2248 -0.8657  0.3385
   53CHL1    H3 3850   3.305   4.630   7.185 -3.0673  0.8396  2.1250
   53CHL1    O3 3851   3.248   4.459   7.065  0.0878  0.0507  0.1761
   53CHL1   H3' 3852   3.212   4.514   6.994 -2.7007 -3.3480 -1.1860
   53CHL1    C4 3853   3.321   4.449   7.295 -0.0387  0.5025 -0.8838
   53CHL1   H4A 3854   3.267   4.352   7.289 -1.6240  1.3391 -0.3586
   53CHL1   H4B 3855   3.421   4.412   7.266  1.1897  1.9813  1.3425
   53CHL1    C5 3856   3.313   4.500   7.435 -0.2294 -0.1519 -0.1349
   53CHL1    C6 3857   3.425   4.524   7.506  0.1152 -0.3414 -0.2036
   53CHL1    H6 3858   3.526   4.510   7.465  0.1985 -3.9852  0.9941
   53CHL1    C7 3859   3.421   4.581   7.650  0.1816 -0.7138  0.3631
   53CHL1   H7A 3860   3.477   4.502   7.704  2.1576 -0.5701 -1.3792
   53CHL1   H7B 3861   3.463   4.683   7.662  2.2848 -1.7358  1.9539
   53CHL1    C8 3862   3.288   4.579   7.724  0.4501 -0.1447  0.5989
   53CHL1    H8 3863   3.262   4.476   7.757 -1.2609  0.2237  0.4307
   53CHL1   C14 3864   3.278   4.667   7.849 -0.4320 -0.5574  0.5812
   53CHL1   H14 3865   3.303   4.773   7.829  0.0684 -0.9227 -0.7723
   53CHL1   C15 3866   3.393   4.642   7.962  0.0172 -0.2907 -0.3117
   53CHL1  H15A 3867   3.394   4.533   7.984 -0.9808 -0.0615  0.9433
   53CHL1  H15B 3868   3.493   4.674   7.925  0.0927  0.0143  0.1547
   53CHL1   C16 3869   3.332   4.704   8.086  0.8614  0.5370  1.1154
   53CHL1  H16A 3870   3.329   4.629   8.168  0.5783 -1.6902 -0.8814
   53CHL1  H16B 3871   3.386   4.798   8.111  3.3797 -0.1724 -1.4493
   53CHL1   C17 3872   3.185   4.752   8.055 -0.5612 -0.1392 -0.7439
   53CHL1   H17 3873   3.178   4.857   8.018 -3.2006 -0.2513 -0.7052
   53CHL1   C13 3874   3.144   4.673   7.923 -0.2901 -0.0065 -0.0136
   53CHL1   C18 3875   3.106   4.534   7.958  0.2400 -0.0534 -0.3485
   53CHL1  H18A 3876   3.002   4.545   7.998  0.1042 -1.5432 -0.2424
   53CHL1  H18B 3877   3.112   4.452   7.883 -1.6233  0.7326 -1.3920
   53CHL1  H18C 3878   3.168   4.494   8.041  2.5080  0.4212 -1.7960
   53CHL1   C12 3879   3.049   4.743   7.828  0.2935  0.0577  0.7948
   53CHL1  H12A 3880   2.945   4.735   7.867 -0.9013 -1.8600 -2.5832
   53CHL1  H12B 3881   3.089   4.842   7.798 -1.8440  0.4378 -0.9619
   53CHL1   C11 3882   3.050   4.662   7.695 -0.0823 -0.3753 -0.0048
   53CHL1  H11A 3883   3.000   4.568   7.729 -0.5251  0.3290  1.3518
   53CHL1  H11B 3884   2.978   4.704   7.622 -0.1111  0.2323  0.3746
   53CHL1    C9 3885   3.184   4.626   7.627  0.2945  0.1011 -0.0965
   53CHL1    H9 3886   3.222   4.724   7.591 -2.4983  0.4985 -2.1077
   53CHL1   C10 3887   3.178   4.537   7.494 -0.3377  0.5900 -0.0462
   53CHL1   C19 3888   3.114   4.406   7.529 -0.4282 -0.8443  0.5005
   53CHL1  H19A 3889   3.012   4.437   7.560  1.2330  1.7936  3.6079
   53CHL1  H19B 3890   3.100   4.340   7.440 -0.6076 -1.7656  1.1994
   53CHL1  H19C 3891   3.173   4.353   7.607 -0.5347  0.9058  1.7952
   53CHL1    C1 3892   3.105   4.618   7.384 -0.0803 -0.1108  0.3550
   53CHL1   H1A 3893   3.005   4.642   7.427  0.5962  0.7496  1.4794
   53CHL1   H1B 3894   3.151   4.719   7.375  1.9105 -1.0538 -0.2321
   53CHL1    C2 3895   3.110   4.564   7.238 -0.5607 -0.5887 -0.8885
   53CHL1   H2A 3896   3.058   4.634   7.170 -0.0578 -1.4419 -2.1806
   53CHL1   H2B 3897   3.052   4.469   7.242 -1.0079 -0.3352 -1.3425
   53CHL1   C20 3898   3.091   4.749   8.174  0.4550  1.1647 -0.2875
   53CHL1   H20 3899   3.099   4.645   8.213 -0.2793  0.9672 -0.6423
   53CHL1   C21 3900   2.942   4.774   8.127 -0.9266 -0.1252 -0.0410
   53CHL1  H21A 3901   2.866   4.803   8.203  1.1118  1.2638  1.4921
   53CHL1  H21B 3902   2.893   4.687   8.078 -1.3888  1.1441 -1.9162
   53CHL1  H21C 3903   2.945   4.862   8.059 -1.0435 -0.5970 -0.6706
   53CHL1   C22 3904   3.131   4.849   8.283  0.7313 -0.8613  0.2384
   53CHL1  H22A 3905   3.238   4.860   8.309  0.0814  2.5954  1.7593
   53CHL1  H22B 3906   3.102   4.952   8.251  0.1943 -0.7595  1.0255
   53CHL1   C23 3907   3.053   4.825   8.415 -0.0901  0.1071  0.0336
   53CHL1  H23A 3908   2.947   4.832   8.384  0.1986  1.1073 -0.7507
   53CHL1  H23B 3909   3.085   4.728   8.460  1.3822  1.8243  2.8592
   53CHL1   C24 3910   3.078   4.940   8.511  0.0098 -0.0430  0.5884
   53CHL1  H24A 3911   3.188   4.949   8.525  0.2496  1.9920 -2.0522
   53CHL1  H24B 3912   3.037   5.025   8.451  0.0868 -0.4727 -0.0784
   53CHL1   C25 3913   3.012   4.924   8.649  0.5663  0.6362 -0.2923
   53CHL1   H25 3914   3.055   4.830   8.690  0.9730  0.7789 -0.3915
   53CHL1   C26 3915   3.056   5.047   8.737 -0.3386 -0.6229  0.5153
   53CHL1  H26A 3916   3.166   5.055   8.753 -0.2185  0.8242 -0.8706
   53CHL1  H26B 3917   3.013   5.142   8.698 -1.1434 -0.4823  1.7392
   53CHL1  H26C 3918   3.011   5.036   8.838  0.6459 -1.6819  0.8531
   53CHL1   C27 3919   2.861   4.931   8.652 -0.3782 -0.1374 -0.0376
   53CHL1  H27A 3920   2.810   5.029   8.635 -0.0311 -0.2177 -1.5734
   53CHL1  H27B 3921   2.824   4.864   8.571 -0.6435 -1.0356  0.8212
   53CHL1  H27C 3922   2.828   4.891   8.750 -1.1084 -1.6361 -0.8803
   54CHL1    C3 3923   3.558   6.314   7.031 -0.4712  0.3598  0.2634
   54CHL1    H3 3924   3.487   6.229   7.033  0.0126 -0.0870 -1.0178
   54CHL1    O3 3925   3.590   6.339   6.902  0.0791 -0.2803 -0.0826
   54CHL1   H3' 3926   3.621   6.250   6.879 -0.8502 -0.0501 -2.3819
   54CHL1    C4 3927   3.495   6.440   7.092 -0.2437 -0.5216  0.4277
   54CHL1   H4A 3928   3.574   6.516   7.070 -0.5777 -0.8544 -2.1751
   54CHL1   H4B 3929   3.406   6.466   7.030 -0.7632 -3.4746 -0.1422
   54CHL1    C5 3930   3.470   6.426   7.242  0.5533 -0.8983  0.4480
   54CHL1    C6 3931   3.352   6.445   7.297  0.3580  0.5378 -0.3894
   54CHL1    H6 3932   3.262   6.464   7.237  0.0059 -2.6029 -0.9402
   54CHL1    C7 3933   3.330   6.458   7.446  0.3756  0.8501 -0.1399
   54CHL1   H7A 3934   3.256   6.537   7.470 -0.4935 -0.3316  1.1652
   54CHL1   H7B 3935   3.276   6.365   7.475  2.4279 -0.2789  0.1520
   54CHL1    C8 3936   3.461   6.473   7.520 -0.4186  0.5201 -0.5485
   54CHL1    H8 3937   3.508   6.574   7.516  3.6892 -1.3298 -1.9404
   54CHL1   C14 3938   3.427   6.442   7.668 -0.2222  0.1184  0.0610
   54CHL1   H14 3939   3.378   6.342   7.673 -0.3421  0.1131 -1.0025
   54CHL1   C15 3940   3.318   6.530   7.729 -0.0053  0.6079 -0.1526
   54CHL1  H15A 3941   3.334   6.638   7.708  1.0963  0.4628 -0.0837
   54CHL1  H15B 3942   3.216   6.494   7.704  0.5992 -2.3474  1.3606
   54CHL1   C16 3943   3.351   6.518   7.882 -0.7105  0.2044 -0.1675
   54CHL1  H16A 3944   3.385   6.617   7.918 -0.5072  0.7529 -1.8360
   54CHL1  H16B 3945   3.254   6.491   7.931 -0.0465 -1.6294  0.1808
   54CHL1   C17 3946   3.463   6.415   7.896 -0.7847 -0.1651  0.5828
   54CHL1   H17 3947   3.421   6.312   7.889  0.0771 -0.4409 -0.7123
   54CHL1   C13 3948   3.545   6.436   7.764  0.7264  1.2379  0.1347
   54CHL1   C18 3949   3.615   6.573   7.772  0.8910 -0.1486 -0.5364
   54CHL1  H18A 3950   3.657   6.603   7.674 -0.2888  0.9646 -0.7148
   54CHL1  H18B 3951   3.550   6.654   7.811  2.2383 -1.4495  4.8744
   54CHL1  H18C 3952   3.693   6.563   7.850  1.5210 -1.8385 -1.3534
   54CHL1   C12 3953   3.632   6.324   7.720  0.5382  0.0902  0.1632
   54CHL1  H12A 3954   3.727   6.313   7.777  0.0721  0.0719  0.9553
   54CHL1  H12B 3955   3.576   6.228   7.718  0.8661 -0.0605 -2.0532
   54CHL1   C11 3956   3.680   6.345   7.568 -0.2319  0.6222 -0.5514
   54CHL1  H11A 3957   3.751   6.430   7.564  1.1454 -0.5368 -1.5439
   54CHL1  H11B 3958   3.747   6.265   7.530 -1.8968 -0.4578 -1.2649
   54CHL1    C9 3959   3.563   6.374   7.472 -0.6867  0.2721  0.7498
   54CHL1    H9 3960   3.508   6.278   7.483  1.7360 -1.1463  0.9302
   54CHL1   C10 3961   3.599   6.396   7.324  0.1222 -0.4068  0.2801
   54CHL1   C19 3962   3.679   6.522   7.318  0.3033  0.7344  0.2323
   54CHL1  H19A 3963   3.762   6.536   7.389  0.0041  3.5260  0.0767
   54CHL1  H19B 3964   3.731   6.531   7.220 -1.9841  0.6231 -1.0240
   54CHL1  H19C 3965   3.613   6.612   7.322  0.4521  0.9767 -2.0093
   54CHL1    C1 3966   3.675   6.272   7.262  0.8228  0.0060  0.5610
   54CHL1   H1A 3967   3.781   6.273   7.296  1.1719 -0.1008 -0.5175
   54CHL1   H1B 3968   3.622   6.179   7.291 -0.6359  0.6899  0.1134
   54CHL1    C2 3969   3.686   6.273   7.100  0.0626 -0.6019  0.2550
   54CHL1   H2A 3970   3.719   6.175   7.060  2.0673 -0.2792  1.1056
   54CHL1   H2B 3971   3.759   6.352   7.076 -1.3670  0.4467 -0.7468
   54CHL1   C20 3972   3.542   6.431   8.028  0.3252 -0.1210  0.1085
   54CHL1   H20 3973   3.593   6.529   8.018  1.3723 -0.4881  1.6545
   54CHL1   C21 3974   3.652   6.319   8.040 -0.4162  0.0004 -0.3276
   54CHL1  H21A 3975   3.611   6.217   8.025 -0.0885 -0.5098  2.1812
   54CHL1  H21B 3976   3.701   6.332   8.139 -2.2907  2.1469  0.3442
   54CHL1  H21C 3977   3.738   6.343   7.973  0.4570  1.0683  1.1560
   54CHL1   C22 3978   3.452   6.437   8.154 -0.2862 -0.0719  0.1642
   54CHL1  H22A 3979   3.395   6.533   8.156  0.1884  0.2482 -1.2365
   54CHL1  H22B 3980   3.374   6.359   8.149 -2.1315  1.7593 -0.5598
   54CHL1   C23 3981   3.525   6.440   8.292  0.1159 -0.7175  0.0680
   54CHL1  H23A 3982   3.441   6.450   8.364 -0.0675  1.0529 -0.3671
   54CHL1  H23B 3983   3.577   6.344   8.308  0.6929 -0.3107  0.6389
   54CHL1   C24 3984   3.619   6.556   8.320  0.8854 -0.7738  0.5170
   54CHL1  H24A 3985   3.692   6.566   8.237  0.3743 -3.0353 -0.2534
   54CHL1  H24B 3986   3.548   6.641   8.330  0.7154 -0.7807 -0.6001
   54CHL1   C25 3987   3.694   6.537   8.448 -0.3202 -0.2359 -0.3145
   54CHL1   H25 3988   3.738   6.435   8.451  3.1990  1.2104  0.4815
   54CHL1   C26 3989   3.807   6.638   8.464  0.1951 -0.0578  0.4466
   54CHL1  H26A 3990   3.864   6.614   8.557 -0.7590  1.2276  1.3797
   54CHL1  H26B 3991   3.874   6.632   8.375 -1.8588  0.6127 -1.1661
   54CHL1  H26C 3992   3.758   6.738   8.468  1.0077  0.3568  0.2916
   54CHL1   C27 3993   3.600   6.548   8.578 -0.3520  0.0340 -0.5629
   54CHL1  H27A 3994   3.649   6.546   8.678  0.5131 -1.3067 -0.9897
   54CHL1  H27B 3995   3.556   6.649   8.571 -4.4658 -1.8260 -3.2761
   54CHL1  H27C 3996   3.517   6.475   8.570 -0.0188 -0.4125 -0.0754
   55CHL1    C3 3997   3.511   0.949   7.095 -0.6872 -0.5223 -0.3934
   55CHL1    H3 3998   3.517   0.847   7.052 -2.7983 -1.7035  2.0169
   55CHL1    O3 3999   3.542   1.041   6.989 -0.0036  0.1031 -0.1056
   55CHL1   H3' 4000   3.638   1.037   6.984  0.0051  1.8604 -1.4906
   55CHL1    C4 4001   3.367   0.973   7.134  0.2231 -0.8302 -0.2132
   55CHL1   H4A 4002   3.337   1.080   7.138 -0.7688 -1.0186 -2.0972
   55CHL1   H4B 4003   3.299   0.953   7.048  1.7296 -1.3353 -1.3080
   55CHL1    C5 4004   3.317   0.906   7.262  0.4589  0.9985  0.0874
   55CHL1    C6 4005   3.214   0.828   7.266  0.0939 -0.5314  1.1466
   55CHL1    H6 4006   3.154   0.811   7.175  1.7771  2.4964 -0.6249
   55CHL1    C7 4007   3.160   0.761   7.385  0.5682  0.3593 -0.4668
   55CHL1   H7A 4008   3.049   0.764   7.392  0.4537  1.8092 -2.4549
   55CHL1   H7B 4009   3.185   0.654   7.367 -1.3739 -0.4022  1.1786
   55CHL1    C8 4010   3.219   0.811   7.520 -0.5192  0.5847 -0.1667
   55CHL1    H8 4011   3.177   0.907   7.555 -1.6487  0.3264 -0.7925
   55CHL1   C14 4012   3.184   0.711   7.627 -0.6225 -0.1859 -0.6985
   55CHL1   H14 4013   3.216   0.615   7.582  1.9831  0.3224 -0.0238
   55CHL1   C15 4014   3.039   0.694   7.660 -1.0548 -0.4470 -0.5939
   55CHL1  H15A 4015   3.007   0.798   7.684  3.4648  0.3032  2.6440
   55CHL1  H15B 4016   2.977   0.652   7.577  0.2732 -2.5790 -0.5519
   55CHL1   C16 4017   3.040   0.602   7.785  0.4175 -1.0310  0.1482
   55CHL1  H16A 4018   2.959   0.623   7.857  0.4311  2.1794 -0.6879
   55CHL1  H16B 4019   3.027   0.495   7.759  1.0166 -1.0599 -0.0547
   55CHL1   C17 4020   3.178   0.625   7.850  0.1039 -1.0821  0.0975
   55CHL1   H17 4021   3.240   0.535   7.827  1.0115 -0.3971 -0.1944
   55CHL1   C13 4022   3.247   0.734   7.764  0.2961  0.7503  0.4227
   55CHL1   C18 4023   3.211   0.873   7.820 -0.0047 -0.1866 -0.0773
   55CHL1  H18A 4024   3.266   0.886   7.915 -1.6018  1.5826  0.6311
   55CHL1  H18B 4025   3.233   0.959   7.753  0.3873 -2.2870 -2.7621
   55CHL1  H18C 4026   3.104   0.883   7.849  0.1674  2.0452 -0.1455
   55CHL1   C12 4027   3.400   0.730   7.747 -0.0840 -0.4172  0.3354
   55CHL1  H12A 4028   3.461   0.743   7.838  2.0191 -1.2320 -0.9042
   55CHL1  H12B 4029   3.436   0.631   7.709 -0.3232  0.1355 -1.3945
   55CHL1   C11 4030   3.452   0.829   7.637 -0.0271 -0.6902  0.0869
   55CHL1  H11A 4031   3.450   0.930   7.681  3.6628 -1.4179  2.1801
   55CHL1  H11B 4032   3.561   0.810   7.624  0.3747  1.1188  0.6829
   55CHL1    C9 4033   3.371   0.819   7.496  0.2027  0.1377 -0.9118
   55CHL1    H9 4034   3.406   0.718   7.465 -0.5425 -1.2232  2.4754
   55CHL1   C10 4035   3.401   0.921   7.386  0.2149  0.4215 -0.5927
   55CHL1   C19 4036   3.404   1.067   7.436  0.5099 -0.1017  0.1080
   55CHL1  H19A 4037   3.490   1.077   7.505  0.0693 -4.5012  1.4261
   55CHL1  H19B 4038   3.419   1.137   7.351 -0.1783  0.1316  0.1723
   55CHL1  H19C 4039   3.311   1.095   7.490  0.5214  0.3884 -0.1206
   55CHL1    C1 4040   3.546   0.888   7.327  0.7911 -0.3001 -0.1341
   55CHL1   H1A 4041   3.615   0.903   7.412  0.5718  0.8352 -0.1526
   55CHL1   H1B 4042   3.542   0.781   7.295  0.3627  0.1308 -1.5703
   55CHL1    C2 4043   3.596   0.972   7.216 -0.1517 -0.3997  0.4008
   55CHL1   H2A 4044   3.698   0.943   7.183  0.3160  1.3306  0.2961
   55CHL1   H2B 4045   3.601   1.080   7.242  0.1288 -0.1604 -0.6213
   55CHL1   C20 4046   3.178   0.634   8.005 -0.3638 -0.2672  0.2397
   55CHL1   H20 4047   3.129   0.728   8.037  0.0655  0.2379 -0.5795
   55CHL1   C21 4048   3.322   0.637   8.057 -0.4711 -0.3314 -0.6128
   55CHL1  H21A 4049   3.316   0.635   8.168  2.0671 -0.6089 -0.4661
   55CHL1  H21B 4050   3.369   0.729   8.016  1.0888 -0.8733 -0.0747
   55CHL1  H21C 4051   3.376   0.552   8.012 -0.3087 -0.8871  0.6154
   55CHL1   C22 4052   3.105   0.518   8.067  0.4750  0.1642 -0.3750
   55CHL1  H22A 4053   3.007   0.506   8.016  0.6890  0.2272 -0.8031
   55CHL1  H22B 4054   3.163   0.425   8.053  0.1656 -0.3698  1.6322
   55CHL1   C23 4055   3.083   0.524   8.221  0.2853 -0.0162  0.4063
   55CHL1  H23A 4056   3.177   0.523   8.280 -0.5562 -0.1179  1.7910
   55CHL1  H23B 4057   3.038   0.619   8.256  0.7933  1.0553 -1.7899
   55CHL1   C24 4058   2.993   0.402   8.260 -0.2228  0.2143 -0.3734
   55CHL1  H24A 4059   2.906   0.362   8.204 -0.6437  1.2193 -0.4326
   55CHL1  H24B 4060   3.064   0.317   8.253 -0.7545 -0.3435  0.8954
   55CHL1   C25 4061   2.947   0.405   8.404  0.2021  0.4877 -0.8113
   55CHL1   H25 4062   2.901   0.502   8.433 -3.6536 -0.9596 -1.9087
   55CHL1   C26 4063   2.845   0.289   8.440  0.3691  0.4501 -0.0661
   55CHL1  H26A 4064   2.752   0.295   8.378  0.1579  0.6031  0.2659
   55CHL1  H26B 4065   2.904   0.195   8.432  1.4435  1.1260 -0.0850
   55CHL1  H26C 4066   2.823   0.296   8.548 -0.2408  1.8656 -0.2693
   55CHL1   C27 4067   3.062   0.384   8.503 -0.1381 -0.3741  0.0693
   55CHL1  H27A 4068   3.144   0.459   8.495 -0.1484 -0.4817 -1.0799
   55CHL1  H27B 4069   3.034   0.402   8.609  0.3719  1.6520 -0.1269
   55CHL1  H27C 4070   3.105   0.283   8.487  0.3197 -0.1333 -0.2247
   56CHL1    C3 4071   2.721   6.002   6.960  0.5898  0.2112  0.1602
   56CHL1    H3 4072   2.700   6.111   6.967 -0.3836  0.1889 -1.8357
   56CHL1    O3 4073   2.707   5.952   6.829  0.3255 -0.1933  0.1465
   56CHL1   H3' 4074   2.716   5.856   6.831 -0.3892 -0.2897 -0.8499
   56CHL1    C4 4075   2.873   5.976   7.001  0.9686  0.9039 -0.2819
   56CHL1   H4A 4076   2.898   5.869   6.988  0.1475  0.3332  2.4469
   56CHL1   H4B 4077   2.933   6.041   6.934  0.4536 -1.0420 -2.7011
   56CHL1    C5 4078   2.889   6.014   7.150  0.4977  0.0002 -0.3882
   56CHL1    C6 4079   2.985   6.100   7.187 -0.2274  0.2952  0.3075
   56CHL1    H6 4080   3.032   6.153   7.104  0.3714 -0.2157  0.3194
   56CHL1    C7 4081   3.010   6.153   7.323 -0.5229 -0.5865 -0.5608
   56CHL1   H7A 4082   3.119   6.154   7.349 -0.3927  1.4375 -1.0899
   56CHL1   H7B 4083   2.979   6.260   7.330 -0.4656 -0.6696  1.1364
   56CHL1    C8 4084   2.943   6.062   7.421  0.3406 -0.6843  0.1598
   56CHL1    H8 4085   3.004   5.970   7.425  0.0101 -0.9170 -0.1310
   56CHL1   C14 4086   2.947   6.133   7.557 -0.6791  0.9733 -0.0036
   56CHL1   H14 4087   2.875   6.215   7.541 -0.1211  1.8050  1.7080
   56CHL1   C15 4088   3.075   6.204   7.612  0.0850 -0.4375 -0.3728
   56CHL1  H15A 4089   3.165   6.139   7.595  1.6747  1.5597  0.2390
   56CHL1  H15B 4090   3.099   6.303   7.569  1.3479 -0.5525  0.0438
   56CHL1   C16 4091   3.053   6.216   7.766 -0.3661  0.4892  0.1258
   56CHL1  H16A 4092   3.126   6.152   7.820  0.3671  0.2470 -1.1451
   56CHL1  H16B 4093   3.054   6.322   7.800 -2.1397  0.4904  0.2650
   56CHL1   C17 4094   2.903   6.170   7.787  0.7363  0.0404  1.0813
   56CHL1   H17 4095   2.847   6.263   7.761  2.4954  1.9509  3.7986
   56CHL1   C13 4096   2.879   6.061   7.678  0.2152  0.4213 -0.1040
   56CHL1   C18 4097   2.954   5.935   7.725  0.1826 -0.1178 -0.7916
   56CHL1  H18A 4098   3.060   5.957   7.752  0.4046  0.4235 -2.0704
   56CHL1  H18B 4099   2.908   5.898   7.819  0.4953  1.7791  0.1267
   56CHL1  H18C 4100   2.965   5.865   7.640 -1.7723  1.1238 -2.0955
   56CHL1   C12 4101   2.734   6.032   7.644 -0.6860  0.1029 -0.1172
   56CHL1  H12A 4102   2.691   5.974   7.728  0.2088  2.0580  1.7486
   56CHL1  H12B 4103   2.678   6.126   7.625 -1.0561  0.8185  4.1090
   56CHL1   C11 4104   2.727   5.956   7.508 -0.0894 -0.3806  0.4402
   56CHL1  H11A 4105   2.758   5.851   7.526  0.9240 -0.0155  0.8485
   56CHL1  H11B 4106   2.619   5.947   7.483 -0.4213 -0.7300  1.9563
   56CHL1    C9 4107   2.801   6.030   7.386  0.6287  0.1771 -0.4016
   56CHL1    H9 4108   2.745   6.124   7.368  2.9212  1.4165 -1.3244
   56CHL1   C10 4109   2.786   5.957   7.251 -0.8566  0.0680  0.3928
   56CHL1   C19 4110   2.815   5.802   7.253 -0.2942 -0.3716 -0.6061
   56CHL1  H19A 4111   2.832   5.760   7.151  2.1657 -0.3894 -0.2050
   56CHL1  H19B 4112   2.906   5.775   7.309  0.2982 -1.7558 -2.1959
   56CHL1  H19C 4113   2.727   5.746   7.292 -1.6239  1.2405 -1.1948
   56CHL1    C1 4114   2.645   5.979   7.196  0.3768  0.1611 -0.4203
   56CHL1   H1A 4115   2.574   5.923   7.261  1.9286 -3.4271 -1.6929
   56CHL1   H1B 4116   2.627   6.089   7.197 -1.4903 -0.1188  1.9713
   56CHL1    C2 4117   2.621   5.933   7.052 -0.2669  1.0079  0.0634
   56CHL1   H2A 4118   2.515   5.963   7.034 -0.1809  0.3158 -1.6532
   56CHL1   H2B 4119   2.630   5.823   7.043 -2.6627  0.7284  0.6378
   56CHL1   C20 4120   2.878   6.143   7.937  0.3327 -0.1945  0.0191
   56CHL1   H20 4121   2.942   6.063   7.981 -0.3023  0.2476  1.8184
   56CHL1   C21 4122   2.726   6.117   7.963  0.7556 -0.1099 -0.2580
   56CHL1  H21A 4123   2.700   6.021   7.914 -1.3053 -1.0088  2.5018
   56CHL1  H21B 4124   2.658   6.193   7.919 -1.2110 -1.1029  1.0474
   56CHL1  H21C 4125   2.709   6.113   8.072  0.8176  1.3490 -0.1818
   56CHL1   C22 4126   2.931   6.265   8.013  0.1623 -1.0146 -0.0595
   56CHL1  H22A 4127   3.031   6.307   7.990 -0.2444 -0.5820 -1.1064
   56CHL1  H22B 4128   2.853   6.340   7.985 -0.8021 -1.7604  0.5849
   56CHL1   C23 4129   2.915   6.263   8.165 -0.2925 -0.1543  0.4039
   56CHL1  H23A 4130   2.898   6.362   8.212  0.5190 -1.0463  2.6346
   56CHL1  H23B 4131   2.822   6.211   8.197 -0.0253 -0.3518  0.8665
   56CHL1   C24 4132   3.019   6.178   8.238  0.0257  0.8442  0.2418
   56CHL1  H24A 4133   3.011   6.072   8.209 -1.9394  0.8149  0.7796
   56CHL1  H24B 4134   3.118   6.214   8.204 -0.2991  0.7532 -0.8037
   56CHL1   C25 4135   3.003   6.178   8.400  0.0455 -0.0200  0.4056
   56CHL1   H25 4136   3.084   6.105   8.422 -1.0327 -0.7673  1.9219
   56CHL1   C26 4137   3.018   6.323   8.466  0.5302 -0.6810 -0.3315
   56CHL1  H26A 4138   2.938   6.390   8.428  1.3494  1.9595  2.4044
   56CHL1  H26B 4139   3.120   6.366   8.451  0.1196  0.8076  1.0268
   56CHL1  H26C 4140   2.990   6.314   8.573  0.6481 -1.1199 -0.3356
   56CHL1   C27 4141   2.861   6.130   8.445 -0.1266 -0.5846 -0.4964
   56CHL1  H27A 4142   2.836   6.050   8.372 -2.3411 -0.3307 -0.0324
   56CHL1  H27B 4143   2.879   6.085   8.545  1.0952 -0.9070 -0.8427
   56CHL1  H27C 4144   2.792   6.216   8.451  1.6257  0.7157  1.4986
   57SAPC     N 4145   3.123   2.637  11.003  0.4786 -0.3823 -0.5236
   57SAPC   C12 4146   3.128   2.598  10.860  0.0828 -0.3416 -0.4366
   57SAPC  H12A 4147   3.152   2.493  10.849 -0.2875 -0.2952 -1.6535
   57SAPC  H12B 4148   3.203   2.657  10.810  0.7949 -0.1879  0.7888
   57SAPC   C13 4149   3.103   2.784  11.010 -0.4861 -0.5013  0.2022
   57SAPC  H13A 4150   3.113   2.810  11.115 -0.3971  1.0332 -0.1816
   57SAPC  H13B 4151   3.172   2.844  10.953 -1.7298  0.2334 -0.5507
   57SAPC  H13C 4152   3.007   2.825  10.982  0.1343  0.3283 -0.7349
   57SAPC   C14 4153   3.007   2.583  11.076 -0.1749 -0.3580  0.5238
   57SAPC  H14A 4154   3.003   2.475  11.073 -0.3361 -0.4245  2.2731
   57SAPC  H14B 4155   3.003   2.607  11.181 -2.7422 -0.4755  0.5007
   57SAPC  H14C 4156   2.911   2.617  11.041  1.3581  2.7503 -0.8150
   57SAPC   C15 4157   3.243   2.597  11.079  0.2807  0.3364  0.2204
   57SAPC  H15A 4158   3.331   2.655  11.056  1.6200 -1.9919 -0.7633
   57SAPC  H15B 4159   3.226   2.595  11.186  1.1152  0.0035  0.3528
   57SAPC  H15C 4160   3.256   2.492  11.056 -2.1402 -0.0398  0.4092
   57SAPC   C11 4161   2.999   2.622  10.778  0.4854  0.1406 -0.0813
   57SAPC  H11A 4162   3.023   2.606  10.671  1.6121  1.3351 -0.0157
   57SAPC  H11B 4163   2.978   2.730  10.797  0.0357 -0.3206  2.1388
   57SAPC     P 4164   2.761   2.518  10.720  0.3320  0.2315 -0.0012
   57SAPC   O13 4165   2.789   2.416  10.616  0.2486  0.3564  0.3416
   57SAPC   O14 4166   2.644   2.508  10.811 -0.1739  0.7721 -0.9276
   57SAPC   O12 4167   2.890   2.540  10.818 -0.0799  0.0775 -0.1093
   57SAPC   O11 4168   2.750   2.657  10.641 -0.5696 -0.3856  0.1363
   57SAPC    C1 4169   2.793   2.682  10.508 -0.6019 -0.5637 -0.0698
   57SAPC    HA 4170   2.804   2.791  10.488  1.5182 -0.7084  0.1627
   57SAPC    HB 4171   2.893   2.636  10.493 -0.1292  0.7078 -0.9064
   57SAPC    C2 4172   2.703   2.633  10.397 -0.4222  0.1472  0.0091
   57SAPC    HS 4173   2.691   2.522  10.404  1.0118 -0.0184  0.1584
   57SAPC   O21 4174   2.759   2.668  10.275  0.4251 -0.2471  0.3947
   57SAPC   C21 4175   2.718   2.615  10.162  0.1501 -0.3414 -0.3018
   57SAPC   O22 4176   2.639   2.520  10.153 -0.0661  0.3507 -0.3533
   57SAPC   C22 4177   2.765   2.700  10.048  0.2433  0.0748 -0.3983
   57SAPC   H2R 4178   2.755   2.810  10.058 -0.9750 -0.2369  2.0091
   57SAPC   H2S 4179   2.868   2.665  10.028 -0.2584 -1.7246  0.1061
   57SAPC    C3 4180   2.563   2.694  10.403  0.1830 -0.2684 -0.1174
   57SAPC    HX 4181   2.517   2.648  10.493  0.2703  1.5032  0.8559
   57SAPC    HY 4182   2.510   2.663  10.311  0.7063 -0.9451 -0.1936
   57SAPC   O31 4183   2.567   2.841  10.418  0.1161  0.1759 -0.2550
   57SAPC   C31 4184   2.517   2.915  10.318 -0.5059  0.2785 -0.0192
   57SAPC   O32 4185   2.451   2.877  10.222  0.3562 -0.7130 -0.2092
   57SAPC   C32 4186   2.544   3.059  10.352  0.5429 -0.2002 -0.4463
   57SAPC   H2X 4187   2.643   3.062  10.401 -0.5740  1.4743  1.7936
   57SAPC   H2Y 4188   2.480   3.096  10.435  0.5137 -1.0273 -0.0924
   57SAPC   C23 4189   2.691   2.658   9.919 -0.4412 -0.2527  0.4497
   57SAPC   H3R 4190   2.702   2.552   9.890 -1.1484 -0.3168  0.4056
   57SAPC   H3S 4191   2.748   2.708   9.837  1.2513  0.1814  1.8532
   57SAPC   C24 4192   2.550   2.719   9.921  0.4501 -0.2843 -0.2239
   57SAPC   H4R 4193   2.566   2.827   9.902  0.8840 -0.0447  1.4248
   57SAPC   H4S 4194   2.506   2.706  10.022 -0.1841 -2.2371 -0.7159
   57SAPC   C25 4195   2.460   2.674   9.813  0.7090 -0.1544 -0.4137
   57SAPC   H5R 4196   2.432   2.746   9.735 -2.5378 -0.2669  0.6127
   57SAPC   C26 4197   2.407   2.554   9.808 -0.1570  0.0126 -0.0586
   57SAPC   H6R 4198   2.343   2.523   9.724  0.3373 -0.7589 -0.1570
   57SAPC   C27 4199   2.426   2.437   9.897 -0.0776 -0.1804  0.0593
   57SAPC   H7R 4200   2.449   2.468  10.001  0.6918  0.1420 -0.2005
   57SAPC   H7S 4201   2.508   2.375   9.855 -0.3821 -0.6168  0.1100
   57SAPC   C28 4202   2.293   2.366   9.893 -0.1375 -0.5343  0.4019
   57SAPC   H8R 4203   2.204   2.414   9.934  1.2529  2.4208  0.0661
   57SAPC   C29 4204   2.274   2.244   9.839  0.1572 -0.0831  0.1428
   57SAPC   H9R 4205   2.174   2.199   9.844 -0.7443  1.9713  1.6698
   57SAPC  C210 4206   2.368   2.168   9.751 -0.0676  0.8604  0.3392
   57SAPC  H10R 4207   2.339   2.061   9.747  1.8111  0.2800  1.5608
   57SAPC  H10S 4208   2.468   2.164   9.799 -0.1355 -1.4253  0.3302
   57SAPC  C211 4209   2.390   2.228   9.620 -0.1966 -0.0837  0.3173
   57SAPC  H11R 4210   2.407   2.336   9.621  1.6338 -0.3771  1.1638
   57SAPC  C212 4211   2.373   2.172   9.499  0.6064  0.3242  0.4483
   57SAPC  H12R 4212   2.398   2.240   9.417 -0.4691 -0.0245 -0.1853
   57SAPC  C213 4213   2.325   2.036   9.453 -1.1573 -0.0377 -0.1076
   57SAPC  H13R 4214   2.215   2.037   9.447 -1.2526  2.3718  1.2096
   57SAPC  H13S 4215   2.355   1.959   9.529 -2.1990 -1.0669 -0.7270
   57SAPC  C214 4216   2.375   1.983   9.318 -0.1214 -0.1705  0.0807
   57SAPC  H14R 4217   2.477   2.017   9.294 -0.4311  0.8649  0.1779
   57SAPC  C215 4218   2.306   1.915   9.223 -0.4523  0.0060 -0.1491
   57SAPC  H15R 4219   2.364   1.897   9.131  1.0283  0.9039  0.5792
   57SAPC  C216 4220   2.165   1.870   9.214  0.1307  0.3143 -0.3461
   57SAPC  H16R 4221   2.106   1.935   9.146  0.2491 -0.1107 -0.8554
   57SAPC  H16S 4222   2.112   1.887   9.310  2.5688 -0.6609  1.2359
   57SAPC  C217 4223   2.154   1.724   9.162 -0.9775 -0.9414  0.7655
   57SAPC  H17R 4224   2.046   1.700   9.171 -1.3947 -0.4951 -2.5078
   57SAPC  H17S 4225   2.216   1.662   9.230  2.0898  2.9574  1.7416
   57SAPC  C218 4226   2.195   1.704   9.011 -0.5087 -0.1911  0.4848
   57SAPC  H18R 4227   2.177   1.595   8.995 -1.0179  0.0691 -0.7324
   57SAPC  H18S 4228   2.303   1.719   8.991 -0.8524 -0.6758 -1.8843
   57SAPC  C219 4229   2.108   1.785   8.917  0.4776 -0.0013  0.0912
   57SAPC  H19R 4230   2.138   1.891   8.908 -1.2455  0.4938  0.0814
   57SAPC  H19S 4231   2.001   1.780   8.945  0.6535  1.7746  1.1215
   57SAPC  C220 4232   2.115   1.727   8.773 -0.1044 -0.0471 -0.2848
   57SAPC  H20R 4233   2.073   1.803   8.703  0.1425 -0.4033 -0.8109
   57SAPC  H20S 4234   2.056   1.633   8.773 -1.7110  0.9292 -0.7208
   57SAPC  H20T 4235   2.217   1.713   8.734 -0.3501 -1.7553 -0.3528
   57SAPC   C33 4236   2.552   3.151  10.231 -0.0986  0.0507 -0.0369
   57SAPC   H3X 4237   2.571   3.256  10.263 -2.2141  0.2464  0.6781
   57SAPC   H3Y 4238   2.455   3.151  10.177 -0.3723  3.3391  0.3217
   57SAPC   C34 4239   2.650   3.121  10.120 -0.5154 -0.4655  1.3854
   57SAPC   H4X 4240   2.649   3.016  10.084 -0.3912  0.4018 -1.2555
   57SAPC   H4Y 4241   2.750   3.130  10.168  0.8037 -0.6115 -1.2366
   57SAPC   C35 4242   2.635   3.211   9.996 -1.5496 -0.3222 -0.4701
   57SAPC   H5X 4243   2.625   3.321  10.014 -2.5064 -0.5041  0.1084
   57SAPC   H5Y 4244   2.538   3.176   9.955 -2.4858  1.6413  0.0093
   57SAPC   C36 4245   2.740   3.192   9.885  0.0972 -0.1846 -0.1393
   57SAPC   H6X 4246   2.787   3.098   9.920 -0.3858 -0.4673 -0.2379
   57SAPC   H6Y 4247   2.819   3.270   9.892  0.0022 -0.1039  0.0338
   57SAPC   C37 4248   2.685   3.178   9.741 -0.0713 -0.6984  0.0798
   57SAPC   H7X 4249   2.649   3.281   9.721 -0.4590 -0.9450 -0.5204
   57SAPC   H7Y 4250   2.590   3.120   9.735 -0.7805  0.6751 -3.7165
   57SAPC   C38 4251   2.788   3.129   9.642 -0.7045 -0.3853 -0.1882
   57SAPC   H8X 4252   2.886   3.170   9.675 -1.5847 -0.0929  2.1044
   57SAPC   H8Y 4253   2.759   3.166   9.541 -0.8138  2.2927  0.7843
   57SAPC   C39 4254   2.809   2.977   9.646 -0.4554 -0.2130  0.5391
   57SAPC   H9X 4255   2.854   2.941   9.742  0.2760 -0.9936 -0.0894
   57SAPC   H9Y 4256   2.886   2.952   9.570  0.8546 -0.5610  1.9388
   57SAPC  C310 4257   2.681   2.897   9.616 -0.3056  0.1571 -0.0122
   57SAPC  H10X 4258   2.600   2.892   9.692  1.1904 -0.8916  1.5804
   57SAPC  H10Y 4259   2.712   2.791   9.609  0.0880  0.2420  0.3758
   57SAPC  C311 4260   2.622   2.936   9.479  0.0472  0.4188  0.2331
   57SAPC  H11X 4261   2.701   2.945   9.401 -1.9863  1.4882 -1.7612
   57SAPC  H11Y 4262   2.571   3.034   9.496 -0.0882  0.4609 -0.3945
   57SAPC  C312 4263   2.522   2.833   9.437  0.1137  0.9659 -0.4436
   57SAPC  H12X 4264   2.431   2.850   9.499  0.5502  1.2117  0.1283
   57SAPC  H12Y 4265   2.558   2.731   9.463  0.8444  1.7298  1.5980
   57SAPC  C313 4266   2.488   2.838   9.287  0.5645  0.1873 -0.0364
   57SAPC  H13X 4267   2.578   2.839   9.221  0.6578  1.1801  0.0991
   57SAPC  H13Y 4268   2.449   2.939   9.261 -1.0726 -0.6236 -0.8320
   57SAPC  C314 4269   2.413   2.721   9.241 -0.1077  0.1581  0.2744
   57SAPC  H14X 4270   2.448   2.626   9.287  0.6068  0.2546 -0.0657
   57SAPC  H14Y 4271   2.418   2.705   9.131  1.2333 -1.5642  0.5657
   57SAPC  C315 4272   2.263   2.730   9.261 -0.1005  0.3492 -0.4063
   57SAPC  H15X 4273   2.240   2.751   9.368  0.3910 -0.1006 -0.2127
   57SAPC  H15Y 4274   2.215   2.631   9.244 -2.7450  0.9915  2.8429
   57SAPC  C316 4275   2.195   2.845   9.174 -0.8648 -0.0760  0.5347
   57SAPC  H16X 4276   2.261   2.934   9.165 -0.3847 -0.3925  0.9093
   57SAPC  H16Y 4277   2.113   2.882   9.238  0.9264 -0.8882  3.3910
   57SAPC  C317 4278   2.146   2.781   9.041  0.1889 -0.4619 -0.6960
   57SAPC  H17X 4279   2.073   2.698   9.051  1.3163 -1.2799  0.7720
   57SAPC  H17Y 4280   2.238   2.744   8.991 -2.2295 -3.2405 -3.2944
   57SAPC  C318 4281   2.082   2.898   8.968  0.2573 -0.0747  1.2727
   57SAPC  H18X 4282   2.160   2.972   8.941 -0.5828  0.2397 -0.3363
   57SAPC  H18Y 4283   2.005   2.948   9.030 -1.3147 -0.7684 -0.0716
   57SAPC  H18Z 4284   2.033   2.859   8.876  1.1844  0.7794  0.4091
   58SAPC     N 4285   5.286   0.781  10.744  0.3005  0.0062 -0.0571
   58SAPC   C12 4286   5.214   0.755  10.616 -0.2666  1.3424 -0.2061
   58SAPC  H12A 4287   5.108   0.773  10.627 -0.2476  0.6000  1.3488
   58SAPC  H12B 4288   5.221   0.651  10.588  0.5740  1.5434 -0.7296
   58SAPC   C13 4289   5.233   0.686  10.851 -0.6584  0.5631 -0.2741
   58SAPC  H13A 4290   5.289   0.702  10.942  0.9345  3.4701 -1.6680
   58SAPC  H13B 4291   5.126   0.692  10.855 -0.4950  3.3793  2.0371
   58SAPC  H13C 4292   5.257   0.586  10.819  0.4855  0.8732 -0.4430
   58SAPC   C14 4293   5.432   0.753  10.723  1.0152  0.6779  0.1783
   58SAPC  H14A 4294   5.490   0.774  10.812  1.6821  1.6566 -0.4774
   58SAPC  H14B 4295   5.451   0.650  10.695 -1.2406  0.7160 -1.6782
   58SAPC  H14C 4296   5.480   0.824  10.658  0.9536 -0.1060 -0.7313
   58SAPC   C15 4297   5.267   0.919  10.782  0.3114 -0.1874 -0.7844
   58SAPC  H15A 4298   5.338   0.954  10.856 -0.5323 -0.1652  0.0214
   58SAPC  H15B 4299   5.279   0.986  10.698  0.9205  0.5709 -0.1014
   58SAPC  H15C 4300   5.170   0.940  10.825  1.2943 -0.1251  1.4744
   58SAPC   C11 4301   5.254   0.845  10.493 -0.2214  0.2372 -0.7698
   58SAPC  H11A 4302   5.217   0.794  10.401  3.0275 -1.0466 -1.4066
   58SAPC  H11B 4303   5.363   0.858  10.481  0.1301 -2.2048 -0.4830
   58SAPC     P 4304   5.057   1.018  10.452 -0.0234  0.4449 -0.0432
   58SAPC   O13 4305   4.959   0.938  10.526  0.3396 -0.0954 -0.5059
   58SAPC   O14 4306   5.042   1.166  10.467 -0.9509 -0.2312 -0.0446
   58SAPC   O12 4307   5.202   0.981  10.512  0.1689  0.3040  0.0989
   58SAPC   O11 4308   5.070   0.977  10.302  0.4782  0.0921 -0.1379
   58SAPC    C1 4309   5.159   1.049  10.207  0.8610 -0.3026  0.2550
   58SAPC    HA 4310   5.096   1.075  10.120  0.0686  1.0472  1.2140
   58SAPC    HB 4311   5.200   1.145  10.246  0.0837  0.0740  0.1380
   58SAPC    C2 4312   5.287   0.960  10.168 -0.1397 -0.1405 -0.4064
   58SAPC    HS 4313   5.317   0.913  10.264  0.8201  1.4957  0.1080
   58SAPC   O21 4314   5.396   1.042  10.128 -0.0208 -0.3696 -0.1112
   58SAPC   C21 4315   5.510   0.989  10.119 -0.1350 -0.9858  0.9066
   58SAPC   O22 4316   5.547   0.878  10.155  0.4847  0.4105  0.3891
   58SAPC   C22 4317   5.596   1.075  10.032 -0.2669  0.2443  0.5271
   58SAPC   H2R 4318   5.535   1.147   9.974  2.0658  0.1729 -2.0996
   58SAPC   H2S 4319   5.678   1.134  10.078  2.0878 -1.9150 -0.8055
   58SAPC    C3 4320   5.254   0.854  10.069 -1.1993  0.3121  0.1084
   58SAPC    HX 4321   5.174   0.789  10.112 -1.2142 -1.5637 -2.6351
   58SAPC    HY 4322   5.342   0.787  10.058  0.5472  2.5765  0.0253
   58SAPC   O31 4323   5.223   0.920   9.942  1.1209  0.1262 -0.2100
   58SAPC   C31 4324   5.110   0.903   9.881  0.3147 -0.2281 -0.2991
   58SAPC   O32 4325   5.016   0.842   9.932 -0.3468 -0.2986 -0.2603
   58SAPC   C32 4326   5.101   0.986   9.746 -0.7411 -0.3414 -0.9435
   58SAPC   H2X 4327   5.208   1.000   9.719 -1.1044  2.6194 -1.0011
   58SAPC   H2Y 4328   5.063   1.087   9.770  0.1220 -0.8364  3.0062
   58SAPC   C23 4329   5.667   0.981   9.927 -0.1112  0.2899 -0.4435
   58SAPC   H3R 4330   5.710   0.899   9.989 -0.1398  0.5635 -0.0639
   58SAPC   H3S 4331   5.739   1.034   9.862  2.1189 -1.8109  0.2214
   58SAPC   C24 4332   5.560   0.917   9.834 -0.7305 -0.0442 -0.3312
   58SAPC   H4R 4333   5.492   0.999   9.804  1.4648  1.9624  0.0826
   58SAPC   H4S 4334   5.499   0.844   9.893  0.1041 -0.4105  0.0890
   58SAPC   C25 4335   5.631   0.850   9.727 -0.1795 -0.6758 -0.5464
   58SAPC   H5R 4336   5.662   0.744   9.732  3.8397  0.3459 -1.5477
   58SAPC   C26 4337   5.666   0.900   9.610 -1.4525  0.3296  0.9325
   58SAPC   H6R 4338   5.729   0.843   9.539  1.0072  0.9720  2.5442
   58SAPC   C27 4339   5.622   1.040   9.561 -0.6857  1.2218 -0.3830
   58SAPC   H7R 4340   5.694   1.080   9.486  0.1169  2.0247  0.7966
   58SAPC   H7S 4341   5.631   1.112   9.645  0.5218 -1.6462  1.9976
   58SAPC   C28 4342   5.480   1.052   9.522  0.4314 -0.1273  0.2677
   58SAPC   H8R 4343   5.405   1.066   9.601  0.6972  4.8510 -0.1836
   58SAPC   C29 4344   5.436   1.021   9.400 -0.2200 -0.0956 -0.7168
   58SAPC   H9R 4345   5.329   1.027   9.374 -0.0470  0.5478 -1.2937
   58SAPC  C210 4346   5.523   0.970   9.286 -0.2352 -0.6743  0.4212
   58SAPC  H10R 4347   5.492   0.873   9.242  1.6927 -0.1601 -2.1985
   58SAPC  H10S 4348   5.624   0.944   9.326  0.6939  1.9513 -0.1017
   58SAPC  C211 4349   5.539   1.085   9.196  0.6012 -0.3352  0.5804
   58SAPC  H11R 4350   5.619   1.149   9.237  0.0905  0.2808  0.6040
   58SAPC  C212 4351   5.476   1.101   9.078 -0.4363  0.6555  0.1515
   58SAPC  H12R 4352   5.506   1.190   9.020 -1.6464 -0.2319 -1.9066
   58SAPC  C213 4353   5.369   1.020   9.003 -0.5072 -0.7491  0.0449
   58SAPC  H13R 4354   5.332   0.928   9.053 -0.7977 -0.8640 -0.3715
   58SAPC  H13S 4355   5.421   0.984   8.912 -2.6085 -0.5477 -1.2877
   58SAPC  C214 4356   5.261   1.114   8.968 -0.2418 -0.0664 -1.0198
   58SAPC  H14R 4357   5.214   1.172   9.049  2.5585 -0.7472  1.1596
   58SAPC  C215 4358   5.211   1.142   8.850  1.0742 -0.2313 -0.2683
   58SAPC  H15R 4359   5.140   1.225   8.848  1.9915  0.5993  1.3968
   58SAPC  C216 4360   5.266   1.076   8.721 -0.4806 -0.8638  0.6514
   58SAPC  H16R 4361   5.185   1.056   8.647 -0.3283  1.3830 -0.1830
   58SAPC  H16S 4362   5.319   0.979   8.729  1.9664  0.3513 -0.3317
   58SAPC  C217 4363   5.368   1.168   8.660 -0.0796  0.2138  0.3023
   58SAPC  H17R 4364   5.458   1.173   8.725 -1.3122  1.3913  1.9748
   58SAPC  H17S 4365   5.329   1.272   8.655 -0.5443  0.1107  1.5706
   58SAPC  C218 4366   5.402   1.122   8.521  0.2915  0.6639 -0.2768
   58SAPC  H18R 4367   5.317   1.148   8.454  0.6480  0.6246 -0.7511
   58SAPC  H18S 4368   5.421   1.013   8.513 -0.3621  0.4810  0.6473
   58SAPC  C219 4369   5.522   1.203   8.460 -0.3561 -0.3839  0.2663
   58SAPC  H19R 4370   5.618   1.177   8.508 -0.7162  0.2540  1.3343
   58SAPC  H19S 4371   5.503   1.312   8.470 -0.4248 -0.4215  0.5406
   58SAPC  C220 4372   5.530   1.176   8.309 -0.1689 -0.1089  0.6277
   58SAPC  H20R 4373   5.443   1.231   8.267  0.3676  1.8857  2.0489
   58SAPC  H20S 4374   5.530   1.066   8.290  0.3721  0.1680 -1.0562
   58SAPC  H20T 4375   5.624   1.219   8.269 -0.6612  1.2611  0.9165
   58SAPC   C33 4376   5.028   0.923   9.629  0.9485  0.6292 -0.7045
   58SAPC   H3X 4377   4.930   0.900   9.675  0.0548 -0.4946 -3.1150
   58SAPC   H3Y 4378   5.075   0.827   9.602 -0.0301 -0.0709  0.0356
   58SAPC   C34 4379   5.012   1.017   9.509 -0.0984 -0.3919  0.7079
   58SAPC   H4X 4380   5.113   1.051   9.476  0.2044 -1.6318  0.3124
   58SAPC   H4Y 4381   4.956   1.110   9.532  1.6535  1.0170 -0.5666
   58SAPC   C35 4382   4.959   0.947   9.381 -0.4610 -0.3610 -0.3297
   58SAPC   H5X 4383   4.851   0.923   9.389 -0.3429 -2.2831 -3.7214
   58SAPC   H5Y 4384   5.011   0.849   9.371  0.1179 -0.0862 -0.0695
   58SAPC   C36 4385   4.981   1.029   9.255  0.0084  0.1155 -0.8705
   58SAPC   H6X 4386   5.090   1.046   9.239  0.5459 -2.3437 -0.0333
   58SAPC   H6Y 4387   4.939   1.130   9.274 -1.1496 -0.8428  1.9226
   58SAPC   C37 4388   4.940   0.965   9.131  0.0325 -0.0184  0.1091
   58SAPC   H7X 4389   4.950   1.046   9.055  2.1327 -0.9372 -0.6232
   58SAPC   H7Y 4390   4.835   0.928   9.121 -0.6439  1.8959 -0.1104
   58SAPC   C38 4391   5.026   0.841   9.076 -1.0455  0.7668  0.5866
   58SAPC   H8X 4392   5.025   0.761   9.153  0.2464  0.0340 -0.1314
   58SAPC   H8Y 4393   5.129   0.877   9.058 -0.4566 -1.0120  0.2637
   58SAPC   C39 4394   4.960   0.783   8.949 -0.3152 -0.4678  0.6134
   58SAPC   H9X 4395   4.931   0.865   8.879  0.7271 -0.5654  0.0441
   58SAPC   H9Y 4396   4.868   0.724   8.966  1.6853 -3.5363  1.2415
   58SAPC  C310 4397   5.061   0.691   8.875  0.4854 -0.9297 -0.3386
   58SAPC  H10X 4398   5.054   0.598   8.935 -3.5989 -2.6259 -3.1530
   58SAPC  H10Y 4399   5.160   0.741   8.873  0.1049 -0.1895 -0.7344
   58SAPC  C311 4400   5.011   0.646   8.734 -0.3137 -0.8283 -0.1490
   58SAPC  H11X 4401   4.910   0.600   8.740 -0.8620  0.5695  1.6456
   58SAPC  H11Y 4402   5.076   0.567   8.690 -0.8881 -0.9341 -0.8248
   58SAPC  C312 4403   5.019   0.752   8.626 -0.9525 -0.0751  1.2102
   58SAPC  H12X 4404   5.127   0.768   8.604 -1.1296  0.1782  0.5037
   58SAPC  H12Y 4405   4.976   0.849   8.660  0.2566  1.0351 -0.3174
   58SAPC  C313 4406   4.943   0.723   8.494 -0.0717 -0.4374 -0.2898
   58SAPC  H13X 4407   4.840   0.762   8.511 -0.5019 -2.1677  1.1978
   58SAPC  H13Y 4408   4.943   0.613   8.479  1.2042 -0.5174  0.2673
   58SAPC  C314 4409   5.019   0.788   8.375 -0.3865 -0.3905  0.2811
   58SAPC  H14X 4410   5.129   0.779   8.387 -0.5974 -1.4214  1.5961
   58SAPC  H14Y 4411   4.985   0.893   8.380  0.3288 -0.2223  2.3629
   58SAPC  C315 4412   4.987   0.721   8.239 -0.3403 -0.0649 -0.3388
   58SAPC  H15X 4413   4.884   0.754   8.215  0.2014  2.2426  0.4329
   58SAPC  H15Y 4414   4.997   0.610   8.237 -0.4954 -0.0899  0.1175
   58SAPC  C316 4415   5.069   0.791   8.129  0.0599  0.3189 -0.0108
   58SAPC  H16X 4416   5.176   0.767   8.145  0.1809  0.9753  0.1620
   58SAPC  H16Y 4417   5.058   0.901   8.132 -3.9286  0.0290 -0.8374
   58SAPC  C317 4418   5.024   0.746   7.991 -0.1990 -0.6764 -0.4605
   58SAPC  H17X 4419   5.053   0.827   7.921 -0.5313 -0.0027  0.1769
   58SAPC  H17Y 4420   4.914   0.739   7.977 -0.2164 -0.1358 -0.6021
   58SAPC  C318 4421   5.081   0.616   7.936 -0.0476  0.8640 -0.1916
   58SAPC  H18X 4422   5.052   0.525   7.993 -0.2799  1.8318  1.2667
   58SAPC  H18Y 4423   5.191   0.627   7.933  0.0135 -0.0552 -2.5281
   58SAPC  H18Z 4424   5.042   0.601   7.833 -1.5553 -0.1336  0.5051
   59SAPC     N 4425   6.168   2.519  11.354 -0.1859 -0.0656 -0.5743
   59SAPC   C12 4426   6.183   2.392  11.270 -0.0632  0.5032  0.5634
   59SAPC  H12A 4427   6.265   2.334  11.308  0.3208 -0.0345 -1.0582
   59SAPC  H12B 4428   6.212   2.425  11.172  0.7177  0.0748  0.6521
   59SAPC   C13 4429   6.300   2.583  11.370  0.5455  0.5106  0.1723
   59SAPC  H13A 4430   6.289   2.667  11.437 -1.5049 -0.2952  0.8705
   59SAPC  H13B 4431   6.373   2.509  11.399 -0.3759 -0.0183  1.1377
   59SAPC  H13C 4432   6.325   2.619  11.271 -2.2292 -2.0129 -1.5530
   59SAPC   C14 4433   6.080   2.616  11.275  0.6091  0.0743  0.4742
   59SAPC  H14A 4434   5.979   2.579  11.268 -0.3130  2.1481  2.0661
   59SAPC  H14B 4435   6.079   2.713  11.324 -1.6979  1.0268 -1.3766
   59SAPC  H14C 4436   6.114   2.618  11.173 -1.1940  1.7225 -0.1340
   59SAPC   C15 4437   6.111   2.501  11.498 -0.2949  0.2801  0.3942
   59SAPC  H15A 4438   6.179   2.438  11.555  0.6024  0.4498 -0.4868
   59SAPC  H15B 4439   6.085   2.596  11.540 -0.7244 -0.2123  1.2609
   59SAPC  H15C 4440   6.026   2.436  11.486  0.5403 -0.3078 -2.6354
   59SAPC   C11 4441   6.051   2.301  11.261 -0.5695 -0.3067 -0.9168
   59SAPC  H11A 4442   5.991   2.288  11.353  1.7927 -0.6366  0.6220
   59SAPC  H11B 4443   6.081   2.200  11.224  0.8901  0.2840 -1.3884
   59SAPC     P 4444   5.981   2.364  11.009 -0.1176 -0.1081 -0.4827
   59SAPC   O13 4445   5.972   2.228  10.956  0.7969  0.0839  0.5189
   59SAPC   O14 4446   5.887   2.465  10.954 -0.5734  0.0791  0.0721
   59SAPC   O12 4447   5.953   2.356  11.166 -0.4917  0.1665 -0.4714
   59SAPC   O11 4448   6.126   2.432  11.004 -0.0376 -0.1472 -0.3256
   59SAPC    C1 4449   6.224   2.380  10.921  0.5560 -0.5230  0.5333
   59SAPC    HA 4450   6.326   2.383  10.965 -0.2270  0.5125  2.3422
   59SAPC    HB 4451   6.216   2.275  10.888  0.0829 -0.4035  0.2772
   59SAPC    C2 4452   6.234   2.483  10.801 -0.0506 -0.3605 -0.4706
   59SAPC    HS 4453   6.140   2.487  10.742  0.5496  0.5173 -1.3638
   59SAPC   O21 4454   6.348   2.457  10.719  0.5156  0.2370 -0.3709
   59SAPC   C21 4455   6.339   2.352  10.637 -0.0380 -0.2356  0.2981
   59SAPC   O22 4456   6.243   2.278  10.625  0.1330  0.2504  0.5470
   59SAPC   C22 4457   6.471   2.326  10.576 -0.6143  0.0051  0.0479
   59SAPC   H2R 4458   6.457   2.323  10.465 -2.4445 -0.6225  0.2804
   59SAPC   H2S 4459   6.538   2.412  10.593 -1.0660  0.3962 -0.1583
   59SAPC    C3 4460   6.247   2.632  10.850 -0.1910 -0.1859  0.1397
   59SAPC    HX 4461   6.339   2.638  10.913 -0.3990  4.4103  0.1438
   59SAPC    HY 4462   6.161   2.662  10.913  0.7845  1.0424  0.9054
   59SAPC   O31 4463   6.276   2.726  10.744  0.7587 -0.9090 -0.2472
   59SAPC   C31 4464   6.173   2.761  10.676 -0.4550 -0.6494 -0.6664
   59SAPC   O32 4465   6.059   2.738  10.719  0.0569  0.2030 -0.6927
   59SAPC   C32 4466   6.214   2.817  10.545 -0.6778 -0.1289  0.1111
   59SAPC   H2X 4467   6.317   2.785  10.520 -0.6158  0.6128 -0.6222
   59SAPC   H2Y 4468   6.203   2.927  10.550  2.7611  0.1957  1.8267
   59SAPC   C23 4469   6.540   2.200  10.626  0.7361 -0.5911 -0.5381
   59SAPC   H3R 4470   6.476   2.109  10.617 -0.1643  0.2627 -2.9627
   59SAPC   H3S 4471   6.556   2.210  10.736 -0.1317 -1.1733 -0.3445
   59SAPC   C24 4472   6.676   2.158  10.556  0.5942 -0.2748  0.6016
   59SAPC   H4R 4473   6.717   2.077  10.620  0.6744 -1.6638 -1.1720
   59SAPC   H4S 4474   6.754   2.237  10.562  0.7593 -0.4712  1.0540
   59SAPC   C25 4475   6.679   2.107  10.413  0.5070 -0.7386 -0.0049
   59SAPC   H5R 4476   6.616   2.018  10.404  3.1861 -2.7320  0.5674
   59SAPC   C26 4477   6.738   2.147  10.294 -0.0507  0.0921  0.0030
   59SAPC   H6R 4478   6.719   2.089  10.203 -0.5788 -0.3522  0.3937
   59SAPC   C27 4479   6.817   2.271  10.274  0.4939  0.8892  0.3722
   59SAPC   H7R 4480   6.814   2.331  10.368  0.3808  2.3174 -0.5198
   59SAPC   H7S 4481   6.774   2.342  10.199 -0.2780  1.7584  1.6243
   59SAPC   C28 4482   6.954   2.227  10.239  0.7477 -0.3392 -0.1927
   59SAPC   H8R 4483   7.010   2.196  10.328 -4.7034  0.4571  3.7312
   59SAPC   C29 4484   7.005   2.226  10.113  0.5007  0.8544 -0.6306
   59SAPC   H9R 4485   7.112   2.207  10.095  0.5978 -0.2142  0.9341
   59SAPC  C210 4486   6.932   2.267   9.985  0.5009  0.3251  0.2308
   59SAPC  H10R 4487   6.904   2.374   9.994  2.8227  1.1211 -1.4634
   59SAPC  H10S 4488   6.838   2.207   9.981  0.5561  0.3618 -2.0708
   59SAPC  C211 4489   6.998   2.244   9.849 -0.2401 -0.0203  0.6955
   59SAPC  H11R 4490   6.937   2.199   9.768  2.6117  2.1470 -2.7837
   59SAPC  C212 4491   7.123   2.280   9.813 -0.2076  0.1181  0.0695
   59SAPC  H12R 4492   7.140   2.288   9.705 -2.0147  1.1424 -0.1592
   59SAPC  C213 4493   7.234   2.343   9.896  0.4413 -0.1220 -0.2105
   59SAPC  H13R 4494   7.290   2.269   9.956 -1.8611 -1.5032  0.3174
   59SAPC  H13S 4495   7.198   2.418   9.970  0.2281 -1.8243  1.4618
   59SAPC  C214 4496   7.331   2.419   9.805 -0.1847 -0.6390  0.7129
   59SAPC  H14R 4497   7.325   2.398   9.697 -1.5644  1.2052  0.4123
   59SAPC  C215 4498   7.430   2.500   9.847 -0.5165 -0.2543 -0.0550
   59SAPC  H15R 4499   7.486   2.554   9.769 -0.8370 -0.2941 -0.3155
   59SAPC  C216 4500   7.475   2.526   9.984  0.6411 -0.3822 -0.5989
   59SAPC  H16R 4501   7.578   2.490  10.005  0.8350 -1.6045 -3.4100
   59SAPC  H16S 4502   7.405   2.485  10.059  1.5274 -1.0928 -0.1425
   59SAPC  C217 4503   7.473   2.679  10.024 -0.0713 -0.7802  0.3663
   59SAPC  H17R 4504   7.372   2.725  10.020  1.8548  3.7900  1.1397
   59SAPC  H17S 4505   7.533   2.750   9.964 -2.8577  1.6475  0.3656
   59SAPC  C218 4506   7.525   2.716  10.161  0.0125 -0.0152 -0.6347
   59SAPC  H18R 4507   7.506   2.824  10.176 -1.4065  0.0000 -2.3868
   59SAPC  H18S 4508   7.632   2.690  10.171 -0.6320 -1.4517  4.0465
   59SAPC  C219 4509   7.466   2.635  10.280  0.0668  0.0065 -0.7465
   59SAPC  H19R 4510   7.501   2.530  10.276 -3.9497 -1.6871  3.3709
   59SAPC  H19S 4511   7.356   2.635  10.261  0.0022 -2.3533 -0.5267
   59SAPC  C220 4512   7.508   2.689  10.417 -0.3451  0.4748  0.2271
   59SAPC  H20R 4513   7.618   2.706  10.424 -0.7839  2.4047  2.9266
   59SAPC  H20S 4514   7.489   2.621  10.503 -2.3773 -0.3444 -0.8393
   59SAPC  H20T 4515   7.456   2.782  10.448  0.2662  0.7751  0.3650
   59SAPC   C33 4516   6.124   2.758  10.431  0.1078  0.1093 -0.2256
   59SAPC   H3X 4517   6.039   2.824  10.404  0.5442  0.8338  0.1449
   59SAPC   H3Y 4518   6.084   2.658  10.455  1.5209 -0.2445  0.7378
   59SAPC   C34 4519   6.201   2.743  10.298  0.0950  0.1628  0.0597
   59SAPC   H4X 4520   6.291   2.681  10.316  0.4780  0.3426 -1.1619
   59SAPC   H4Y 4521   6.240   2.845  10.274  0.6411 -0.3129 -1.1205
   59SAPC   C35 4522   6.113   2.693  10.184 -0.9478  0.1396 -0.1889
   59SAPC   H5X 4523   6.014   2.743  10.191 -0.6763  0.6082  0.4578
   59SAPC   H5Y 4524   6.101   2.583  10.192 -1.3579  0.2541  0.9576
   59SAPC   C36 4525   6.187   2.717  10.055 -0.2942  0.3601  0.0883
   59SAPC   H6X 4526   6.286   2.668  10.064  0.0019  0.8926 -0.2076
   59SAPC   H6Y 4527   6.208   2.825  10.036  2.9778 -0.2766 -0.1335
   59SAPC   C37 4528   6.107   2.671   9.929  0.3501  0.5108 -0.4740
   59SAPC   H7X 4529   6.008   2.722   9.919  0.5806  0.6090 -2.4391
   59SAPC   H7Y 4530   6.104   2.560   9.925  1.6009  0.4887 -1.0827
   59SAPC   C38 4531   6.175   2.722   9.805  0.4711  0.2337  0.0902
   59SAPC   H8X 4532   6.271   2.667   9.791  1.2165  1.2243  1.2010
   59SAPC   H8Y 4533   6.188   2.832   9.810  2.2418  0.0023  1.2358
   59SAPC   C39 4534   6.090   2.681   9.683  0.2550 -0.4902  0.5118
   59SAPC   H9X 4535   6.010   2.755   9.661 -2.5374 -3.3268  0.7190
   59SAPC   H9Y 4536   6.033   2.588   9.700 -0.4412 -0.1225  0.1984
   59SAPC  C310 4537   6.188   2.666   9.563 -0.4659  0.2088 -0.3101
   59SAPC  H10X 4538   6.273   2.602   9.594 -0.6132 -0.6338 -1.6338
   59SAPC  H10Y 4539   6.225   2.764   9.527 -0.5571  0.3070 -0.1423
   59SAPC  C311 4540   6.108   2.587   9.462 -1.2889 -0.5784  0.3662
   59SAPC  H11X 4541   6.013   2.641   9.444 -2.0924 -1.7577  0.9720
   59SAPC  H11Y 4542   6.079   2.485   9.498 -1.1570 -1.3235 -1.5917
   59SAPC  C312 4543   6.185   2.569   9.325  0.1408 -0.3744 -0.1538
   59SAPC  H12X 4544   6.288   2.534   9.350  0.1210  0.7489  1.5969
   59SAPC  H12Y 4545   6.207   2.672   9.288  1.4524 -0.6078 -0.0440
   59SAPC  C313 4546   6.109   2.498   9.204 -0.7127 -0.2764 -0.1987
   59SAPC  H13X 4547   6.016   2.555   9.184  0.0992  1.7094  1.5422
   59SAPC  H13Y 4548   6.080   2.395   9.233  0.2292 -0.1155  1.3960
   59SAPC  C314 4549   6.194   2.492   9.081  0.5023  0.0285 -0.0095
   59SAPC  H14X 4550   6.279   2.421   9.093 -1.3341 -2.2669  0.0116
   59SAPC  H14Y 4551   6.228   2.596   9.064  0.1637 -0.1552 -1.8872
   59SAPC  C315 4552   6.104   2.450   8.960  0.2807 -0.6151  0.4460
   59SAPC  H15X 4553   6.001   2.493   8.963 -0.1632 -1.5097 -1.5177
   59SAPC  H15Y 4554   6.079   2.343   8.975  1.0830 -1.1392 -1.8293
   59SAPC  C316 4555   6.174   2.480   8.824  0.4965  0.2894 -0.1758
   59SAPC  H16X 4556   6.196   2.588   8.817  0.2562  0.3078 -0.6646
   59SAPC  H16Y 4557   6.112   2.447   8.738  2.5244  2.4875 -2.5696
   59SAPC  C317 4558   6.310   2.407   8.821 -0.0764 -0.0863 -0.5090
   59SAPC  H17X 4559   6.299   2.298   8.833 -0.4608  0.0114  0.0582
   59SAPC  H17Y 4560   6.367   2.451   8.906 -0.9073 -1.1773  0.6309
   59SAPC  C318 4561   6.386   2.435   8.685 -1.1711  0.1521  0.2185
   59SAPC  H18X 4562   6.332   2.394   8.597 -0.8251  0.1379  0.0141
   59SAPC  H18Y 4563   6.488   2.392   8.684 -1.2745 -0.1707  1.8976
   59SAPC  H18Z 4564   6.401   2.545   8.673 -1.9591  0.0351 -2.1130
   60SAPC     N 4565   0.508   0.815  10.880 -0.4142  0.6819 -0.0389
   60SAPC   C12 4566   0.621   0.821  10.981 -0.4650 -0.4603  0.3152
   60SAPC  H12A 4567   0.595   0.830  11.085 -3.4381 -0.2683 -0.4011
   60SAPC  H12B 4568   0.665   0.919  10.973 -1.5874  0.0296  0.0191
   60SAPC   C13 4569   0.566   0.835  10.741  0.2356 -0.2608 -0.0904
   60SAPC  H13A 4570   0.494   0.836  10.661  0.2006  2.1330 -0.0789
   60SAPC  H13B 4571   0.616   0.931  10.732  0.6728 -0.7010 -2.6013
   60SAPC  H13C 4572   0.639   0.758  10.723  1.8954  0.6681  2.3243
   60SAPC   C14 4573   0.446   0.677  10.891  0.2520 -0.2354 -0.0481
   60SAPC  H14A 4574   0.357   0.675  10.830  0.0837 -0.5805  0.2041
   60SAPC  H14B 4575   0.510   0.592  10.874  0.6534  0.3693 -1.6725
   60SAPC  H14C 4576   0.405   0.665  10.990 -1.3663  0.7635 -0.5689
   60SAPC   C15 4577   0.392   0.916  10.902 -0.6068  0.7775  0.6299
   60SAPC  H15A 4578   0.343   0.920  10.999 -0.5505 -0.3436  0.7017
   60SAPC  H15B 4579   0.424   1.017  10.878  0.6292  0.5748  1.3823
   60SAPC  H15C 4580   0.314   0.887  10.834  1.4896 -0.1800 -1.4107
   60SAPC   C11 4581   0.741   0.721  10.962  0.8074 -0.5531 -0.1906
   60SAPC  H11A 4582   0.696   0.625  10.928  1.2007  0.0394 -2.4737
   60SAPC  H11B 4583   0.795   0.703  11.057 -0.7057 -1.2007  0.5659
   60SAPC     P 4584   0.892   0.663  10.758 -0.3726 -0.1771 -0.2407
   60SAPC   O13 4585   1.030   0.657  10.806 -0.0556  0.2607  0.0924
   60SAPC   O14 4586   0.816   0.533  10.752 -0.8118  0.5531 -0.7574
   60SAPC   O12 4587   0.816   0.771  10.849  0.3992  0.1659  0.2572
   60SAPC   O11 4588   0.868   0.721  10.623  0.0636  0.5659 -0.5727
   60SAPC    C1 4589   0.863   0.862  10.594 -0.1495  0.3645  0.9742
   60SAPC    HA 4590   0.771   0.889  10.538  2.0946 -0.0084 -3.0743
   60SAPC    HB 4591   0.868   0.933  10.680 -0.0375  1.3778  0.1456
   60SAPC    C2 4592   0.981   0.898  10.502  0.2732  0.4121 -0.0281
   60SAPC    HS 4593   0.959   0.995  10.451  2.2363  0.4746 -0.7981
   60SAPC   O21 4594   1.025   0.802  10.408  0.9797 -0.3788 -0.3788
   60SAPC   C21 4595   0.933   0.791  10.300 -0.3616 -0.1834  0.1175
   60SAPC   O22 4596   0.836   0.864  10.281  0.1736  0.4564  0.1301
   60SAPC   C22 4597   0.982   0.687  10.196 -0.5658 -0.0510  0.2291
   60SAPC   H2R 4598   1.083   0.706  10.153 -0.4749 -0.5628  0.2104
   60SAPC   H2S 4599   1.003   0.599  10.260  0.9757  1.0444  1.2841
   60SAPC    C3 4600   1.101   0.928  10.594 -0.0445  0.5659  0.4282
   60SAPC    HX 4601   1.140   0.829  10.628  2.3616  1.8901  1.7042
   60SAPC    HY 4602   1.076   0.982  10.689 -0.9307  0.5211  0.2253
   60SAPC   O31 4603   1.215   0.990  10.529  0.6974 -0.1732 -0.2520
   60SAPC   C31 4604   1.197   1.118  10.511  0.8087 -0.2236 -0.2784
   60SAPC   O32 4605   1.109   1.191  10.550  0.3203  0.1161  0.4894
   60SAPC   C32 4606   1.307   1.179  10.414  0.0693  0.8413 -0.1323
   60SAPC   H2X 4607   1.397   1.115  10.427  0.7551  1.6977 -0.5802
   60SAPC   H2Y 4608   1.332   1.277  10.462  1.9827  0.1413  0.3665
   60SAPC   C23 4609   0.885   0.660  10.082  0.0443  0.7334 -0.4826
   60SAPC   H3R 4610   0.902   0.745  10.013  0.0718  1.9478  0.9824
   60SAPC   H3S 4611   0.779   0.670  10.116  0.6130  4.3947  0.5018
   60SAPC   C24 4612   0.901   0.518  10.019  0.0100  0.2298 -0.3622
   60SAPC   H4R 4613   0.815   0.489   9.955 -1.2575 -1.4424  2.0523
   60SAPC   H4S 4614   0.900   0.436  10.094  0.2445 -1.2504 -1.9353
   60SAPC   C25 4615   1.020   0.508   9.919 -0.0010 -0.0965 -0.8367
   60SAPC   H5R 4616   1.103   0.444   9.953 -0.6215 -0.1436  0.6521
   60SAPC   C26 4617   1.041   0.579   9.810  0.0750  0.3400 -0.0693
   60SAPC   H6R 4618   1.133   0.559   9.755  1.1184  0.3983  1.6022
   60SAPC   C27 4619   0.952   0.686   9.757  0.2743 -0.0149  0.3433
   60SAPC   H7R 4620   0.999   0.785   9.775  0.9551 -0.2070 -0.3278
   60SAPC   H7S 4621   0.861   0.689   9.820  0.6089 -2.9827  1.0712
   60SAPC   C28 4622   0.920   0.674   9.615 -0.0406 -0.1284 -0.4520
   60SAPC   H8R 4623   0.815   0.646   9.597 -0.9978  2.9176  0.1413
   60SAPC   C29 4624   0.993   0.700   9.505 -0.1431  0.0133  0.5224
   60SAPC   H9R 4625   0.947   0.683   9.407  1.0666 -0.1338 -0.0230
   60SAPC  C210 4626   1.134   0.753   9.493 -0.0124  1.0575 -0.7986
   60SAPC  H10R 4627   1.188   0.659   9.469  0.3597  1.2634 -0.7659
   60SAPC  H10S 4628   1.189   0.798   9.577  2.2247  2.2200 -2.8235
   60SAPC  C211 4629   1.155   0.848   9.377 -0.3874  0.0007 -0.1648
   60SAPC  H11R 4630   1.114   0.947   9.400  0.7202  0.0451  1.7141
   60SAPC  C212 4631   1.195   0.835   9.248 -0.3114  0.1911 -0.4338
   60SAPC  H12R 4632   1.195   0.928   9.190  0.8421  0.9214  0.7061
   60SAPC  C213 4633   1.244   0.712   9.174  0.0070  0.5097  0.3727
   60SAPC  H13R 4634   1.265   0.639   9.254  3.8622 -0.5478 -1.4805
   60SAPC  H13S 4635   1.341   0.742   9.128  0.3585 -0.6323  0.3603
   60SAPC  C214 4636   1.155   0.640   9.075 -0.3259  0.3906  0.2340
   60SAPC  H14R 4637   1.078   0.576   9.119  0.5474  0.4414  1.8488
   60SAPC  C215 4638   1.152   0.666   8.945  0.2613  0.4638 -0.4216
   60SAPC  H15R 4639   1.076   0.609   8.890  0.7994 -0.3181 -0.3543
   60SAPC  C216 4640   1.237   0.755   8.853 -0.6520  0.2393 -0.6730
   60SAPC  H16R 4641   1.340   0.720   8.873 -0.9773  0.5679  1.7759
   60SAPC  H16S 4642   1.240   0.861   8.888  2.5776 -0.0873  0.1668
   60SAPC  C217 4643   1.195   0.739   8.705 -0.0506  0.1930  0.0996
   60SAPC  H17R 4644   1.229   0.818   8.635  1.0317 -0.4442 -0.1133
   60SAPC  H17S 4645   1.085   0.752   8.707 -0.0925 -0.3169  1.4624
   60SAPC  C218 4646   1.225   0.600   8.650  0.7441  0.5760  0.4967
   60SAPC  H18R 4647   1.142   0.565   8.585 -1.2762  1.0183  2.7700
   60SAPC  H18S 4648   1.234   0.533   8.738  2.7801 -0.3523 -0.3930
   60SAPC  C219 4649   1.352   0.593   8.560 -0.3101 -0.1055  0.0716
   60SAPC  H19R 4650   1.438   0.619   8.626  1.4195 -1.7590 -1.4883
   60SAPC  H19S 4651   1.352   0.665   8.476 -3.2976 -0.3330 -0.1904
   60SAPC  C220 4652   1.365   0.446   8.507 -0.1587 -0.7589  0.0072
   60SAPC  H20R 4653   1.268   0.393   8.500  0.6509 -2.1496 -1.1108
   60SAPC  H20S 4654   1.427   0.387   8.577 -0.2235  1.0028  1.5716
   60SAPC  H20T 4655   1.429   0.440   8.416 -0.2303  1.2443 -0.1917
   60SAPC   C33 4656   1.249   1.193  10.274  0.4073  0.2082  0.5130
   60SAPC   H3X 4657   1.320   1.231  10.197 -0.9504  0.3588 -0.7034
   60SAPC   H3Y 4658   1.165   1.265  10.282  0.9108  0.8683 -0.0581
   60SAPC   C34 4659   1.195   1.058  10.221 -0.5277 -0.4100 -1.2234
   60SAPC   H4X 4660   1.102   1.041  10.280 -1.0942  1.8966 -1.4091
   60SAPC   H4Y 4661   1.270   0.976  10.228  0.4042  0.5686  0.7058
   60SAPC   C35 4662   1.141   1.064  10.076 -0.3046 -0.2841  0.1404
   60SAPC   H5X 4663   1.087   1.160  10.065  0.2730 -0.0218 -0.4602
   60SAPC   H5Y 4664   1.065   0.985  10.058 -0.9520 -0.0681  1.9141
   60SAPC   C36 4665   1.258   1.069   9.979  0.5158  0.4241 -0.4623
   60SAPC   H6X 4666   1.330   0.984   9.984  0.4011  0.4080  1.0797
   60SAPC   H6Y 4667   1.320   1.157  10.004 -0.7054  0.9480  0.7989
   60SAPC   C37 4668   1.204   1.069   9.837 -0.1739 -0.2884  0.6943
   60SAPC   H7X 4669   1.125   1.147   9.836  0.4144  0.3120  0.2108
   60SAPC   H7Y 4670   1.164   0.969   9.810 -0.3250  0.2040 -1.0233
   60SAPC   C38 4671   1.319   1.111   9.730 -0.6876 -0.3123 -0.4561
   60SAPC   H8X 4672   1.390   1.028   9.712  0.1794  0.0528  1.1398
   60SAPC   H8Y 4673   1.380   1.197   9.767 -0.0227  0.0340 -2.2948
   60SAPC   C39 4674   1.253   1.153   9.591 -0.1713  0.4590 -0.3026
   60SAPC   H9X 4675   1.199   1.250   9.595 -1.7954 -0.3926 -1.1862
   60SAPC   H9Y 4676   1.179   1.072   9.574 -0.3425  0.7378 -0.8998
   60SAPC  C310 4677   1.368   1.164   9.487  0.4617  0.5321  0.4603
   60SAPC  H10X 4678   1.416   1.064   9.486 -1.2609 -0.3192  1.8971
   60SAPC  H10Y 4679   1.444   1.237   9.521  1.7248 -1.3889  1.8558
   60SAPC  C311 4680   1.307   1.198   9.350  0.4074 -0.7474  1.2841
   60SAPC  H11X 4681   1.292   1.308   9.357 -0.0538 -0.5816 -1.7886
   60SAPC  H11Y 4682   1.205   1.154   9.354 -1.0957  2.0119 -2.7967
   60SAPC  C312 4683   1.397   1.155   9.233  0.4877 -0.8015  0.2357
   60SAPC  H12X 4684   1.387   1.046   9.214  1.3549 -1.1489  1.6621
   60SAPC  H12Y 4685   1.501   1.184   9.262  0.4868  0.0641 -0.5759
   60SAPC  C313 4686   1.359   1.227   9.104  0.1964  0.4224 -0.4059
   60SAPC  H13X 4687   1.397   1.330   9.112 -0.7084  0.7355 -0.0817
   60SAPC  H13Y 4688   1.249   1.217   9.090  0.5716 -1.1866 -2.5127
   60SAPC  C314 4689   1.409   1.173   8.972  0.3176  0.3380  0.7162
   60SAPC  H14X 4690   1.396   1.064   8.957 -1.5854  0.9269 -2.4365
   60SAPC  H14Y 4691   1.519   1.185   8.970  0.8147 -3.6223  1.3843
   60SAPC  C315 4692   1.341   1.241   8.849  0.5361 -0.7962 -0.3229
   60SAPC  H15X 4693   1.339   1.352   8.852  5.0677 -0.6193 -0.2741
   60SAPC  H15Y 4694   1.240   1.195   8.858  0.2430 -0.0474  0.2267
   60SAPC  C316 4695   1.414   1.193   8.720 -0.0965 -0.5190 -0.7695
   60SAPC  H16X 4696   1.329   1.196   8.649  1.1348  1.6665 -2.2274
   60SAPC  H16Y 4697   1.449   1.089   8.733  1.5960  0.1673  0.2883
   60SAPC  C317 4698   1.525   1.294   8.685  0.7607 -0.9296  0.0174
   60SAPC  H17X 4699   1.622   1.241   8.696  1.4980  0.6139  1.0257
   60SAPC  H17Y 4700   1.528   1.373   8.763 -2.3112 -1.1843  0.4584
   60SAPC  C318 4701   1.504   1.346   8.542 -0.0808  1.0835 -0.0124
   60SAPC  H18X 4702   1.519   1.270   8.463  0.3285 -0.5055  1.5723
   60SAPC  H18Y 4703   1.582   1.422   8.519 -1.3572  1.7827 -2.1144
   60SAPC  H18Z 4704   1.408   1.401   8.534  0.2143  2.0171  2.3101
   61SAPC     N 4705   2.344   6.553  11.150  0.4647  0.3731 -0.0125
   61SAPC   C12 4706   2.328   6.687  11.076  1.0039  0.1478 -0.1327
   61SAPC  H12A 4707   2.273   6.746  11.148 -2.1774 -1.5818 -1.0612
   61SAPC  H12B 4708   2.255   6.669  10.999 -2.7597  0.9919  3.0444
   61SAPC   C13 4709   2.216   6.482  11.176 -0.6916 -0.4903  0.3159
   61SAPC  H13A 4710   2.228   6.396  11.240  0.3020 -0.5499  0.0496
   61SAPC  H13B 4711   2.140   6.550  11.211  0.1147  1.8181 -2.2482
   61SAPC  H13C 4712   2.183   6.440  11.082  0.2982 -0.6066  0.0209
   61SAPC   C14 4713   2.431   6.452  11.072 -0.4717 -0.3271  0.8668
   61SAPC  H14A 4714   2.422   6.357  11.124 -0.7748 -0.2946  0.8708
   61SAPC  H14B 4715   2.424   6.454  10.964 -1.0494  2.4322  0.9233
   61SAPC  H14C 4716   2.534   6.477  11.093  0.1290 -1.5362 -0.5027
   61SAPC   C15 4717   2.410   6.576  11.281  0.4623  0.4329 -0.0891
   61SAPC  H15A 4718   2.431   6.488  11.340  0.2284  0.2437 -0.2891
   61SAPC  H15B 4719   2.498   6.637  11.268  0.4323  0.6557  0.6873
   61SAPC  H15C 4720   2.339   6.630  11.342 -2.6378 -2.5888 -0.8789
   61SAPC   C11 4721   2.461   6.760  11.030 -0.1656 -0.3296 -1.2971
   61SAPC  H11A 4722   2.538   6.768  11.110  0.0863 -1.4311 -1.4186
   61SAPC  H11B 4723   2.439   6.866  11.007  1.6161  0.0578 -1.2769
   61SAPC     P 4724   2.521   6.756  10.765  0.0076  0.6681 -0.0758
   61SAPC   O13 4725   2.498   6.903  10.775 -0.4491  0.2399  0.4069
   61SAPC   O14 4726   2.635   6.703  10.683 -0.0793  0.0436  0.3344
   61SAPC   O12 4727   2.519   6.698  10.914 -0.3164  0.0468  0.3669
   61SAPC   O11 4728   2.387   6.688  10.707  0.1749  0.4967 -0.2011
   61SAPC    C1 4729   2.356   6.554  10.705  0.0921  0.7285 -0.1051
   61SAPC    HA 4730   2.449   6.499  10.681  1.3176  2.0036  1.5336
   61SAPC    HB 4731   2.321   6.529  10.808 -2.5852 -0.6504 -1.2929
   61SAPC    C2 4732   2.251   6.519  10.591 -0.3407 -0.1415  0.0788
   61SAPC    HS 4733   2.167   6.593  10.589 -0.5310 -0.3567  0.0973
   61SAPC   O21 4734   2.200   6.383  10.610 -0.2215 -0.2089  0.3612
   61SAPC   C21 4735   2.100   6.360  10.536  1.0185  0.0379  0.6768
   61SAPC   O22 4736   2.026   6.444  10.486 -0.0599 -0.0298  0.4140
   61SAPC   C22 4737   2.081   6.210  10.526 -0.4683  0.3965 -0.6507
   61SAPC   H2R 4738   2.182   6.163  10.525 -0.1499  0.9323 -4.7950
   61SAPC   H2S 4739   2.030   6.182  10.620 -0.1523  2.0574  0.0394
   61SAPC    C3 4740   2.327   6.533  10.457 -0.2591 -0.2349 -0.7231
   61SAPC    HX 4741   2.419   6.472  10.470  0.8287  1.6911  0.9166
   61SAPC    HY 4742   2.369   6.636  10.460 -0.1231 -0.3280  1.9370
   61SAPC   O31 4743   2.260   6.501  10.329  0.4330 -0.3023 -0.3486
   61SAPC   C31 4744   2.219   6.609  10.263 -0.1996 -0.0472  0.0243
   61SAPC   O32 4745   2.239   6.726  10.291 -0.1428 -0.9359  0.2207
   61SAPC   C32 4746   2.143   6.565  10.136 -0.6220 -0.5890 -0.3337
   61SAPC   H2X 4747   2.066   6.642  10.116 -0.4259 -0.0572  0.9182
   61SAPC   H2Y 4748   2.101   6.464  10.157 -0.2439 -1.2349 -2.5472
   61SAPC   C23 4749   2.009   6.156  10.401 -0.3200  0.0608 -0.4982
   61SAPC   H3R 4750   1.970   6.240  10.339  0.0781  1.2808  0.8852
   61SAPC   H3S 4751   1.926   6.086  10.426 -0.5544  0.1045 -1.1507
   61SAPC   C24 4752   2.108   6.070  10.310  0.0935  0.6021  0.5250
   61SAPC   H4R 4753   2.048   6.028  10.227 -0.7684  0.6053  1.1444
   61SAPC   H4S 4754   2.132   5.986  10.379 -1.8666  0.4381  1.0544
   61SAPC   C25 4755   2.234   6.124  10.255  0.9738 -0.8637 -0.4099
   61SAPC   H5R 4756   2.305   6.158  10.332  1.2276 -1.0912 -0.5405
   61SAPC   C26 4757   2.276   6.132  10.128 -0.4602 -0.2484  0.3470
   61SAPC   H6R 4758   2.379   6.170  10.116 -0.4049 -0.2675  0.7427
   61SAPC   C27 4759   2.203   6.104   9.995 -0.0468 -0.3552 -0.1808
   61SAPC   H7R 4760   2.154   6.188   9.943 -2.5434 -0.2521  2.2098
   61SAPC   H7S 4761   2.113   6.043  10.016  0.6994 -1.7767 -1.0544
   61SAPC   C28 4762   2.291   6.025   9.905 -0.6475 -0.1009 -0.3245
   61SAPC   H8R 4763   2.371   5.968   9.956  0.3944  0.4957 -1.2635
   61SAPC   C29 4764   2.292   6.019   9.773 -0.8814 -0.2676  0.5186
   61SAPC   H9R 4765   2.355   5.943   9.725 -0.8794 -0.4668  0.8352
   61SAPC  C210 4766   2.211   6.098   9.682  0.3431 -0.1871  0.1639
   61SAPC  H10R 4767   2.243   6.202   9.700  3.1314 -1.1953  1.2896
   61SAPC  H10S 4768   2.106   6.099   9.718  0.6005  1.5408  0.9142
   61SAPC  C211 4769   2.222   6.061   9.539 -0.4612 -0.0065  0.6269
   61SAPC  H11R 4770   2.320   6.020   9.512 -0.1524  0.3047  1.2537
   61SAPC  C212 4771   2.126   6.063   9.446 -0.2670 -0.5918  0.5067
   61SAPC  H12R 4772   2.140   6.012   9.349 -2.2646  1.4892 -0.9314
   61SAPC  C213 4773   1.985   6.112   9.481  0.0685  0.0507 -0.2856
   61SAPC  H13R 4774   1.950   6.168   9.392  0.0054  1.8734  0.8791
   61SAPC  H13S 4775   1.989   6.179   9.569  1.6523 -0.5914  0.1475
   61SAPC  C214 4776   1.890   5.991   9.508 -0.5561  0.6457  0.2888
   61SAPC  H14R 4777   1.906   5.891   9.463  1.1549  1.2051 -0.4219
   61SAPC  C215 4778   1.780   5.990   9.584 -0.2071 -0.5915 -0.9174
   61SAPC  H15R 4779   1.718   5.899   9.579 -0.2684 -0.6735  0.9676
   61SAPC  C216 4780   1.729   6.106   9.655 -0.3106 -0.7274 -0.9925
   61SAPC  H16R 4781   1.618   6.113   9.645 -0.3630 -0.4936 -0.2977
   61SAPC  H16S 4782   1.765   6.207   9.627  0.2678 -0.6603 -0.0151
   61SAPC  C217 4783   1.770   6.077   9.800 -0.7323 -0.3161  0.4267
   61SAPC  H17R 4784   1.876   6.099   9.823 -0.5046 -0.9162 -0.0365
   61SAPC  H17S 4785   1.754   5.970   9.825  2.2263 -1.1589 -1.0378
   61SAPC  C218 4786   1.687   6.163   9.900  0.4901  0.3711  0.5510
   61SAPC  H18R 4787   1.586   6.118   9.905 -0.1397  1.7647  0.3522
   61SAPC  H18S 4788   1.687   6.271   9.874  0.0320  0.3473  0.4605
   61SAPC  C219 4789   1.747   6.153  10.045 -0.4782  0.5686  0.5161
   61SAPC  H19R 4790   1.682   6.205  10.118 -1.2879 -1.4979  1.3090
   61SAPC  H19S 4791   1.839   6.214  10.048 -1.2292  1.7236  0.5694
   61SAPC  C220 4792   1.785   6.012  10.090 -0.8104  0.0055 -0.1761
   61SAPC  H20R 4793   1.779   6.006  10.201 -0.8928 -0.9167 -0.2200
   61SAPC  H20S 4794   1.886   5.981  10.057  0.5177  2.2279  1.6258
   61SAPC  H20T 4795   1.708   5.939  10.056 -1.9742  0.0008  2.2941
   61SAPC   C33 4796   2.235   6.562  10.010 -0.1931 -0.5463 -1.0009
   61SAPC   H3X 4797   2.295   6.469  10.002  0.1597 -0.1555 -3.3516
   61SAPC   H3Y 4798   2.310   6.643  10.025  0.3602 -1.2998  0.3033
   61SAPC   C34 4799   2.175   6.606   9.879  0.1967 -0.1939 -0.3356
   61SAPC   H4X 4800   2.244   6.620   9.793  0.0318 -0.9819 -0.6011
   61SAPC   H4Y 4801   2.137   6.709   9.890  1.0071  0.2448 -1.4988
   61SAPC   C35 4802   2.065   6.507   9.835  0.1112  0.3853 -0.3092
   61SAPC   H5X 4803   1.976   6.508   9.901  1.1067  0.7584  1.0521
   61SAPC   H5Y 4804   2.110   6.405   9.837 -0.2752  0.2343  1.3720
   61SAPC   C36 4805   1.998   6.534   9.703  0.1567 -0.4882 -0.2334
   61SAPC   H6X 4806   1.968   6.641   9.689  0.6330  0.3121  4.1950
   61SAPC   H6Y 4807   1.906   6.476   9.680  0.3606  0.8726 -5.0680
   61SAPC   C37 4808   2.082   6.484   9.579  0.7134  0.0273  0.2835
   61SAPC   H7X 4809   2.096   6.374   9.591 -0.6026  0.0089  1.7476
   61SAPC   H7Y 4810   2.179   6.537   9.591 -0.2057  2.6330 -3.0051
   61SAPC   C38 4811   2.022   6.528   9.448  0.5652 -0.2719  0.5320
   61SAPC   H8X 4812   1.955   6.616   9.453  0.0012 -0.6148 -0.7280
   61SAPC   H8Y 4813   1.953   6.448   9.413  0.2874  1.4088 -2.9738
   61SAPC   C39 4814   2.128   6.564   9.342 -0.2306  0.1173 -0.1282
   61SAPC   H9X 4815   2.200   6.479   9.338  0.7738  0.7543  3.1813
   61SAPC   H9Y 4816   2.185   6.651   9.381 -0.8991  0.5877 -0.1980
   61SAPC  C310 4817   2.065   6.606   9.208 -0.2584  0.0983  0.2682
   61SAPC  H10X 4818   2.134   6.665   9.144 -0.7665  2.5824  1.9170
   61SAPC  H10Y 4819   1.975   6.668   9.231 -0.5678  1.4042 -3.9309
   61SAPC  C311 4820   2.014   6.478   9.137  0.2993 -0.7379  0.2728
   61SAPC  H11X 4821   1.908   6.496   9.110  0.5977 -1.6588 -1.5967
   61SAPC  H11Y 4822   2.008   6.399   9.215  0.8878  1.2303  2.3463
   61SAPC  C312 4823   2.107   6.439   9.029 -0.7436 -0.0635  0.0991
   61SAPC  H12X 4824   2.209   6.424   9.070 -0.1803  2.1836 -0.4155
   61SAPC  H12Y 4825   2.114   6.521   8.955 -0.9838 -1.4159 -1.4815
   61SAPC  C313 4826   2.065   6.307   8.957 -1.3509 -0.8728 -0.4441
   61SAPC  H13X 4827   2.118   6.299   8.860  1.1085  0.8753  0.7107
   61SAPC  H13Y 4828   1.959   6.327   8.931 -0.8732 -0.2805 -2.0099
   61SAPC  C314 4829   2.078   6.175   9.035 -0.0795 -0.0942 -0.8413
   61SAPC  H14X 4830   2.041   6.199   9.138 -1.1260  0.0430 -1.2443
   61SAPC  H14Y 4831   2.185   6.148   9.046 -0.6660 -2.4938 -0.7082
   61SAPC  C315 4832   2.014   6.046   8.976 -0.3189 -0.2681  0.6051
   61SAPC  H15X 4833   2.068   6.026   8.881  0.5362 -0.2488  1.0784
   61SAPC  H15Y 4834   1.906   6.066   8.964 -0.1668  1.4692  1.9240
   61SAPC  C316 4835   2.036   5.935   9.075  0.3134  1.2266 -0.9353
   61SAPC  H16X 4836   2.000   5.968   9.174  1.2410  0.8257 -0.4568
   61SAPC  H16Y 4837   2.141   5.918   9.106 -0.2371 -1.1777 -0.2877
   61SAPC  C317 4838   1.961   5.797   9.048 -0.4554 -0.3462 -0.4129
   61SAPC  H17X 4839   1.852   5.814   9.062 -0.2700  0.0133  0.7065
   61SAPC  H17Y 4840   2.003   5.710   9.104  2.0065 -0.0685 -1.7586
   61SAPC  C318 4841   1.975   5.753   8.900  0.1299  0.2444  0.2053
   61SAPC  H18X 4842   1.949   5.824   8.819 -0.4221  0.9515  0.9918
   61SAPC  H18Y 4843   1.902   5.670   8.889 -0.0218  0.3865  0.1378
   61SAPC  H18Z 4844   2.079   5.717   8.883 -0.0684 -0.0891 -0.3265
   62SAPC     N 4845   0.937   5.035  10.804  1.3504 -0.1399  0.2145
   62SAPC   C12 4846   0.964   5.029  10.654 -0.8006  0.3142 -0.1429
   62SAPC  H12A 4847   0.873   5.052  10.602 -1.2452  3.6627  1.9847
   62SAPC  H12B 4848   0.990   4.929  10.620  1.0750  0.4612  0.7628
   62SAPC   C13 4849   1.056   4.992  10.871  0.0293 -0.4664 -0.8766
   62SAPC  H13A 4850   1.051   5.010  10.977 -1.7744 -0.2404 -0.9932
   62SAPC  H13B 4851   1.077   4.887  10.855  1.3101 -0.7071  1.9995
   62SAPC  H13C 4852   1.141   5.044  10.829 -0.5972  1.2976  0.0083
   62SAPC   C14 4853   0.906   5.179  10.834 -0.7384  0.8203 -1.0094
   62SAPC  H14A 4854   0.878   5.207  10.934 -2.9081  0.1593 -1.4033
   62SAPC  H14B 4855   0.988   5.239  10.797  1.4901 -2.5475 -1.6962
   62SAPC  H14C 4856   0.821   5.214  10.776 -0.3763 -0.3520 -2.2751
   62SAPC   C15 4857   0.814   4.944  10.828  0.3549  0.6976  0.1581
   62SAPC  H15A 4858   0.827   4.838  10.812 -0.8576  0.5865 -0.1533
   62SAPC  H15B 4859   0.772   4.970  10.925  0.9174  0.3733  0.4907
   62SAPC  H15C 4860   0.739   4.974  10.757 -1.7469 -1.9447  1.1810
   62SAPC   C11 4861   1.073   5.135  10.604  0.3952 -0.7845  0.1188
   62SAPC  H11A 4862   1.040   5.241  10.606 -1.0123 -1.2114  0.2565
   62SAPC  H11B 4863   1.093   5.121  10.495  0.8095  0.3487  0.0471
   62SAPC     P 4864   1.300   5.243  10.666 -0.1544 -0.1321  0.0506
   62SAPC   O13 4865   1.239   5.353  10.744  0.0458 -0.4972  0.1789
   62SAPC   O14 4866   1.440   5.205  10.707 -0.8255  0.1675  0.1245
   62SAPC   O12 4867   1.197   5.121  10.678  0.2802 -0.4638  0.3604
   62SAPC   O11 4868   1.301   5.286  10.514 -0.4001 -1.1592 -0.5043
   62SAPC    C1 4869   1.392   5.207  10.437 -0.5096  0.0731 -0.5541
   62SAPC    HA 4870   1.496   5.237  10.460 -0.8729  2.1918 -1.5326
   62SAPC    HB 4871   1.375   5.097  10.443  0.5768 -0.0301  0.7157
   62SAPC    C2 4872   1.379   5.243  10.283 -0.4594  0.0284 -0.0534
   62SAPC    HS 4873   1.409   5.156  10.220 -0.4337  0.0325 -0.0463
   62SAPC   O21 4874   1.459   5.354  10.252 -0.2765 -0.0985  0.6415
   62SAPC   C21 4875   1.509   5.358  10.125 -0.0098 -0.4493 -0.1642
   62SAPC   O22 4876   1.500   5.275  10.041  0.4575  0.4387  0.5683
   62SAPC   C22 4877   1.584   5.488  10.105 -0.0438  0.1190  0.2892
   62SAPC   H2R 4878   1.652   5.514  10.189  3.1799 -1.4260 -1.7581
   62SAPC   H2S 4879   1.651   5.454  10.024 -1.7374 -0.2113 -1.0035
   62SAPC    C3 4880   1.233   5.273  10.239  0.5080 -0.2976  0.1549
   62SAPC    HX 4881   1.196   5.366  10.287  0.6363 -0.3739  0.3975
   62SAPC    HY 4882   1.169   5.201  10.293 -0.6775  0.5845 -0.0385
   62SAPC   O31 4883   1.212   5.281  10.092  0.0991  0.0944  0.0919
   62SAPC   C31 4884   1.212   5.168  10.026  0.1482  0.2556 -0.2494
   62SAPC   O32 4885   1.221   5.060  10.078  0.1965  0.1692 -0.7873
   62SAPC   C32 4886   1.209   5.191   9.877 -0.5205 -0.4798 -0.1246
   62SAPC   H2X 4887   1.274   5.279   9.856 -0.6834 -0.7449 -1.8168
   62SAPC   H2Y 4888   1.104   5.215   9.850 -0.5856  0.5598  1.0142
   62SAPC   C23 4889   1.488   5.599  10.057  0.6708 -0.4390  0.0044
   62SAPC   H3R 4890   1.430   5.636  10.144  0.5986  0.1600 -0.2969
   62SAPC   H3S 4891   1.408   5.566   9.988 -0.6649  1.1839  0.7505
   62SAPC   C24 4892   1.572   5.719   9.997 -0.4246 -0.2736  0.5416
   62SAPC   H4R 4893   1.647   5.752  10.073  0.2147 -1.9505  0.6523
   62SAPC   H4S 4894   1.513   5.809   9.969 -1.6572 -0.3143  2.8864
   62SAPC   C25 4895   1.652   5.694   9.880  1.1432  0.4981  0.2453
   62SAPC   H5R 4896   1.759   5.674   9.900  0.3869  0.0253  4.1800
   62SAPC   C26 4897   1.607   5.693   9.755  0.2385 -0.0513 -0.0971
   62SAPC   H6R 4898   1.674   5.659   9.675 -0.1729 -0.0451 -0.4482
   62SAPC   C27 4899   1.465   5.715   9.714 -0.9717 -0.4142  0.1942
   62SAPC   H7R 4900   1.444   5.818   9.681  0.3908  0.2703  1.3819
   62SAPC   H7S 4901   1.388   5.687   9.790  1.0206 -0.6080  2.2018
   62SAPC   C28 4902   1.449   5.606   9.607 -0.4473  0.9479 -0.2633
   62SAPC   H8R 4903   1.383   5.527   9.647 -0.2120  1.3938  1.0130
   62SAPC   C29 4904   1.469   5.610   9.472 -0.1516  0.2366 -0.3799
   62SAPC   H9R 4905   1.445   5.516   9.421 -1.3254 -0.3156  1.1503
   62SAPC  C210 4906   1.524   5.726   9.403 -0.4437  0.1529 -0.6063
   62SAPC  H10R 4907   1.633   5.709   9.397 -0.3446  1.5231 -3.4178
   62SAPC  H10S 4908   1.519   5.821   9.460 -0.8666 -0.0459 -0.3074
   62SAPC  C211 4909   1.447   5.735   9.274  0.1503  0.4144  0.4163
   62SAPC  H11R 4910   1.358   5.669   9.276  0.5702 -0.2293 -1.1351
   62SAPC  C212 4911   1.491   5.799   9.174 -0.0195 -0.5593 -0.7301
   62SAPC  H12R 4912   1.421   5.820   9.092 -0.4825 -0.0962 -0.2227
   62SAPC  C213 4913   1.610   5.898   9.163  0.8596 -0.1651  0.9184
   62SAPC  H13R 4914   1.647   5.895   9.058  1.1536 -0.3695  1.0256
   62SAPC  H13S 4915   1.694   5.869   9.230  0.6931  2.3962  2.2740
   62SAPC  C214 4916   1.580   6.038   9.223 -0.0196  0.0619  0.2962
   62SAPC  H14R 4917   1.599   6.045   9.331  0.3394  2.0935  0.1311
   62SAPC  C215 4918   1.550   6.153   9.159  0.9908  0.3249 -0.4936
   62SAPC  H15R 4919   1.572   6.237   9.226 -0.2619  0.0445  0.2705
   62SAPC  C216 4920   1.531   6.186   9.014  1.2419  0.4480 -0.8915
   62SAPC  H16R 4921   1.431   6.234   9.016  0.1564 -1.7912  0.6397
   62SAPC  H16S 4922   1.516   6.095   8.953 -2.8538  0.7432 -0.4334
   62SAPC  C217 4923   1.638   6.273   8.953  0.2406 -0.1672  0.1823
   62SAPC  H17R 4924   1.727   6.207   8.945 -0.4890 -1.1033 -0.4612
   62SAPC  H17S 4925   1.669   6.356   9.018  2.3398 -1.5531  0.9965
   62SAPC  C218 4926   1.591   6.322   8.822 -0.3565  0.1045  0.1225
   62SAPC  H18R 4927   1.519   6.404   8.843 -2.1688 -1.7663  1.4851
   62SAPC  H18S 4928   1.538   6.243   8.764 -0.9175  0.6293 -0.0921
   62SAPC  C219 4929   1.707   6.380   8.744 -0.7365 -0.1739 -0.6789
   62SAPC  H19R 4930   1.691   6.355   8.637  1.2302  2.6951 -1.7070
   62SAPC  H19S 4931   1.791   6.314   8.775 -0.8280 -0.6915 -1.5066
   62SAPC  C220 4932   1.745   6.524   8.777  0.0319  0.0248 -0.0046
   62SAPC  H20R 4933   1.655   6.585   8.802  0.2153  0.1627  0.3112
   62SAPC  H20S 4934   1.800   6.567   8.691 -1.4653 -0.0851 -1.0457
   62SAPC  H20T 4935   1.815   6.529   8.863 -1.1084  2.5225  0.8141
   62SAPC   C33 4936   1.235   5.064   9.795  0.1724  0.9789 -0.1333
   62SAPC   H3X 4937   1.156   4.990   9.822 -0.5919  1.8410  0.0062
   62SAPC   H3Y 4938   1.331   5.013   9.816  0.4357  1.2719 -0.6300
   62SAPC   C34 4939   1.225   5.079   9.644  0.3142  0.9013 -0.4611
   62SAPC   H4X 4940   1.303   5.152   9.616 -0.0153  1.5869  0.4021
   62SAPC   H4Y 4941   1.131   5.125   9.607  0.9716  1.5830 -1.2953
   62SAPC   C35 4942   1.249   4.946   9.575 -0.2172 -0.0696 -0.0758
   62SAPC   H5X 4943   1.162   4.878   9.590 -0.2035 -0.9852 -3.7004
   62SAPC   H5Y 4944   1.340   4.895   9.613 -0.2551  0.6192  0.9490
   62SAPC   C36 4945   1.265   4.947   9.421 -1.0692 -0.4544  0.3744
   62SAPC   H6X 4946   1.171   4.993   9.384 -0.4138  0.7191  0.1071
   62SAPC   H6Y 4947   1.268   4.843   9.384 -3.3317 -0.2394 -0.4846
   62SAPC   C37 4948   1.384   5.026   9.367 -0.6838 -0.0151 -0.5444
   62SAPC   H7X 4949   1.472   4.987   9.422  0.3471  0.2701 -1.9618
   62SAPC   H7Y 4950   1.368   5.132   9.398 -0.9013 -0.6468  1.6060
   62SAPC   C38 4951   1.408   5.006   9.209  0.2033  0.2892 -0.0265
   62SAPC   H8X 4952   1.456   5.099   9.173 -0.5900  0.6430 -0.1810
   62SAPC   H8Y 4953   1.306   5.001   9.165 -0.2215 -0.0728  0.9705
   62SAPC   C39 4954   1.482   4.878   9.178 -0.0461 -0.3785  0.1946
   62SAPC   H9X 4955   1.410   4.805   9.221  1.6026 -2.1237  0.0423
   62SAPC   H9Y 4956   1.578   4.872   9.233 -0.5840 -0.3970  1.1444
   62SAPC  C310 4957   1.512   4.841   9.027  0.2807  0.4399 -0.5983
   62SAPC  H10X 4958   1.556   4.740   9.019  0.2887  0.4104 -0.2283
   62SAPC  H10Y 4959   1.596   4.908   9.003  1.0449  0.4012  1.7764
   62SAPC  C311 4960   1.386   4.862   8.935 -0.4044 -0.0938 -0.1099
   62SAPC  H11X 4961   1.367   4.971   8.944  0.4956 -0.0539  1.5450
   62SAPC  H11Y 4962   1.300   4.821   8.992 -0.5927 -1.2141 -1.1875
   62SAPC  C312 4963   1.410   4.803   8.797 -0.9724 -0.0285 -0.5254
   62SAPC  H12X 4964   1.424   4.693   8.803 -3.1118 -0.3795 -1.5797
   62SAPC  H12Y 4965   1.501   4.852   8.755 -0.5608 -0.7534 -0.5014
   62SAPC  C313 4966   1.297   4.843   8.699 -1.2776 -0.2891  0.4708
   62SAPC  H13X 4967   1.291   4.954   8.693  1.7611 -0.1843 -3.4644
   62SAPC  H13Y 4968   1.197   4.804   8.728 -1.2136 -2.5421 -2.0840
   62SAPC  C314 4969   1.324   4.784   8.558 -0.5601  0.3034  0.0600
   62SAPC  H14X 4970   1.354   4.677   8.557  0.3837  0.5689 -0.3969
   62SAPC  H14Y 4971   1.412   4.833   8.512  1.2526 -0.3084  2.7828
   62SAPC  C315 4972   1.200   4.807   8.456 -0.2332 -0.4748  0.4377
   62SAPC  H15X 4973   1.169   4.911   8.482 -1.2391 -0.4127 -0.9384
   62SAPC  H15Y 4974   1.120   4.739   8.492 -0.2920 -1.7681 -2.0545
   62SAPC  C316 4975   1.244   4.788   8.307  0.0250  0.5683 -0.3302
   62SAPC  H16X 4976   1.297   4.691   8.305  2.4236  1.8459 -1.4652
   62SAPC  H16Y 4977   1.325   4.858   8.279 -0.5208  1.5435  0.4884
   62SAPC  C317 4978   1.127   4.787   8.210  0.5267 -0.3093 -0.8901
   62SAPC  H17X 4979   1.082   4.888   8.196 -0.4917 -0.8790 -1.7469
   62SAPC  H17Y 4980   1.049   4.742   8.275 -0.4724  1.0569 -1.1312
   62SAPC  C318 4981   1.141   4.710   8.072  0.2645  0.4786 -0.7000
   62SAPC  H18X 4982   1.200   4.781   8.009  3.3848 -0.4426  1.0907
   62SAPC  H18Y 4983   1.043   4.699   8.022  0.6007  0.1352 -1.3027
   62SAPC  H18Z 4984   1.198   4.615   8.084  0.1340  0.9620  4.5113
   63SAPC     N 4985   5.594   3.638   6.012 -0.0167  0.5946 -0.6761
   63SAPC   C12 4986   5.572   3.536   6.122  0.3080 -0.2176 -0.2502
   63SAPC  H12A 4987   5.581   3.435   6.085  0.3601 -1.0513  1.9478
   63SAPC  H12B 4988   5.468   3.545   6.153  0.3328 -1.7413  0.3124
   63SAPC   C13 4989   5.738   3.644   5.977 -0.3229  0.3917 -0.2126
   63SAPC  H13A 4990   5.800   3.682   6.056  1.0420 -0.8587 -0.6574
   63SAPC  H13B 4991   5.777   3.547   5.951  2.0262  1.7548 -1.8876
   63SAPC  H13C 4992   5.751   3.710   5.893 -1.1005  1.3220  0.3926
   63SAPC   C14 4993   5.512   3.590   5.891  1.0175  0.5758  0.2720
   63SAPC  H14A 4994   5.406   3.580   5.913  0.1947 -0.1620 -3.6184
   63SAPC  H14B 4995   5.526   3.654   5.805 -1.3587 -0.6860 -1.1194
   63SAPC  H14C 4996   5.541   3.494   5.851  1.6066  0.7128  0.3629
   63SAPC   C15 4997   5.546   3.777   6.049 -0.0031  0.0558  1.1701
   63SAPC  H15A 4998   5.601   3.823   6.130 -0.1014  1.5379  0.4280
   63SAPC  H15B 4999   5.551   3.847   5.966  0.4250  0.5527  1.6071
   63SAPC  H15C 5000   5.446   3.776   6.089  0.2520 -1.9741  1.7901
   63SAPC   C11 5001   5.658   3.547   6.241  0.4028  0.2695  0.2656
   63SAPC  H11A 5002   5.766   3.534   6.216  0.0206 -1.6883 -0.4766
   63SAPC  H11B 5003   5.643   3.458   6.306 -1.8860 -0.3434 -1.0496
   63SAPC     P 5004   5.506   3.686   6.401  0.2387  0.0145  0.0546
   63SAPC   O13 5005   5.470   3.830   6.399 -0.4212  0.2225  0.0414
   63SAPC   O14 5006   5.401   3.588   6.360 -0.1884 -0.3374  0.2479
   63SAPC   O12 5007   5.635   3.666   6.314  0.2875 -0.1377  0.3001
   63SAPC   O11 5008   5.564   3.644   6.540 -0.4037  0.2047  0.6397
   63SAPC    C1 5009   5.702   3.652   6.583 -0.0226  0.2452  0.5951
   63SAPC    HA 5010   5.724   3.566   6.649 -2.1223 -0.2576  0.6659
   63SAPC    HB 5011   5.772   3.640   6.497  2.5419  0.0217  2.6506
   63SAPC    C2 5012   5.748   3.784   6.651 -0.1449  0.1328 -0.5065
   63SAPC    HS 5013   5.824   3.752   6.725 -0.8298  1.6182  0.8691
   63SAPC   O21 5014   5.645   3.846   6.727  0.1345  0.0679  0.1727
   63SAPC   C21 5015   5.617   3.784   6.837 -0.5144  0.3007  0.2050
   63SAPC   O22 5016   5.665   3.677   6.881 -0.4043  0.1677 -0.1485
   63SAPC   C22 5017   5.540   3.888   6.918 -0.0978 -0.1802  0.1823
   63SAPC   H2R 5018   5.616   3.957   6.960  0.5130 -0.0103 -1.1752
   63SAPC   H2S 5019   5.458   3.936   6.861  0.2352  0.5592  0.3180
   63SAPC    C3 5020   5.813   3.879   6.548 -0.0068 -0.3710  0.1603
   63SAPC    HX 5021   5.739   3.893   6.466  0.2702  1.6439  0.2300
   63SAPC    HY 5022   5.906   3.836   6.505 -0.7819 -1.9026 -0.0198
   63SAPC   O31 5023   5.854   4.005   6.606 -0.4444 -0.5430  0.6612
   63SAPC   C31 5024   5.778   4.114   6.577 -0.0217  0.1415 -0.3782
   63SAPC   O32 5025   5.690   4.118   6.494 -0.2804  0.1418 -0.6598
   63SAPC   C32 5026   5.820   4.225   6.668 -0.6276 -0.1308 -0.2944
   63SAPC   H2X 5027   5.880   4.299   6.611  1.0515 -1.6034 -0.4874
   63SAPC   H2Y 5028   5.893   4.181   6.740 -2.5428 -2.4391  0.3184
   63SAPC   C23 5029   5.474   3.825   7.041  0.3183  0.0809  0.4250
   63SAPC   H3R 5030   5.558   3.827   7.114  1.6004  0.1571 -1.0302
   63SAPC   H3S 5031   5.437   3.723   7.014 -0.0101  0.4191 -0.3961
   63SAPC   C24 5032   5.360   3.910   7.099 -0.2567  0.6434  0.6996
   63SAPC   H4R 5033   5.284   3.939   7.023  2.9724  2.3695 -1.9956
   63SAPC   H4S 5034   5.420   4.000   7.124  0.5196  0.7167 -1.3329
   63SAPC   C25 5035   5.317   3.851   7.232  0.0397  0.2176 -0.3001
   63SAPC   H5R 5036   5.241   3.772   7.231  1.8313 -1.5582  0.4602
   63SAPC   C26 5037   5.369   3.869   7.356 -0.4513 -0.4203 -0.2731
   63SAPC   H6R 5038   5.314   3.811   7.432 -2.8931  1.3076 -0.6588
   63SAPC   C27 5039   5.483   3.967   7.391  0.7507  0.7305 -0.1043
   63SAPC   H7R 5040   5.548   3.993   7.304  0.0625 -0.4718 -0.9953
   63SAPC   H7S 5041   5.541   3.922   7.474 -0.4477  1.5193  1.1957
   63SAPC   C28 5042   5.426   4.097   7.449 -0.4391 -0.7601  0.2723
   63SAPC   H8R 5043   5.361   4.147   7.376  2.7330  0.7994 -1.6346
   63SAPC   C29 5044   5.454   4.155   7.566  0.0316 -0.2586  0.1381
   63SAPC   H9R 5045   5.414   4.256   7.582 -0.0503 -0.1002 -1.0100
   63SAPC  C210 5046   5.539   4.105   7.680 -0.6613  0.1601 -0.4366
   63SAPC  H10R 5047   5.576   4.192   7.739  0.7719 -1.3029  0.8666
   63SAPC  H10S 5048   5.629   4.068   7.626 -1.4008  0.5673 -1.9864
   63SAPC  C211 5049   5.487   3.985   7.754  0.7833  0.5716  0.8041
   63SAPC  H11R 5050   5.448   3.911   7.683  0.9328  1.1425  0.1098
   63SAPC  C212 5051   5.478   3.968   7.888 -0.0107  0.5951 -0.7491
   63SAPC  H12R 5052   5.416   3.889   7.932  0.2752  1.0349  0.4712
   63SAPC  C213 5053   5.515   4.075   7.992 -0.6450  0.5336 -0.3532
   63SAPC  H13R 5054   5.429   4.145   8.000 -0.2973  0.7638  1.4621
   63SAPC  H13S 5055   5.591   4.150   7.963 -3.9722  4.4871  0.6427
   63SAPC  C214 5056   5.556   4.018   8.127 -0.1617  0.2517 -0.1753
   63SAPC  H14R 5057   5.662   3.993   8.139  0.2042  0.4424 -2.6728
   63SAPC  C215 5058   5.471   4.003   8.233  0.7297  0.5678  1.1326
   63SAPC  H15R 5059   5.503   3.964   8.331 -0.3471  0.3364  1.4075
   63SAPC  C216 5060   5.325   4.041   8.239  0.2724  0.3197 -0.1224
   63SAPC  H16R 5061   5.284   3.981   8.323 -1.0983  2.7449  0.9905
   63SAPC  H16S 5062   5.280   4.019   8.140  0.5029 -0.0961 -0.1340
   63SAPC  C217 5063   5.301   4.191   8.265  0.4365  0.8888 -0.3073
   63SAPC  H17R 5064   5.207   4.221   8.213  0.8297  0.7460 -1.1197
   63SAPC  H17S 5065   5.376   4.251   8.210 -0.4842  0.2680 -2.3171
   63SAPC  C218 5066   5.305   4.234   8.415 -0.7817  0.2834  0.4620
   63SAPC  H18R 5067   5.396   4.201   8.470 -1.2177  0.4005  1.2651
   63SAPC  H18S 5068   5.224   4.191   8.478 -1.4466  1.0026  0.0995
   63SAPC  C219 5069   5.283   4.385   8.444 -0.6480  0.4488 -0.7433
   63SAPC  H19R 5070   5.184   4.408   8.399 -1.2976  1.4486  1.1368
   63SAPC  H19S 5071   5.359   4.455   8.403 -0.7582  0.5799 -0.7236
   63SAPC  C220 5072   5.269   4.425   8.594 -0.4608 -0.1827  0.0111
   63SAPC  H20R 5073   5.358   4.392   8.652 -0.4206  1.6371  1.0360
   63SAPC  H20S 5074   5.176   4.381   8.635 -0.2618 -0.8425 -0.2457
   63SAPC  H20T 5075   5.265   4.535   8.614  0.6341  0.2849 -2.2431
   63SAPC   C33 5076   5.696   4.271   6.746 -0.3729  0.2884 -0.2132
   63SAPC   H3X 5077   5.631   4.184   6.770  2.3334 -1.8879 -0.5521
   63SAPC   H3Y 5078   5.644   4.344   6.679 -0.1166  1.6846  1.0700
   63SAPC   C34 5079   5.737   4.345   6.879 -0.5372  0.6637  0.8465
   63SAPC   H4X 5080   5.658   4.421   6.900 -2.4156 -1.0931  0.3509
   63SAPC   H4Y 5081   5.834   4.396   6.861 -0.3245 -0.4551 -1.2267
   63SAPC   C35 5082   5.750   4.252   6.997 -0.2688 -0.2970 -0.2430
   63SAPC   H5X 5083   5.803   4.162   6.961 -0.0772  0.0793 -0.9069
   63SAPC   H5Y 5084   5.653   4.214   7.036 -1.0433  2.0924  0.2979
   63SAPC   C36 5085   5.819   4.305   7.119  0.2385 -0.3568  0.2120
   63SAPC   H6X 5086   5.765   4.390   7.166 -0.0326  0.0964 -0.9214
   63SAPC   H6Y 5087   5.913   4.348   7.080  0.3587  0.2071  1.1128
   63SAPC   C37 5088   5.827   4.200   7.232 -0.0651  0.4696 -0.4694
   63SAPC   H7X 5089   5.869   4.103   7.197 -0.5120  0.2371 -0.3698
   63SAPC   H7Y 5090   5.719   4.183   7.255 -0.5952  0.4389 -2.9002
   63SAPC   C38 5091   5.905   4.255   7.358 -0.5985  0.0256 -0.6602
   63SAPC   H8X 5092   5.865   4.358   7.370  1.0460  0.5612  0.3787
   63SAPC   H8Y 5093   6.011   4.259   7.327 -0.4662  0.2839 -0.1941
   63SAPC   C39 5094   5.896   4.188   7.498 -0.1921  1.6564 -0.4055
   63SAPC   H9X 5095   5.932   4.083   7.496 -0.2455  1.5284  2.4077
   63SAPC   H9Y 5096   5.797   4.174   7.547  0.1950  0.9516  0.1878
   63SAPC  C310 5097   6.004   4.252   7.589 -0.8732 -0.3162  0.3959
   63SAPC  H10X 5098   5.985   4.361   7.587 -2.0282 -0.5078  0.5665
   63SAPC  H10Y 5099   6.103   4.230   7.543 -2.5708 -0.1480 -3.5391
   63SAPC  C311 5100   6.006   4.204   7.735  0.0687  0.2171  0.4289
   63SAPC  H11X 5101   6.051   4.103   7.753  0.2045  0.0562 -0.7879
   63SAPC  H11Y 5102   5.900   4.189   7.764 -0.6558 -0.4020 -2.4159
   63SAPC  C312 5103   6.072   4.313   7.831 -0.1129  0.3003  0.1528
   63SAPC  H12X 5104   6.025   4.409   7.799 -0.8999  0.8702  2.8104
   63SAPC  H12Y 5105   6.181   4.323   7.813  0.3385 -0.3338  2.3496
   63SAPC  C313 5106   6.040   4.306   7.987 -0.0580  0.2094  0.5509
   63SAPC  H13X 5107   6.105   4.388   8.026 -1.6864  1.0882  1.5156
   63SAPC  H13Y 5108   6.080   4.209   8.022 -0.4436  0.1705  0.8994
   63SAPC  C314 5109   5.896   4.321   8.038 -0.0953  0.3014 -0.4140
   63SAPC  H14X 5110   5.840   4.235   7.996 -1.1087  1.2753 -1.0796
   63SAPC  H14Y 5111   5.847   4.415   8.003 -1.2857  0.5788  1.8855
   63SAPC  C315 5112   5.887   4.315   8.187 -0.2545 -0.2261  0.8087
   63SAPC  H15X 5113   5.966   4.373   8.240  0.6914 -0.4494 -0.3421
   63SAPC  H15Y 5114   5.898   4.210   8.222  0.2401  0.1508  1.7900
   63SAPC  C316 5115   5.757   4.375   8.240  0.0554 -0.4214  0.3042
   63SAPC  H16X 5116   5.673   4.330   8.183 -1.1184  2.2907 -0.1873
   63SAPC  H16Y 5117   5.760   4.483   8.214  0.6755 -0.5396 -0.1268
   63SAPC  C317 5118   5.742   4.348   8.391  0.3510  0.4076  0.0116
   63SAPC  H17X 5119   5.831   4.397   8.436 -0.6163  0.9847  1.3053
   63SAPC  H17Y 5120   5.749   4.239   8.410  0.2469  0.2122 -1.0360
   63SAPC  C318 5121   5.609   4.398   8.460 -0.4955 -0.9791 -0.1724
   63SAPC  H18X 5122   5.528   4.360   8.394 -0.5946  0.2875 -0.7956
   63SAPC  H18Y 5123   5.599   4.507   8.478  0.6568 -1.0167  0.7659
   63SAPC  H18Z 5124   5.593   4.362   8.564  0.5996 -2.2472 -0.4365
   64SAPC     N 5125   0.635   5.218   5.812 -0.1668  0.2292  0.4455
   64SAPC   C12 5126   0.619   5.117   5.699 -0.2883  0.5577  0.6156
   64SAPC  H12A 5127   0.692   5.146   5.625  1.3513  1.1842  2.4359
   64SAPC  H12B 5128   0.522   5.131   5.653 -0.9936  0.0577  1.9389
   64SAPC   C13 5129   0.537   5.183   5.917 -0.2771 -0.5976  0.0274
   64SAPC  H13A 5130   0.438   5.174   5.874 -1.4718  0.6812  2.4194
   64SAPC  H13B 5131   0.555   5.091   5.970 -1.2658 -1.6445 -1.3972
   64SAPC  H13C 5132   0.526   5.256   5.995 -1.3548 -0.7525  0.0245
   64SAPC   C14 5133   0.780   5.214   5.867  0.5580  0.1204  0.4009
   64SAPC  H14A 5134   0.854   5.226   5.790  1.4978  1.0822  1.4335
   64SAPC  H14B 5135   0.804   5.295   5.935  0.2419  0.7591 -0.2401
   64SAPC  H14C 5136   0.787   5.118   5.917 -1.3498  0.3675  1.2071
   64SAPC   C15 5137   0.600   5.351   5.757 -0.1448 -0.0332 -0.7259
   64SAPC  H15A 5138   0.602   5.426   5.835  3.4445 -0.8298  0.0292
   64SAPC  H15B 5139   0.663   5.371   5.672 -0.0303 -0.4556 -0.7380
   64SAPC  H15C 5140   0.502   5.338   5.713  0.1358  0.5145 -1.5304
   64SAPC   C11 5141   0.629   4.963   5.724  0.2626  0.2276  0.2282
   64SAPC  H11A 5142   0.729   4.940   5.766 -0.6607 -0.4887  2.1115
   64SAPC  H11B 5143   0.625   4.916   5.624 -0.0281  0.3447  0.1825
   64SAPC     P 5144   0.534   4.790   5.892  0.1837  0.1060 -0.0497
   64SAPC   O13 5145   0.403   4.736   5.926 -0.2469  0.4053  0.5507
   64SAPC   O14 5146   0.616   4.685   5.832 -0.4518 -0.5563  0.8431
   64SAPC   O12 5147   0.517   4.921   5.804 -0.2751  0.5886 -0.3993
   64SAPC   O11 5148   0.587   4.836   6.030 -0.1063  0.5044 -0.6838
   64SAPC    C1 5149   0.727   4.852   6.056  0.0483  0.1045 -0.1485
   64SAPC    HA 5150   0.791   4.869   5.967  1.3388  1.2993  0.9612
   64SAPC    HB 5151   0.736   4.943   6.119 -1.5295 -0.9436  1.6425
   64SAPC    C2 5152   0.779   4.718   6.127 -0.5005 -0.7092  0.0170
   64SAPC    HS 5153   0.768   4.640   6.048  1.1356  0.4580 -1.4206
   64SAPC   O21 5154   0.703   4.705   6.252 -0.3412  0.1157  0.0500
   64SAPC   C21 5155   0.698   4.573   6.284  0.3958  0.0037 -0.2686
   64SAPC   O22 5156   0.742   4.481   6.215  0.3369 -0.2206  0.3717
   64SAPC   C22 5157   0.631   4.565   6.421  0.0944 -0.1562 -0.6656
   64SAPC   H2R 5158   0.697   4.606   6.501  2.1457 -0.5851 -2.0915
   64SAPC   H2S 5159   0.539   4.627   6.413  0.4720  0.1681 -2.8419
   64SAPC    C3 5160   0.926   4.747   6.167 -0.0668  0.2197  0.3819
   64SAPC    HX 5161   0.999   4.754   6.083  0.8377  4.8145  1.4366
   64SAPC    HY 5162   0.958   4.657   6.224 -0.1479  0.3949  0.7050
   64SAPC   O31 5163   0.938   4.869   6.241  1.0430 -0.1176  0.1172
   64SAPC   C31 5164   0.924   4.856   6.373 -0.3502  0.3323 -0.3153
   64SAPC   O32 5165   0.912   4.747   6.432 -0.2529 -0.0473  0.1472
   64SAPC   C32 5166   0.951   4.996   6.427  0.3212 -0.1745  0.2028
   64SAPC   H2X 5167   0.858   5.051   6.402 -0.8389 -0.9779  2.5638
   64SAPC   H2Y 5168   1.042   5.038   6.378  2.1707 -0.7078  3.0671
   64SAPC   C23 5169   0.588   4.420   6.467 -0.8517  0.4935  0.2179
   64SAPC   H3R 5170   0.673   4.352   6.444 -0.6041  1.2500 -1.1628
   64SAPC   H3S 5171   0.509   4.382   6.398 -0.7712 -1.5672  1.2203
   64SAPC   C24 5172   0.540   4.416   6.610 -0.5837  0.5319  0.2150
   64SAPC   H4R 5173   0.509   4.310   6.624  0.9210 -0.1414 -1.3286
   64SAPC   H4S 5174   0.457   4.488   6.620 -0.0977  1.3586 -1.5676
   64SAPC   C25 5175   0.651   4.448   6.708 -0.1215  0.2131  0.2443
   64SAPC   H5R 5176   0.729   4.372   6.722  0.8288  1.2398  0.6597
   64SAPC   C26 5177   0.671   4.557   6.789 -0.1474  0.3841  0.7232
   64SAPC   H6R 5178   0.763   4.561   6.848  0.4024  0.2963 -0.1260
   64SAPC   C27 5179   0.593   4.682   6.802 -0.8040 -0.5372  0.2524
   64SAPC   H7R 5180   0.493   4.659   6.846 -0.5722 -0.4078  0.8511
   64SAPC   H7S 5181   0.563   4.725   6.704  2.7581  0.9750 -0.2170
   64SAPC   C28 5182   0.673   4.786   6.876 -0.3838 -0.1599 -0.0179
   64SAPC   H8R 5183   0.701   4.874   6.816  0.9924 -1.3248 -1.1088
   64SAPC   C29 5184   0.721   4.786   7.001  0.1552 -0.2559  0.5622
   64SAPC   H9R 5185   0.772   4.877   7.035  0.3113  0.4829 -1.5828
   64SAPC  C210 5186   0.702   4.674   7.105 -0.1802 -0.0433  0.5867
   64SAPC  H10R 5187   0.682   4.580   7.050 -1.4966  1.6452 -1.9376
   64SAPC  H10S 5188   0.614   4.689   7.172 -1.6990 -0.7352 -1.1989
   64SAPC  C211 5189   0.821   4.651   7.196  0.3534  0.9255  0.1766
   64SAPC  H11R 5190   0.899   4.583   7.158 -0.7872 -0.3177  0.0291
   64SAPC  C212 5191   0.825   4.694   7.321  0.0842 -0.3249 -0.7773
   64SAPC  H12R 5192   0.907   4.644   7.373  1.2188 -0.4529 -2.6663
   64SAPC  C213 5193   0.727   4.777   7.404 -0.0428  0.9039  0.4718
   64SAPC  H13R 5194   0.648   4.828   7.345  1.2405 -0.4007 -2.4921
   64SAPC  H13S 5195   0.790   4.857   7.447  2.5187 -0.4220 -0.6537
   64SAPC  C214 5196   0.676   4.695   7.517 -0.2524  0.4328  0.1345
   64SAPC  H14R 5197   0.642   4.599   7.476  2.3587 -0.3092 -0.3750
   64SAPC  C215 5198   0.636   4.719   7.640  0.6686 -0.8296 -0.0404
   64SAPC  H15R 5199   0.614   4.630   7.701 -1.7119 -0.3506 -0.1225
   64SAPC  C216 5200   0.628   4.853   7.715  0.6083  0.3078 -0.2584
   64SAPC  H16R 5201   0.522   4.870   7.742  0.3577 -0.0520 -1.0018
   64SAPC  H16S 5202   0.652   4.934   7.643  0.6944 -2.1748 -3.1476
   64SAPC  C217 5203   0.722   4.856   7.835  0.7099  0.2726 -0.0426
   64SAPC  H17R 5204   0.718   4.962   7.867  1.4832 -0.0023  1.0104
   64SAPC  H17S 5205   0.828   4.829   7.817  1.4188  2.8908  0.0365
   64SAPC  C218 5206   0.671   4.765   7.950  0.0503 -0.4112 -0.4856
   64SAPC  H18R 5207   0.691   4.658   7.926  0.0370 -1.3300  3.2707
   64SAPC  H18S 5208   0.560   4.771   7.948  0.1130  1.9538  0.8278
   64SAPC  C219 5209   0.717   4.793   8.096 -0.2179  0.1915  0.4206
   64SAPC  H19R 5210   0.657   4.885   8.111  1.1647  1.5725 -2.0104
   64SAPC  H19S 5211   0.826   4.813   8.096 -0.0511 -0.6782 -0.4137
   64SAPC  C220 5212   0.686   4.674   8.188  0.0537  0.0460 -0.4912
   64SAPC  H20R 5213   0.761   4.595   8.169 -0.3304 -0.5551  0.4551
   64SAPC  H20S 5214   0.581   4.640   8.174 -1.4608  3.0077  2.7888
   64SAPC  H20T 5215   0.707   4.704   8.293  0.8451 -0.1412 -0.5904
   64SAPC   C33 5216   0.963   5.015   6.582  0.3140  0.6204 -1.1525
   64SAPC   H3X 5217   1.065   4.976   6.602  0.2412  1.2115  0.4608
   64SAPC   H3Y 5218   0.901   4.952   6.649  1.4923  0.8910  0.2346
   64SAPC   C34 5219   0.939   5.162   6.617  0.0545  0.6331  0.3058
   64SAPC   H4X 5220   0.840   5.184   6.571 -0.6825 -0.7421  1.1951
   64SAPC   H4Y 5221   1.002   5.227   6.552 -1.7095 -0.2646 -2.4399
   64SAPC   C35 5222   0.961   5.187   6.765  0.4197 -0.3278  0.0061
   64SAPC   H5X 5223   0.956   5.298   6.767 -0.3863 -0.3683  0.6751
   64SAPC   H5Y 5224   1.067   5.162   6.787  0.6485  0.5774 -0.0255
   64SAPC   C36 5225   0.848   5.136   6.862  0.2319 -0.1682  1.3853
   64SAPC   H6X 5226   0.872   5.029   6.880 -0.7380 -0.8965 -1.4212
   64SAPC   H6Y 5227   0.747   5.151   6.820 -0.4227 -1.5577  2.4346
   64SAPC   C37 5228   0.846   5.214   6.995  0.1049 -0.2167 -0.4406
   64SAPC   H7X 5229   0.817   5.316   6.962  1.0346 -0.2639 -1.4445
   64SAPC   H7Y 5230   0.948   5.233   7.034 -0.2969  1.0244  0.0224
   64SAPC   C38 5231   0.755   5.162   7.105  0.0138 -0.4811 -0.1135
   64SAPC   H8X 5232   0.759   5.052   7.117  1.9716 -0.3712  0.4626
   64SAPC   H8Y 5233   0.650   5.185   7.077 -0.1744  1.0722  1.6932
   64SAPC   C39 5234   0.777   5.220   7.243  0.0054 -0.5319  0.3928
   64SAPC   H9X 5235   0.793   5.329   7.231  0.6479 -0.3291  2.6906
   64SAPC   H9Y 5236   0.873   5.189   7.289  0.0431  1.9845  2.1494
   64SAPC  C310 5237   0.665   5.174   7.336 -0.0553 -0.9308  0.3370
   64SAPC  H10X 5238   0.658   5.065   7.354  0.6148 -0.8466  1.1236
   64SAPC  H10Y 5239   0.566   5.202   7.294 -0.2077  2.1022  2.5503
   64SAPC  C311 5240   0.671   5.216   7.485 -0.2378 -0.6568 -0.1033
   64SAPC  H11X 5241   0.775   5.192   7.515  0.5556 -1.1384 -3.0169
   64SAPC  H11Y 5242   0.591   5.171   7.547  1.8984 -1.7504  1.9275
   64SAPC  C312 5243   0.678   5.370   7.509 -1.4302  0.6417 -0.0716
   64SAPC  H12X 5244   0.603   5.415   7.440 -0.4699  1.3933 -0.6319
   64SAPC  H12Y 5245   0.778   5.410   7.484 -1.1720  0.9276  1.3955
   64SAPC  C313 5246   0.655   5.409   7.657  0.0504 -0.1387 -0.2069
   64SAPC  H13X 5247   0.729   5.349   7.715  1.2098  1.6368  0.1647
   64SAPC  H13Y 5248   0.554   5.377   7.689  0.5285  0.1596  1.6506
   64SAPC  C314 5249   0.681   5.558   7.677 -0.0533  0.3545 -0.5252
   64SAPC  H14X 5250   0.636   5.621   7.597 -0.5342  0.3458 -0.2637
   64SAPC  H14Y 5251   0.789   5.578   7.660  0.0289  0.6276  0.2785
   64SAPC  C315 5252   0.644   5.603   7.820 -0.3800 -0.3315 -0.3702
   64SAPC  H15X 5253   0.710   5.553   7.893  0.6623 -0.2299 -1.2294
   64SAPC  H15Y 5254   0.541   5.570   7.844 -0.8065 -0.4229 -2.2361
   64SAPC  C316 5255   0.675   5.753   7.847 -0.3335 -0.2672  0.3968
   64SAPC  H16X 5256   0.665   5.801   7.747 -3.2459 -0.7451  0.4107
   64SAPC  H16Y 5257   0.779   5.748   7.884 -1.2283  1.3601  3.2421
   64SAPC  C317 5258   0.577   5.804   7.953 -0.2943  0.1836 -0.3603
   64SAPC  H17X 5259   0.596   5.748   8.048  1.6512  0.5934 -0.4892
   64SAPC  H17Y 5260   0.474   5.788   7.914 -1.5708  1.7021  2.2764
   64SAPC  C318 5261   0.588   5.954   7.971 -0.6589 -0.1483  0.2578
   64SAPC  H18X 5262   0.689   5.981   8.008 -0.9176  0.2264  0.6982
   64SAPC  H18Y 5263   0.508   5.992   8.038 -0.5054 -2.6095  1.8953
   64SAPC  H18Z 5264   0.575   6.014   7.878  3.1991  1.3509  0.6165
   65SAPC     N 5265   0.942   6.295   6.172 -1.2876 -0.6480 -0.1312
   65SAPC   C12 5266   0.978   6.179   6.268  0.1253 -0.7433  0.5558
   65SAPC  H12A 5267   0.901   6.181   6.345 -0.9104  0.7567 -0.4858
   65SAPC  H12B 5268   1.068   6.207   6.320 -1.3903  0.6319  2.5525
   65SAPC   C13 5269   1.040   6.322   6.063 -0.2681 -0.2724  0.0473
   65SAPC  H13A 5270   1.043   6.233   6.003  1.1105  0.1265 -0.5120
   65SAPC  H13B 5271   1.003   6.398   5.996  0.0638  0.0008  0.1712
   65SAPC  H13C 5272   1.135   6.345   6.109  0.0970  0.5182 -1.0939
   65SAPC   C14 5273   0.814   6.265   6.105 -0.0178 -0.3886  0.1907
   65SAPC  H14A 5274   0.808   6.166   6.063  2.7632 -0.2105 -0.7304
   65SAPC  H14B 5275   0.729   6.280   6.169 -1.8421 -2.6121 -1.6545
   65SAPC  H14C 5276   0.803   6.340   6.028 -0.8761  0.1060  0.7835
   65SAPC   C15 5277   0.932   6.419   6.253  0.8549  0.2225 -0.4129
   65SAPC  H15A 5278   0.898   6.500   6.192  0.5805  0.6734  0.3297
   65SAPC  H15B 5279   0.879   6.394   6.344 -1.1240 -3.1170 -2.3915
   65SAPC  H15C 5280   1.031   6.449   6.284  0.6371  2.5337 -1.8468
   65SAPC   C11 5281   1.002   6.038   6.208 -0.4057  1.0582  0.2473
   65SAPC  H11A 5282   0.912   6.002   6.154 -1.4632 -0.4182  2.9293
   65SAPC  H11B 5283   1.014   5.980   6.302  2.5120 -1.1249 -1.3996
   65SAPC     P 5284   1.271   6.035   6.179 -0.1444 -0.3831 -0.0476
   65SAPC   O13 5285   1.364   5.999   6.072  0.1134  0.1327 -0.1824
   65SAPC   O14 5286   1.303   6.161   6.247  0.0936  0.7402 -0.3807
   65SAPC   O12 5287   1.124   6.045   6.121  0.2640  0.4410 -0.1672
   65SAPC   O11 5288   1.265   5.917   6.280 -0.1099  0.6833  0.7156
   65SAPC    C1 5289   1.356   5.914   6.388 -0.2264  0.0015  1.0593
   65SAPC    HA 5290   1.384   5.808   6.408  1.9599  0.9042  3.0122
   65SAPC    HB 5291   1.455   5.952   6.356 -0.9673 -0.2699 -1.6660
   65SAPC    C2 5292   1.297   5.973   6.517  1.0381 -0.6780  0.2852
   65SAPC    HS 5293   1.242   6.067   6.491 -0.2458 -1.1457  1.2984
   65SAPC   O21 5294   1.406   6.002   6.610  0.1635  0.1838  0.1663
   65SAPC   C21 5295   1.390   6.121   6.680 -0.1359  0.1874 -0.3390
   65SAPC   O22 5296   1.298   6.193   6.668  0.2923 -0.3920  0.4687
   65SAPC   C22 5297   1.513   6.140   6.768 -0.3089 -0.9840  0.3779
   65SAPC   H2R 5298   1.552   6.040   6.796 -0.2815 -1.5561 -1.6337
   65SAPC   H2S 5299   1.589   6.185   6.701  0.2824 -1.1461  0.9333
   65SAPC    C3 5300   1.191   5.866   6.575 -0.1668 -0.3808  0.2842
   65SAPC    HX 5301   1.248   5.776   6.605  0.3898  0.0482  0.5165
   65SAPC    HY 5302   1.128   5.835   6.488 -1.1908  1.6729  0.2667
   65SAPC   O31 5303   1.115   5.920   6.688 -0.1842  0.4412  0.9637
   65SAPC   C31 5304   1.017   6.010   6.662 -0.3128  0.1190 -0.6521
   65SAPC   O32 5305   0.982   6.042   6.549  0.0785  0.7276 -0.1776
   65SAPC   C32 5306   0.963   6.071   6.792 -0.3977  0.4453 -0.3380
   65SAPC   H2X 5307   0.935   5.989   6.862 -0.6909  0.8288 -0.0001
   65SAPC   H2Y 5308   0.868   6.125   6.773 -0.8396 -0.0622  0.3839
   65SAPC   C23 5309   1.484   6.221   6.896  0.7703  0.0424  0.2706
   65SAPC   H3R 5310   1.428   6.169   6.976 -0.6967  2.1889  0.7012
   65SAPC   H3S 5311   1.435   6.317   6.869 -0.2851 -0.8800 -1.1545
   65SAPC   C24 5312   1.615   6.275   6.957 -1.0446  0.3509  0.4150
   65SAPC   H4R 5313   1.574   6.342   7.036  0.9857  1.4237  0.5972
   65SAPC   H4S 5314   1.672   6.340   6.887 -0.1887 -0.8667 -0.0475
   65SAPC   C25 5315   1.715   6.179   7.015 -0.6009 -0.9363  0.7494
   65SAPC   H5R 5316   1.781   6.144   6.934 -2.0815 -0.8262 -0.5244
   65SAPC   C26 5317   1.731   6.139   7.142 -0.6280  0.9331  0.3058
   65SAPC   H6R 5318   1.809   6.066   7.165 -0.7132  0.8164  0.2240
   65SAPC   C27 5319   1.654   6.173   7.260  0.0140  0.0547 -0.1892
   65SAPC   H7R 5320   1.656   6.091   7.334  1.4608  0.4572  0.2441
   65SAPC   H7S 5321   1.550   6.196   7.230 -0.2051 -1.7082 -0.8420
   65SAPC   C28 5322   1.702   6.305   7.318 -0.2846  0.5369  0.3206
   65SAPC   H8R 5323   1.710   6.382   7.240 -2.9162 -3.8948 -4.6766
   65SAPC   C29 5324   1.722   6.329   7.453 -0.3287 -0.0258 -0.9655
   65SAPC   H9R 5325   1.765   6.426   7.480 -3.3837  1.4170 -1.0597
   65SAPC  C210 5326   1.690   6.238   7.572 -0.2242  0.3837  0.0866
   65SAPC  H10R 5327   1.618   6.159   7.541  1.9132 -2.0243  1.0799
   65SAPC  H10S 5328   1.640   6.299   7.651 -0.7302  0.1172 -0.0226
   65SAPC  C211 5329   1.820   6.179   7.623  0.3092 -0.2445  0.6540
   65SAPC  H11R 5330   1.881   6.132   7.544  0.4120  2.0799 -0.7217
   65SAPC  C212 5331   1.860   6.204   7.749  0.4290 -0.3227  0.3531
   65SAPC  H12R 5332   1.965   6.178   7.770  0.5248 -0.3577 -0.1540
   65SAPC  C213 5333   1.794   6.286   7.860 -0.0460  0.3338 -0.0574
   65SAPC  H13R 5334   1.708   6.346   7.824  0.7543  1.4973 -0.0459
   65SAPC  H13S 5335   1.874   6.351   7.900  2.5026 -2.0827 -1.0305
   65SAPC  C214 5336   1.741   6.203   7.972 -0.1386 -0.0986  0.2745
   65SAPC  H14R 5337   1.701   6.104   7.942 -1.1673 -0.1490  1.7789
   65SAPC  C215 5338   1.756   6.229   8.104  0.9197  0.3923  0.0670
   65SAPC  H15R 5339   1.708   6.154   8.168  0.8059 -0.3200 -0.8340
   65SAPC  C216 5340   1.806   6.350   8.184 -0.2199  0.3935 -0.2208
   65SAPC  H16R 5341   1.720   6.370   8.251  0.8253 -0.7577  1.4976
   65SAPC  H16S 5342   1.828   6.439   8.121  2.6085  0.7418  1.1591
   65SAPC  C217 5343   1.933   6.323   8.262  0.1834  0.0274  0.6809
   65SAPC  H17R 5344   1.986   6.416   8.292  0.3540  0.6293 -1.4031
   65SAPC  H17S 5345   1.999   6.256   8.203 -0.0791  1.6272 -1.5192
   65SAPC  C218 5346   1.905   6.251   8.395 -0.4052  0.6089 -0.1248
   65SAPC  H18R 5347   1.848   6.160   8.368  0.3690  0.1979 -0.3711
   65SAPC  H18S 5348   1.844   6.320   8.457 -1.1765 -0.4660  0.3312
   65SAPC  C219 5349   2.035   6.212   8.462 -0.0542 -0.5471  0.3150
   65SAPC  H19R 5350   2.100   6.301   8.473 -0.7798  0.1711 -1.0901
   65SAPC  H19S 5351   2.084   6.143   8.390  1.3457  1.3406 -0.5779
   65SAPC  C220 5352   2.026   6.149   8.599 -0.4686  0.2496 -0.4759
   65SAPC  H20R 5353   2.126   6.119   8.638  0.3154  2.0841 -1.0238
   65SAPC  H20S 5354   1.950   6.068   8.598  0.2429 -0.4389  0.8084
   65SAPC  H20T 5355   1.996   6.237   8.660 -1.1842 -0.0706 -0.3519
   65SAPC   C33 5356   1.067   6.164   6.870 -0.1861  0.0361  0.1108
   65SAPC   H3X 5357   1.100   6.244   6.801  2.7733  0.4828  1.9512
   65SAPC   H3Y 5358   1.159   6.105   6.891  0.1062 -0.1832 -1.7042
   65SAPC   C34 5359   1.013   6.229   6.998  0.3876 -0.0297 -0.1857
   65SAPC   H4X 5360   0.966   6.147   7.057  2.4938 -1.0799  0.0870
   65SAPC   H4Y 5361   0.934   6.307   6.991  1.6386  1.2542 -0.1248
   65SAPC   C35 5362   1.136   6.301   7.072 -0.2253  0.1832 -0.5315
   65SAPC   H5X 5363   1.184   6.382   7.013  2.6156 -0.6507  0.5649
   65SAPC   H5Y 5364   1.211   6.219   7.077 -1.4647 -1.1043 -2.4735
   65SAPC   C36 5365   1.098   6.339   7.212  0.4641  0.4052 -0.1220
   65SAPC   H6X 5366   1.052   6.259   7.274  0.8463 -0.1725 -0.5692
   65SAPC   H6Y 5367   1.022   6.419   7.215 -0.2559 -0.1605 -2.4267
   65SAPC   C37 5368   1.216   6.384   7.297 -0.0955 -0.5955 -0.5606
   65SAPC   H7X 5369   1.254   6.482   7.260  1.0030 -1.1510 -0.9267
   65SAPC   H7Y 5370   1.306   6.324   7.272  2.1484  2.8838 -1.1629
   65SAPC   C38 5371   1.184   6.382   7.444 -0.6550  0.0252 -0.5164
   65SAPC   H8X 5372   1.171   6.276   7.475  2.5314 -0.2937 -0.0433
   65SAPC   H8Y 5373   1.084   6.427   7.459 -0.1889  0.3315  1.8428
   65SAPC   C39 5374   1.285   6.456   7.529 -0.3022  0.5791  0.5118
   65SAPC   H9X 5375   1.287   6.562   7.497  0.7767  0.3405 -0.2086
   65SAPC   H9Y 5376   1.388   6.419   7.510 -0.0026  1.8344 -0.3810
   65SAPC  C310 5377   1.254   6.425   7.673 -0.7014  0.2047  0.4582
   65SAPC  H10X 5378   1.257   6.314   7.662  0.7542  0.3648 -0.8755
   65SAPC  H10Y 5379   1.154   6.464   7.701 -0.0353  3.2478 -1.2750
   65SAPC  C311 5380   1.353   6.479   7.776 -0.5357 -0.9081 -0.4078
   65SAPC  H11X 5381   1.354   6.589   7.763  2.3737 -1.0712 -2.0057
   65SAPC  H11Y 5382   1.453   6.437   7.751  0.5970  1.0935  0.6601
   65SAPC  C312 5383   1.321   6.426   7.919  0.5474 -0.3008  0.5073
   65SAPC  H12X 5384   1.334   6.315   7.923 -0.6615 -0.4174  1.2133
   65SAPC  H12Y 5385   1.215   6.436   7.952  0.8708  0.3195  1.3633
   65SAPC  C313 5386   1.428   6.485   8.016  0.2454 -0.6773  0.0505
   65SAPC  H13X 5387   1.389   6.588   8.031 -1.3051 -1.3126  0.5222
   65SAPC  H13Y 5388   1.522   6.486   7.957  0.5951 -2.1110  0.5698
   65SAPC  C314 5389   1.441   6.414   8.146 -0.1694  0.2758 -0.7489
   65SAPC  H14X 5390   1.514   6.466   8.212 -0.0210 -0.3683 -0.4031
   65SAPC  H14Y 5391   1.484   6.314   8.125  1.9059  0.4993  2.0887
   65SAPC  C315 5392   1.306   6.401   8.218 -0.8278 -0.2756 -0.4057
   65SAPC  H15X 5393   1.252   6.329   8.153  0.9299 -2.4068  0.4233
   65SAPC  H15Y 5394   1.264   6.503   8.219  1.4283  0.6772  1.1428
   65SAPC  C316 5395   1.318   6.351   8.358  0.1533 -0.2864  0.3171
   65SAPC  H16X 5396   1.358   6.426   8.429  1.4723 -0.6173 -0.0694
   65SAPC  H16Y 5397   1.391   6.268   8.369 -1.7956 -2.7279 -3.9499
   65SAPC  C317 5398   1.190   6.297   8.424  0.1071 -0.1034  0.1519
   65SAPC  H17X 5399   1.208   6.241   8.518 -1.8907  0.0020  0.6071
   65SAPC  H17Y 5400   1.148   6.227   8.349 -1.9401  0.0054  1.1749
   65SAPC  C318 5401   1.085   6.394   8.465 -0.1422  0.0272 -0.2985
   65SAPC  H18X 5402   1.130   6.472   8.530  2.6425 -1.2557 -0.6093
   65SAPC  H18Y 5403   1.012   6.341   8.529  2.0382  0.3687  2.5600
   65SAPC  H18Z 5404   1.026   6.453   8.392  0.5672 -0.1683 -1.0363
   66SAPC     N 5405   5.742   4.545   5.812 -0.0879  0.2502 -0.5494
   66SAPC   C12 5406   5.662   4.598   5.932  0.4788  0.2886  0.2792
   66SAPC  H12A 5407   5.652   4.517   6.002 -1.4903  0.0808 -0.2132
   66SAPC  H12B 5408   5.558   4.604   5.902 -0.0882  0.0700  2.1433
   66SAPC   C13 5409   5.874   4.490   5.858  0.3611  0.3198 -0.2068
   66SAPC  H13A 5410   5.941   4.573   5.872 -1.3853  1.5203  1.2424
   66SAPC  H13B 5411   5.860   4.446   5.956 -0.2427 -1.3622 -1.0266
   66SAPC  H13C 5412   5.920   4.421   5.789 -1.1476 -2.1797  1.1898
   66SAPC   C14 5413   5.669   4.423   5.758 -0.1815  1.2943 -0.2163
   66SAPC  H14A 5414   5.633   4.355   5.835 -1.8188  3.0024  0.5657
   66SAPC  H14B 5415   5.584   4.464   5.706  0.7659 -0.4122 -3.2196
   66SAPC  H14C 5416   5.728   4.365   5.689 -2.1799  0.6490 -1.4126
   66SAPC   C15 5417   5.760   4.649   5.703  0.5244 -0.1649  0.3321
   66SAPC  H15A 5418   5.662   4.684   5.674  0.4630 -0.3616  0.2984
   66SAPC  H15B 5419   5.794   4.741   5.748 -1.9054  0.8398  0.1742
   66SAPC  H15C 5420   5.822   4.610   5.623 -0.5107 -0.1842 -0.4674
   66SAPC   C11 5421   5.706   4.728   5.997  0.8394 -0.3368 -0.3340
   66SAPC  H11A 5422   5.809   4.710   6.033  0.2938  1.6424  2.4026
   66SAPC  H11B 5423   5.634   4.753   6.078 -1.1975  0.3933 -2.3100
   66SAPC     P 5424   5.605   4.957   5.931  0.0924 -0.2953  0.2705
   66SAPC   O13 5425   5.642   5.078   5.851 -0.8419  0.3178  0.7140
   66SAPC   O14 5426   5.470   4.907   5.900 -0.3548  0.5084  0.0537
   66SAPC   O12 5427   5.708   4.837   5.908 -0.2001  0.7591 -0.1122
   66SAPC   O11 5428   5.609   4.987   6.080 -0.3755  0.3856  0.5504
   66SAPC    C1 5429   5.606   5.115   6.144  0.4394  0.6121 -0.2088
   66SAPC    HA 5430   5.698   5.126   6.204  1.1187 -0.8068 -0.9709
   66SAPC    HB 5431   5.602   5.196   6.068  0.7319  0.6180 -0.2191
   66SAPC    C2 5432   5.486   5.130   6.245 -0.0863  0.0190 -1.0453
   66SAPC    HS 5433   5.388   5.136   6.193 -0.8253 -1.1137  0.1828
   66SAPC   O21 5434   5.517   5.245   6.328 -0.1119  0.7274 -0.1249
   66SAPC   C21 5435   5.495   5.359   6.277  0.4078  0.0687 -0.1503
   66SAPC   O22 5436   5.427   5.381   6.178  0.8164  0.0427 -0.4482
   66SAPC   C22 5437   5.572   5.460   6.356  0.1508  0.4578  0.3529
   66SAPC   H2R 5438   5.611   5.423   6.453 -3.2806  0.5953  1.8588
   66SAPC   H2S 5439   5.652   5.489   6.284  0.4355 -0.0836  0.4511
   66SAPC    C3 5440   5.478   5.007   6.340  0.2064 -0.0870  0.0684
   66SAPC    HX 5441   5.580   4.966   6.352  0.8356  1.8523  1.6163
   66SAPC    HY 5442   5.418   4.925   6.296 -2.0839  1.1739  0.7547
   66SAPC   O31 5443   5.443   5.032   6.481  0.1876  0.4616  0.0414
   66SAPC   C31 5444   5.307   5.061   6.477  0.0484 -0.1366  0.1839
   66SAPC   O32 5445   5.242   5.058   6.377  0.4944 -0.3651 -0.3418
   66SAPC   C32 5446   5.250   5.069   6.616  0.5080  0.3214  0.0954
   66SAPC   H2X 5447   5.303   5.151   6.669  0.4850  0.2933  0.1618
   66SAPC   H2Y 5448   5.260   4.975   6.674  1.2034 -0.5514 -1.4438
   66SAPC   C23 5449   5.485   5.587   6.369 -0.3505 -0.0948  0.6589
   66SAPC   H3R 5450   5.444   5.616   6.270  1.2297  1.0143  0.3111
   66SAPC   H3S 5451   5.539   5.682   6.388 -2.2005  0.8203  1.4515
   66SAPC   C24 5452   5.374   5.578   6.476 -0.0265 -0.1171 -0.1355
   66SAPC   H4R 5453   5.315   5.484   6.480 -1.7388  0.9872  0.9660
   66SAPC   H4S 5454   5.308   5.664   6.454  2.0195  1.7529  0.8343
   66SAPC   C25 5455   5.440   5.621   6.603  0.3524 -0.9865 -0.2161
   66SAPC   H5R 5456   5.492   5.718   6.597 -1.3731 -0.0000  0.3183
   66SAPC   C26 5457   5.450   5.550   6.713  0.2697 -0.3278 -0.4088
   66SAPC   H6R 5458   5.507   5.594   6.797  0.8163  0.7298 -1.3231
   66SAPC   C27 5459   5.390   5.412   6.737 -0.7885 -0.2404  0.0528
   66SAPC   H7R 5460   5.346   5.376   6.642 -3.7522  0.3822  1.1451
   66SAPC   H7S 5461   5.314   5.421   6.817  1.6975 -1.3557  2.6453
   66SAPC   C28 5462   5.511   5.325   6.771  0.3419  0.2290 -0.3435
   66SAPC   H8R 5463   5.566   5.284   6.685  2.3688 -0.1502  1.1088
   66SAPC   C29 5464   5.555   5.303   6.893  0.4338  0.4232  0.0906
   66SAPC   H9R 5465   5.635   5.227   6.895  0.0811  0.0526  0.1838
   66SAPC  C210 5466   5.505   5.367   7.024  0.5433  0.4716  0.0214
   66SAPC  H10R 5467   5.505   5.283   7.097  2.2295  0.7945  0.4188
   66SAPC  H10S 5468   5.402   5.410   7.024  1.3855  2.5416  0.4071
   66SAPC  C211 5469   5.604   5.460   7.100  0.2928  0.2403  0.4659
   66SAPC  H11R 5470   5.695   5.498   7.052  0.5601 -0.0390  0.7547
   66SAPC  C212 5471   5.580   5.509   7.221 -0.5983  0.9194 -0.2308
   66SAPC  H12R 5472   5.653   5.583   7.258 -0.8776  0.3750  1.4446
   66SAPC  C213 5473   5.467   5.500   7.313 -0.1048  0.3687 -0.1968
   66SAPC  H13R 5474   5.409   5.410   7.284 -0.4984  0.1962  1.0920
   66SAPC  H13S 5475   5.393   5.583   7.307 -0.0171  0.4921  0.4295
   66SAPC  C214 5476   5.523   5.482   7.455  0.0009 -0.9592  0.6412
   66SAPC  H14R 5477   5.546   5.377   7.481 -0.2919 -1.3919 -0.8211
   66SAPC  C215 5478   5.541   5.580   7.546 -0.4869 -0.0721 -0.0221
   66SAPC  H15R 5479   5.582   5.558   7.646  0.3582 -0.3473 -0.4250
   66SAPC  C216 5480   5.502   5.725   7.530 -0.1541  0.6454  0.8423
   66SAPC  H16R 5481   5.434   5.758   7.611 -0.6826  1.3934  0.0981
   66SAPC  H16S 5482   5.465   5.734   7.426  1.9567 -0.3591 -0.0357
   66SAPC  C217 5483   5.625   5.805   7.537 -0.1027  0.4563 -0.2267
   66SAPC  H17R 5484   5.600   5.895   7.476 -1.3379 -1.0269 -1.9699
   66SAPC  H17S 5485   5.716   5.771   7.483  1.0575  1.1101  1.2813
   66SAPC  C218 5486   5.680   5.854   7.673 -0.3691 -0.7069 -0.4856
   66SAPC  H18R 5487   5.765   5.924   7.657 -0.4103 -0.8349 -1.3053
   66SAPC  H18S 5488   5.724   5.764   7.722 -2.2000 -1.0215  0.6258
   66SAPC  C219 5489   5.581   5.920   7.764  0.3478  0.4000 -0.3731
   66SAPC  H19R 5490   5.504   5.842   7.785  2.0042 -0.8099  1.3920
   66SAPC  H19S 5491   5.535   6.009   7.717  1.2333 -0.1896 -2.3929
   66SAPC  C220 5492   5.651   5.953   7.899  0.0873  0.1036  0.4799
   66SAPC  H20R 5493   5.716   5.873   7.939 -1.3661 -2.0243 -1.2891
   66SAPC  H20S 5494   5.576   5.984   7.976  0.7127 -0.4035  1.3025
   66SAPC  H20T 5495   5.716   6.042   7.886  0.0552  0.0813  0.1661
   66SAPC   C33 5496   5.098   5.116   6.619  1.0508  0.8051  0.2203
   66SAPC   H3X 5497   5.034   5.027   6.632 -3.5012  3.9986  0.8434
   66SAPC   H3Y 5498   5.067   5.164   6.524 -2.5564  0.7474  1.3049
   66SAPC   C34 5499   5.061   5.210   6.735 -0.1018 -0.8153 -0.1902
   66SAPC   H4X 5500   4.955   5.234   6.712 -0.0448 -0.2635  0.1142
   66SAPC   H4Y 5501   5.120   5.304   6.724  0.0324 -0.9334 -0.4976
   66SAPC   C35 5502   5.090   5.166   6.874  0.1190  0.3818  0.3067
   66SAPC   H5X 5503   5.200   5.156   6.876  0.2935  2.1273  1.4506
   66SAPC   H5Y 5504   5.030   5.073   6.886 -1.0881  0.8639 -1.8106
   66SAPC   C36 5505   5.047   5.258   6.989  0.4918  0.3519 -0.1961
   66SAPC   H6X 5506   4.937   5.272   6.983  0.4314  0.6616  1.4738
   66SAPC   H6Y 5507   5.091   5.360   6.980  1.7558 -0.0831  0.8594
   66SAPC   C37 5508   5.090   5.208   7.132  0.7376 -0.2771  0.7583
   66SAPC   H7X 5509   5.201   5.212   7.134  0.8567 -2.6531  1.1090
   66SAPC   H7Y 5510   5.053   5.103   7.140  0.6664 -0.2214  1.1687
   66SAPC   C38 5511   5.048   5.297   7.246 -0.1807  0.2728 -0.4142
   66SAPC   H8X 5512   4.938   5.297   7.255 -0.1255  1.0407  0.3789
   66SAPC   H8Y 5513   5.076   5.403   7.228 -1.1930  0.6794  0.4140
   66SAPC   C39 5514   5.113   5.269   7.378 -0.0501  0.0342  0.6570
   66SAPC   H9X 5515   5.216   5.306   7.361  0.6431 -1.8271  0.7261
   66SAPC   H9Y 5516   5.116   5.163   7.411 -0.3866 -1.1139 -2.8517
   66SAPC  C310 5517   5.052   5.343   7.493 -0.4646 -0.1995  0.1896
   66SAPC  H10X 5518   4.953   5.296   7.510 -0.7308  0.0842 -0.5825
   66SAPC  H10Y 5519   5.031   5.449   7.468 -2.0856 -0.3881  0.7115
   66SAPC  C311 5520   5.132   5.315   7.622 -0.0445 -0.3407 -0.1465
   66SAPC  H11X 5521   5.231   5.365   7.628  0.1191 -0.8276  1.4449
   66SAPC  H11Y 5522   5.145   5.205   7.632  0.6312 -0.1121  1.5443
   66SAPC  C312 5523   5.055   5.363   7.747 -0.1556  0.0886  0.4373
   66SAPC  H12X 5524   4.972   5.290   7.755  2.4389 -2.9437  0.8837
   66SAPC  H12Y 5525   5.020   5.465   7.720  1.1563 -0.0072 -1.7444
   66SAPC  C313 5526   5.136   5.355   7.874  0.6147  0.2541 -0.6167
   66SAPC  H13X 5527   5.202   5.444   7.873  1.5076 -0.3921 -2.2441
   66SAPC  H13Y 5528   5.205   5.269   7.859  1.3638  0.9885 -1.4617
   66SAPC  C314 5529   5.063   5.343   8.011  0.3229 -0.3350  0.5914
   66SAPC  H14X 5530   4.954   5.325   7.995  0.4568  0.4059 -1.2507
   66SAPC  H14Y 5531   5.070   5.444   8.055  0.9210 -1.1457  2.4141
   66SAPC  C315 5532   5.123   5.246   8.116  0.4820 -0.5532  0.1193
   66SAPC  H15X 5533   5.232   5.256   8.097  0.0321  0.5912 -2.0604
   66SAPC  H15Y 5534   5.101   5.143   8.082 -0.5904 -0.3639  0.2398
   66SAPC  C316 5535   5.107   5.269   8.267  0.2363 -0.6661 -0.1236
   66SAPC  H16X 5536   5.148   5.363   8.309 -0.3174 -0.9047  0.9788
   66SAPC  H16Y 5537   5.163   5.186   8.313 -0.6179 -0.1702  1.8609
   66SAPC  C317 5538   4.961   5.253   8.319 -1.0754 -0.3958 -0.1958
   66SAPC  H17X 5539   4.933   5.157   8.269  2.2684 -1.1567 -0.7942
   66SAPC  H17Y 5540   4.899   5.336   8.279  1.1939  0.8813 -1.1531
   66SAPC  C318 5541   4.947   5.243   8.472 -0.4026 -0.1142 -0.3596
   66SAPC  H18X 5542   5.011   5.325   8.510 -0.5722 -0.5245  0.8410
   66SAPC  H18Y 5543   4.968   5.143   8.516  0.4118 -0.3333 -1.2274
   66SAPC  H18Z 5544   4.841   5.256   8.503 -0.7925 -0.8839 -1.3560
   67SAPC     N 5545   1.709   0.928   6.530 -0.5907  0.6748 -0.0999
   67SAPC   C12 5546   1.608   0.983   6.436  0.1464  0.0735  0.1761
   67SAPC  H12A 5547   1.631   0.966   6.332  1.6530  2.5027  0.0750
   67SAPC  H12B 5548   1.612   1.089   6.455 -2.3004  0.0580  0.9203
   67SAPC   C13 5549   1.710   0.778   6.518  0.7891  0.4192  0.5517
   67SAPC  H13A 5550   1.771   0.731   6.593  2.2076 -0.3206 -1.0349
   67SAPC  H13B 5551   1.610   0.744   6.541 -0.0186  0.6667 -2.3962
   67SAPC  H13C 5552   1.736   0.741   6.420 -1.1337 -1.8152  0.8458
   67SAPC   C14 5553   1.843   0.982   6.500 -0.1041  0.2826 -0.2889
   67SAPC  H14A 5554   1.920   0.938   6.561 -0.7076  1.5546  1.4430
   67SAPC  H14B 5555   1.878   0.955   6.402 -1.3893  0.0151 -0.6864
   67SAPC  H14C 5556   1.849   1.089   6.513 -0.4770  0.1384  1.2071
   67SAPC   C15 5557   1.674   0.958   6.674 -0.1528 -0.2520  0.1486
   67SAPC  H15A 5558   1.614   0.875   6.708  0.0252 -0.0383  0.9890
   67SAPC  H15B 5559   1.761   0.945   6.737 -0.4138  2.1143  1.0255
   67SAPC  H15C 5560   1.638   1.058   6.692 -0.1651 -0.0028 -1.1507
   67SAPC   C11 5561   1.456   0.947   6.469  0.5418  0.3017  0.0035
   67SAPC  H11A 5562   1.440   0.993   6.569 -2.6782  0.3235 -0.4711
   67SAPC  H11B 5563   1.452   0.836   6.468  2.2149  0.2189  0.6988
   67SAPC     P 5564   1.216   0.954   6.386 -0.0484  0.1173 -0.1176
   67SAPC   O13 5565   1.125   1.065   6.353  0.3569  0.0699 -0.5435
   67SAPC   O14 5566   1.198   0.828   6.303  0.8687 -0.1742 -0.2740
   67SAPC   O12 5567   1.369   1.002   6.373  0.3193 -0.2886  0.0771
   67SAPC   O11 5568   1.201   0.930   6.548 -0.5515 -0.5371  0.4814
   67SAPC    C1 5569   1.098   0.836   6.587 -0.9464  0.5814 -0.1366
   67SAPC    HA 5570   1.025   0.901   6.641 -1.3047 -0.7138  0.9555
   67SAPC    HB 5571   1.043   0.790   6.502 -0.7195  0.1432 -0.0439
   67SAPC    C2 5572   1.164   0.723   6.674 -0.1508  0.2575  0.2659
   67SAPC    HS 5573   1.094   0.637   6.684 -2.4185  1.5474 -3.5155
   67SAPC   O21 5574   1.195   0.771   6.806  0.3190 -0.9116  0.3092
   67SAPC   C21 5575   1.081   0.769   6.884  0.8132  0.4356 -0.2978
   67SAPC   O22 5576   0.970   0.732   6.853  0.1033  0.3194 -0.2791
   67SAPC   C22 5577   1.121   0.822   7.026  0.1424 -0.4008 -0.0619
   67SAPC   H2R 5578   1.196   0.760   7.080  2.3476  1.6468 -0.6735
   67SAPC   H2S 5579   1.177   0.917   7.009 -0.3529 -0.0471  0.2549
   67SAPC    C3 5580   1.292   0.659   6.605 -0.1561  0.2919 -0.2602
   67SAPC    HX 5581   1.378   0.727   6.621  0.0699  1.2478 -4.8779
   67SAPC    HY 5582   1.274   0.670   6.496  0.8296 -0.0993 -0.4724
   67SAPC   O31 5583   1.309   0.516   6.638  0.2273 -0.1609  0.0759
   67SAPC   C31 5584   1.405   0.491   6.724  0.3314 -0.0159  0.1192
   67SAPC   O32 5585   1.490   0.570   6.767 -0.5682  0.9596 -0.1117
   67SAPC   C32 5586   1.396   0.344   6.757 -0.1536 -1.4178 -0.0234
   67SAPC   H2X 5587   1.498   0.311   6.787  1.4148  3.3999  0.3443
   67SAPC   H2Y 5588   1.375   0.287   6.664 -0.3420 -0.8759 -0.3141
   67SAPC   C23 5589   0.999   0.853   7.113 -0.2119  0.5444  0.1721
   67SAPC   H3R 5590   0.949   0.765   7.158 -0.3158  0.6591  0.2846
   67SAPC   H3S 5591   0.925   0.918   7.062  1.1821  0.3675 -2.1344
   67SAPC   C24 5592   1.047   0.935   7.243 -0.2454  0.1474  0.0618
   67SAPC   H4R 5593   1.068   1.039   7.210  3.0037 -0.7324 -0.8867
   67SAPC   H4S 5594   1.131   0.874   7.283 -1.1833 -1.2925 -0.1480
   67SAPC   C25 5595   0.933   0.947   7.342  0.1923 -0.2478 -0.0662
   67SAPC   H5R 5596   0.855   0.877   7.308 -1.0893 -0.5021  3.2183
   67SAPC   C26 5597   0.919   1.023   7.449 -0.2865  0.4714 -0.0461
   67SAPC   H6R 5598   0.829   1.012   7.512 -0.1798 -1.7983 -0.2192
   67SAPC   C27 5599   1.014   1.126   7.505 -0.5589  0.1069 -0.3527
   67SAPC   H7R 5600   0.948   1.215   7.512 -2.0467 -0.8386 -1.8350
   67SAPC   H7S 5601   1.080   1.152   7.420  0.5335 -1.1778  0.0788
   67SAPC   C28 5602   1.093   1.081   7.628  0.1824 -0.4377  0.1109
   67SAPC   H8R 5603   1.161   0.995   7.613  0.5986 -0.0979  0.0380
   67SAPC   C29 5604   1.083   1.149   7.748 -0.3339 -0.0443 -1.3808
   67SAPC   H9R 5605   1.127   1.102   7.837  1.9083  2.6662 -1.0134
   67SAPC  C210 5606   1.002   1.272   7.774 -0.0181 -0.1961  0.2340
   67SAPC  H10R 5607   0.904   1.244   7.819  0.4145  0.2168  1.4616
   67SAPC  H10S 5608   0.977   1.333   7.685 -0.5393 -0.8333 -0.0664
   67SAPC  C211 5609   1.080   1.354   7.870  0.2481  0.0325  0.1347
   67SAPC  H11R 5610   1.185   1.370   7.840  0.4423  1.2323  1.4083
   67SAPC  C212 5611   1.040   1.401   7.994 -0.5884 -0.3067 -0.4414
   67SAPC  H12R 5612   1.115   1.465   8.043  0.0063 -0.1211 -1.5650
   67SAPC  C213 5613   0.908   1.395   8.070  0.2803  0.0906 -0.9719
   67SAPC  H13R 5614   0.830   1.397   7.991 -1.0241 -1.5108  0.2332
   67SAPC  H13S 5615   0.886   1.483   8.134 -0.7021 -0.7734 -0.1025
   67SAPC  C214 5616   0.900   1.272   8.157 -1.1557 -0.3110 -0.4252
   67SAPC  H14R 5617   0.849   1.196   8.095  2.1183 -2.7972 -0.1854
   67SAPC  C215 5618   0.937   1.264   8.282 -0.1785  0.3182 -0.6175
   67SAPC  H15R 5619   0.953   1.168   8.334 -0.6166  0.1009 -0.8875
   67SAPC  C216 5620   0.999   1.374   8.372  0.9414 -0.3818  0.4697
   67SAPC  H16R 5621   1.049   1.445   8.303  0.5438  0.9637  1.5365
   67SAPC  H16S 5622   1.070   1.334   8.448 -1.1552 -1.4784  1.9122
   67SAPC  C217 5623   0.887   1.462   8.440 -0.5092  0.0360 -0.3518
   67SAPC  H17R 5624   0.816   1.391   8.486  1.0464 -1.3426  0.0002
   67SAPC  H17S 5625   0.825   1.517   8.366 -1.9123 -0.0704  0.7310
   67SAPC  C218 5626   0.946   1.566   8.540  0.6858  0.6364 -0.4735
   67SAPC  H18R 5627   0.980   1.506   8.627 -0.0318 -0.6323 -1.0495
   67SAPC  H18S 5628   0.870   1.636   8.580 -1.0897 -1.4314 -0.1356
   67SAPC  C219 5629   1.067   1.646   8.499 -0.2734  0.3743  0.5832
   67SAPC  H19R 5630   1.155   1.582   8.477 -0.9750 -0.3108 -0.2249
   67SAPC  H19S 5631   1.088   1.719   8.580  0.7645  0.5781  0.1391
   67SAPC  C220 5632   1.055   1.725   8.367 -0.6221 -0.0469  0.8015
   67SAPC  H20R 5633   0.949   1.748   8.346 -0.7564 -0.1089  1.4214
   67SAPC  H20S 5634   1.086   1.661   8.282 -3.3893 -1.4203  0.7764
   67SAPC  H20T 5635   1.121   1.815   8.367  1.0765 -1.2470 -0.2944
   67SAPC   C33 5636   1.275   0.318   6.857  0.0384  0.6999 -0.3776
   67SAPC   H3X 5637   1.258   0.208   6.864  2.0091  0.3455 -0.7166
   67SAPC   H3Y 5638   1.177   0.358   6.823  1.2262  2.6880 -1.6041
   67SAPC   C34 5639   1.317   0.361   6.999 -0.2343 -0.1066  0.4213
   67SAPC   H4X 5640   1.328   0.471   6.994 -0.7903 -0.1577 -5.5833
   67SAPC   H4Y 5641   1.412   0.309   7.020  0.5565  0.0403 -2.5858
   67SAPC   C35 5642   1.220   0.317   7.106  0.2423  0.1450  0.6960
   67SAPC   H5X 5643   1.278   0.291   7.197  0.7291 -1.4053 -0.0472
   67SAPC   H5Y 5644   1.176   0.222   7.070  2.5070 -1.1558  1.2907
   67SAPC   C36 5645   1.108   0.412   7.145 -0.4354 -0.2620  0.0416
   67SAPC   H6X 5646   1.017   0.361   7.182  0.4573 -2.0474 -0.1715
   67SAPC   H6Y 5647   1.076   0.473   7.057  0.2828  1.9235  1.2634
   67SAPC   C37 5648   1.153   0.512   7.256  0.8091  0.2503 -0.5496
   67SAPC   H7X 5649   1.087   0.601   7.267  1.4171  0.8810 -1.9205
   67SAPC   H7Y 5650   1.256   0.551   7.243  1.3833 -1.0002  0.1236
   67SAPC   C38 5651   1.157   0.446   7.395  0.0638  0.3625  1.1480
   67SAPC   H8X 5652   1.233   0.365   7.395 -0.5804 -0.2560  2.0197
   67SAPC   H8Y 5653   1.063   0.392   7.419  1.2124 -1.7598  0.9995
   67SAPC   C39 5654   1.187   0.546   7.508 -0.2359 -0.2956 -0.2204
   67SAPC   H9X 5655   1.274   0.610   7.479 -1.2077  0.8289 -0.6755
   67SAPC   H9Y 5656   1.214   0.507   7.608  0.6158  2.4328  0.6543
   67SAPC  C310 5657   1.071   0.635   7.530  0.7634 -0.1399 -0.0172
   67SAPC  H10X 5658   0.987   0.591   7.473  1.1886 -3.3874  1.7392
   67SAPC  H10Y 5659   1.084   0.740   7.499 -2.2223 -0.2703 -1.8998
   67SAPC  C311 5660   1.038   0.634   7.680 -0.2110  0.9609 -0.1413
   67SAPC  H11X 5661   1.029   0.527   7.706 -1.1857  0.5227 -2.1670
   67SAPC  H11Y 5662   0.944   0.691   7.697  0.5840  1.2346  3.8248
   67SAPC  C312 5663   1.148   0.699   7.766 -0.1208  0.0253  0.1350
   67SAPC  H12X 5664   1.145   0.809   7.755 -0.4809 -0.0005 -0.0249
   67SAPC  H12Y 5665   1.249   0.656   7.744  0.2147 -0.0734  1.8056
   67SAPC  C313 5666   1.117   0.666   7.908 -0.3314 -0.4374 -0.3358
   67SAPC  H13X 5667   1.210   0.696   7.962  0.5630 -0.4998 -1.8027
   67SAPC  H13Y 5668   1.101   0.557   7.920  0.3251 -0.7033 -1.7373
   67SAPC  C314 5669   1.017   0.752   7.986 -0.0104 -0.1183  0.0668
   67SAPC  H14X 5670   0.918   0.738   7.938  0.3316  0.5245 -0.8409
   67SAPC  H14Y 5671   1.049   0.858   7.978  0.1495 -0.2656 -1.4159
   67SAPC  C315 5672   1.001   0.718   8.129 -0.0044 -0.5121  0.1479
   67SAPC  H15X 5673   0.975   0.612   8.150 -1.3691 -0.0567  0.7964
   67SAPC  H15Y 5674   0.917   0.784   8.160 -0.2315  0.4189 -2.3196
   67SAPC  C316 5675   1.126   0.743   8.222  0.0139 -0.0298  0.3191
   67SAPC  H16X 5676   1.209   0.669   8.220  0.0539  0.0306 -0.3032
   67SAPC  H16Y 5677   1.072   0.723   8.317 -0.5495 -0.8480 -0.1740
   67SAPC  C317 5678   1.178   0.886   8.225 -0.6067  0.7186  0.9283
   67SAPC  H17X 5679   1.092   0.951   8.250 -1.0370  1.2790 -1.8818
   67SAPC  H17Y 5680   1.226   0.918   8.130 -0.3348  0.6833  1.0519
   67SAPC  C318 5681   1.286   0.900   8.339  0.1044  0.0123 -0.3657
   67SAPC  H18X 5682   1.252   0.867   8.439  3.1395  0.6190  0.9177
   67SAPC  H18Y 5683   1.326   1.003   8.346 -1.2474  0.4223  1.7579
   67SAPC  H18Z 5684   1.358   0.819   8.315  1.1727  1.1005 -0.8972
   68SAPC     N 5685   5.383   6.741   6.370 -0.1136 -0.0699  0.1242
   68SAPC   C12 5686   5.411   6.876   6.303 -0.2774  0.0402 -0.7458
   68SAPC  H12A 5687   5.414   6.953   6.379  2.2991 -2.0918  1.4201
   68SAPC  H12B 5688   5.332   6.910   6.238  0.8261 -0.8183 -2.5884
   68SAPC   C13 5689   5.270   6.760   6.469 -1.1099  0.2908 -0.0327
   68SAPC  H13A 5690   5.291   6.840   6.538  3.0713 -0.2100 -0.5978
   68SAPC  H13B 5691   5.172   6.776   6.425 -1.0919  1.0573  0.1941
   68SAPC  H13C 5692   5.262   6.681   6.542 -0.6699  0.3058  0.0326
   68SAPC   C14 5693   5.335   6.646   6.263  0.0163  0.3325 -0.7334
   68SAPC  H14A 5694   5.249   6.672   6.204 -0.4994  1.0562  0.3341
   68SAPC  H14B 5695   5.418   6.636   6.194 -0.3093  0.7615 -1.1920
   68SAPC  H14C 5696   5.314   6.554   6.316 -3.3649  1.7633  0.4962
   68SAPC   C15 5697   5.493   6.690   6.442 -0.5606  0.3819 -0.1240
   68SAPC  H15A 5698   5.485   6.590   6.481  1.2981  0.8107  1.4490
   68SAPC  H15B 5699   5.582   6.692   6.381  0.1795 -0.1745  0.9226
   68SAPC  H15C 5700   5.520   6.756   6.523  0.2805 -1.3686  1.0542
   68SAPC   C11 5701   5.544   6.889   6.224  0.3879  0.1063 -0.1660
   68SAPC  H11A 5702   5.629   6.865   6.292  1.0907  0.8529 -0.7645
   68SAPC  H11B 5703   5.545   6.995   6.190 -4.0044  0.0363 -0.7957
   68SAPC     P 5704   5.663   6.704   6.094  0.0495  0.0602 -0.2704
   68SAPC   O13 5705   5.623   6.593   6.003 -0.3738  0.3226 -0.0591
   68SAPC   O14 5706   5.782   6.778   6.061  0.1274 -0.1165  0.1133
   68SAPC   O12 5707   5.543   6.810   6.108  0.2045  0.1629  0.4670
   68SAPC   O11 5708   5.691   6.627   6.224  0.2137  0.1541  0.0319
   68SAPC    C1 5709   5.786   6.521   6.216  1.0029  0.2951  0.0455
   68SAPC    HA 5710   5.731   6.432   6.179  1.0466 -0.0506  0.8074
   68SAPC    HB 5711   5.867   6.545   6.143 -1.6255  3.3685 -2.0454
   68SAPC    C2 5712   5.848   6.484   6.350 -0.1223  0.0916  0.1156
   68SAPC    HS 5713   5.922   6.402   6.338  0.3667  0.3627  1.2639
   68SAPC   O21 5714   5.751   6.463   6.453 -0.3037  0.2618 -0.2902
   68SAPC   C21 5715   5.694   6.346   6.442  0.0029  0.7077 -0.3729
   68SAPC   O22 5716   5.706   6.258   6.361 -0.0031  0.0823 -0.2058
   68SAPC   C22 5717   5.618   6.315   6.569 -0.4960  0.4268 -0.1326
   68SAPC   H2R 5718   5.583   6.411   6.615  0.7792  1.5452 -1.4452
   68SAPC   H2S 5719   5.533   6.254   6.532  0.9658  0.0707 -3.0017
   68SAPC    C3 5720   5.934   6.609   6.398 -0.0290 -0.3993 -0.2489
   68SAPC    HX 5721   5.874   6.703   6.397  3.2087  1.7724 -2.8034
   68SAPC    HY 5722   6.019   6.624   6.327 -0.7647  0.5552 -0.9443
   68SAPC   O31 5723   5.992   6.582   6.528 -0.4867 -0.3363  0.2506
   68SAPC   C31 5724   5.946   6.658   6.632  0.0721 -0.6663 -0.4865
   68SAPC   O32 5725   5.862   6.748   6.625  0.0579 -0.4917  0.1593
   68SAPC   C32 5726   5.993   6.590   6.758  0.0229  0.1129 -0.3143
   68SAPC   H2X 5727   6.067   6.512   6.730 -0.4277 -0.5231  0.2558
   68SAPC   H2Y 5728   5.905   6.539   6.802 -0.4630 -0.2863 -1.7052
   68SAPC   C23 5729   5.713   6.241   6.670  0.2103  0.5091  0.2943
   68SAPC   H3R 5730   5.799   6.307   6.694  3.0158 -3.3638  1.3210
   68SAPC   H3S 5731   5.748   6.141   6.635  2.0698  1.8464 -1.7740
   68SAPC   C24 5732   5.643   6.199   6.799 -0.1075  0.0270  0.0534
   68SAPC   H4R 5733   5.617   6.296   6.845 -0.5768  0.8624 -1.9224
   68SAPC   H4S 5734   5.733   6.158   6.851  1.3771  1.9190 -0.9486
   68SAPC   C25 5735   5.519   6.120   6.787 -0.3573 -0.1411 -0.6759
   68SAPC   H5R 5736   5.440   6.167   6.726  0.6823  2.1215 -0.3166
   68SAPC   C26 5737   5.492   5.997   6.837 -0.5163  0.1041 -0.2019
   68SAPC   H6R 5738   5.406   5.939   6.799  0.4492 -0.8744 -0.9093
   68SAPC   C27 5739   5.594   5.907   6.911 -0.0275  0.5232 -0.1790
   68SAPC   H7R 5740   5.700   5.942   6.920 -0.7282  2.5483  0.5927
   68SAPC   H7S 5741   5.605   5.810   6.859 -1.5472 -0.0181  0.5044
   68SAPC   C28 5742   5.535   5.876   7.044 -0.3558 -0.7474  0.4607
   68SAPC   H8R 5743   5.466   5.791   7.050  1.0179 -1.9407 -0.5130
   68SAPC   C29 5744   5.546   5.954   7.153 -0.1523  0.1626 -0.5856
   68SAPC   H9R 5745   5.524   5.921   7.255 -1.2874  1.1355 -0.5126
   68SAPC  C210 5746   5.596   6.099   7.143  0.0797 -0.1699 -0.4197
   68SAPC  H10R 5747   5.501   6.156   7.144 -1.2116 -2.2251 -1.4326
   68SAPC  H10S 5748   5.654   6.115   7.050 -0.8881  2.0331 -0.6485
   68SAPC  C211 5749   5.680   6.146   7.260 -0.0219  0.3181 -0.5640
   68SAPC  H11R 5750   5.617   6.182   7.342  2.6014  0.5370  1.4181
   68SAPC  C212 5751   5.814   6.154   7.277 -0.8187 -0.2802 -1.4907
   68SAPC  H12R 5752   5.852   6.193   7.373  0.5673 -0.7369 -1.8314
   68SAPC  C213 5753   5.912   6.118   7.170  0.4233 -0.1193  0.2479
   68SAPC  H13R 5754   5.853   6.119   7.076 -0.8063  0.6447  1.0143
   68SAPC  H13S 5755   5.944   6.012   7.172 -0.7042 -0.4747  0.0056
   68SAPC  C214 5756   6.033   6.211   7.160 -0.2845  0.4797  0.8164
   68SAPC  H14R 5757   6.044   6.299   7.225 -0.1163  0.2406  1.1129
   68SAPC  C215 5758   6.117   6.206   7.052 -0.3982  0.1085  0.1799
   68SAPC  H15R 5759   6.204   6.271   7.043  0.4800 -1.2318 -1.1080
   68SAPC  C216 5760   6.112   6.114   6.931  0.7295 -0.1507 -0.1181
   68SAPC  H16R 5761   6.019   6.054   6.917  0.5734  0.0705 -0.0294
   68SAPC  H16S 5762   6.201   6.048   6.942  1.4318  0.5249 -1.6556
   68SAPC  C217 5763   6.129   6.191   6.791 -0.2985  0.6153 -0.2646
   68SAPC  H17R 5764   6.234   6.221   6.776  0.3701 -1.0930  0.8547
   68SAPC  H17S 5765   6.069   6.285   6.790 -0.0438  0.7833  0.4118
   68SAPC  C218 5766   6.075   6.102   6.678 -0.0903 -0.1463  0.1133
   68SAPC  H18R 5767   5.973   6.084   6.719 -0.6098  0.4741 -0.8543
   68SAPC  H18S 5768   6.128   6.005   6.677 -1.7174 -1.0596  1.0031
   68SAPC  C219 5769   6.057   6.166   6.542 -0.0432  0.1495 -0.8053
   68SAPC  H19R 5770   6.010   6.262   6.571 -1.5028 -0.2494 -1.7932
   68SAPC  H19S 5771   5.986   6.100   6.487 -0.8750  2.1972 -2.2658
   68SAPC  C220 5772   6.198   6.193   6.481  0.6835 -1.0432 -0.6512
   68SAPC  H20R 5773   6.201   6.292   6.430 -1.1897 -1.6690 -2.0292
   68SAPC  H20S 5774   6.218   6.118   6.402  0.1443  0.7287 -2.5083
   68SAPC  H20T 5775   6.280   6.194   6.556 -0.8821 -1.6846  1.1293
   68SAPC   C33 5776   6.058   6.701   6.834  0.1860 -0.2078 -0.7076
   68SAPC   H3X 5777   5.987   6.782   6.861 -1.4319 -1.6187 -0.6465
   68SAPC   H3Y 5778   6.137   6.750   6.772 -0.1134 -1.0175 -1.7363
   68SAPC   C34 5779   6.138   6.673   6.964  0.1966  0.6141 -0.5020
   68SAPC   H4X 5780   6.193   6.764   6.994  0.0751  0.1896  1.0630
   68SAPC   H4Y 5781   6.216   6.600   6.935  0.4297  0.7236 -0.1549
   68SAPC   C35 5782   6.049   6.616   7.075 -0.4240 -0.5361  0.3715
   68SAPC   H5X 5783   5.994   6.538   7.019  0.9278 -1.6689  0.6181
   68SAPC   H5Y 5784   5.979   6.697   7.107  0.0493  1.1593 -2.6340
   68SAPC   C36 5785   6.125   6.560   7.198 -0.2886  0.0039  0.1541
   68SAPC   H6X 5786   6.186   6.474   7.163 -2.1768 -0.5133 -1.9017
   68SAPC   H6Y 5787   6.048   6.510   7.261  0.7909  0.0881  1.5817
   68SAPC   C37 5788   6.203   6.647   7.291  0.0845  0.1686  0.1040
   68SAPC   H7X 5789   6.154   6.746   7.308 -1.7959 -0.8033  0.3823
   68SAPC   H7Y 5790   6.286   6.665   7.219  0.3459 -0.6104  0.2021
   68SAPC   C38 5791   6.267   6.568   7.410 -0.5979  0.0046 -0.1724
   68SAPC   H8X 5792   6.372   6.598   7.429 -1.1530  1.3460  0.9624
   68SAPC   H8Y 5793   6.257   6.462   7.381  1.0139 -0.3413  0.4850
   68SAPC   C39 5794   6.187   6.600   7.539  0.0329  0.3563 -0.5069
   68SAPC   H9X 5795   6.091   6.548   7.517  0.3990  0.0574 -1.4085
   68SAPC   H9Y 5796   6.181   6.710   7.554  0.1300  0.1007  1.6049
   68SAPC  C310 5797   6.250   6.545   7.668 -0.9982  0.5054 -0.4159
   68SAPC  H10X 5798   6.346   6.598   7.681  0.4392 -2.6072  2.2546
   68SAPC  H10Y 5799   6.277   6.438   7.661 -0.9778  0.3748  1.4019
   68SAPC  C311 5800   6.155   6.575   7.785 -0.3786 -0.0272 -0.3782
   68SAPC  H11X 5801   6.057   6.524   7.772  0.2474 -1.0032 -1.4133
   68SAPC  H11Y 5802   6.132   6.683   7.772 -0.8160 -0.3616 -2.5853
   68SAPC  C312 5803   6.224   6.539   7.920  0.1053 -0.0097 -0.2837
   68SAPC  H12X 5804   6.333   6.557   7.912  0.2340  0.7491  2.5765
   68SAPC  H12Y 5805   6.200   6.435   7.948 -0.3123 -0.4062 -2.0808
   68SAPC  C313 5806   6.163   6.624   8.032 -0.2704  0.5383  0.6260
   68SAPC  H13X 5807   6.086   6.564   8.084  0.9642 -1.5476  0.0956
   68SAPC  H13Y 5808   6.110   6.717   8.003  0.5088  0.4811 -1.0603
   68SAPC  C314 5809   6.263   6.661   8.149  0.3998 -0.5484 -0.4294
   68SAPC  H14X 5810   6.204   6.723   8.219 -0.5785 -1.1338 -0.7224
   68SAPC  H14Y 5811   6.352   6.717   8.115 -1.1253  1.5261 -1.0670
   68SAPC  C315 5812   6.312   6.536   8.218 -0.2755 -0.3845 -0.3343
   68SAPC  H15X 5813   6.373   6.476   8.148  1.0198  1.4444 -0.7811
   68SAPC  H15Y 5814   6.223   6.476   8.246 -0.7875  0.8596  0.7934
   68SAPC  C316 5815   6.407   6.570   8.338 -0.0950  0.5167  0.5774
   68SAPC  H16X 5816   6.344   6.600   8.425 -1.4157 -2.3066  0.6385
   68SAPC  H16Y 5817   6.466   6.655   8.299  2.1144 -0.4772  1.6709
   68SAPC  C317 5818   6.504   6.466   8.369  0.5092 -0.0659  0.4551
   68SAPC  H17X 5819   6.551   6.429   8.275 -1.4238 -0.9253 -0.1864
   68SAPC  H17Y 5820   6.448   6.379   8.409 -1.5104  1.5909  1.2804
   68SAPC  C318 5821   6.609   6.511   8.474  0.4317  0.2595 -0.2502
   68SAPC  H18X 5822   6.664   6.424   8.515  0.9028  0.9262  0.5461
   68SAPC  H18Y 5823   6.557   6.554   8.562 -0.4327  0.1272 -0.6956
   68SAPC  H18Z 5824   6.675   6.586   8.425  1.1655  0.5595  1.1783
   69SLPC     N 5825   2.923   5.541  11.207 -0.7174 -0.3617 -0.3799
   69SLPC   C13 5826   2.923   5.456  11.325 -0.3372 -0.9340 -0.0610
   69SLPC  H13A 5827   2.886   5.356  11.306 -0.6600 -0.4005 -2.3872
   69SLPC  H13B 5828   3.023   5.450  11.363 -0.8620 -1.3932  1.2712
   69SLPC  H13C 5829   2.861   5.506  11.399  3.0388  1.7604  1.0443
   69SLPC   C14 5830   2.951   5.680  11.262  0.1140 -0.0956  0.0992
   69SLPC  H14A 5831   3.043   5.689  11.318  0.5539  0.6618 -0.7456
   69SLPC  H14B 5832   2.947   5.755  11.185 -0.6280  2.3665  2.4448
   69SLPC  H14C 5833   2.870   5.697  11.331 -1.0966  1.0492 -1.5672
   69SLPC   C15 5834   2.779   5.558  11.154 -0.0469  0.1484 -0.1463
   69SLPC  H15A 5835   2.793   5.625  11.071 -1.4403  0.3403 -0.2380
   69SLPC  H15B 5836   2.735   5.470  11.108 -1.1288  1.7441 -2.2038
   69SLPC  H15C 5837   2.710   5.601  11.225 -1.7021 -1.3399 -0.8113
   69SLPC   C12 5838   3.013   5.503  11.095  0.0078  0.5959 -0.4009
   69SLPC  H12A 5839   3.115   5.485  11.126  0.3087  0.7147 -1.3157
   69SLPC  H12B 5840   3.021   5.595  11.039  0.5809  0.3797 -0.6727
   69SLPC   C11 5841   2.966   5.385  11.007  0.1673  0.4680  0.0639
   69SLPC  H11A 5842   3.037   5.394  10.923  1.0499  2.0404  0.9742
   69SLPC  H11B 5843   2.861   5.397  10.971 -0.6180 -1.3138  1.6300
   69SLPC     P 5844   3.124   5.190  11.092  0.5712  0.1347 -0.2606
   69SLPC   O13 5845   3.208   5.281  11.177  0.2392 -0.4869 -0.0335
   69SLPC   O14 5846   3.098   5.054  11.147 -0.0476  0.1220  0.5068
   69SLPC   O12 5847   2.981   5.255  11.069 -0.2159 -0.1674  0.5943
   69SLPC   O11 5848   3.182   5.171  10.952  0.0570  0.2074 -0.2790
   69SLPC    C1 5849   3.098   5.131  10.834 -0.1978  0.1628 -0.4304
   69SLPC    HA 5850   3.077   5.022  10.832  1.0287 -0.1642  2.2324
   69SLPC    HB 5851   2.996   5.171  10.849 -0.6772 -0.9663 -0.6616
   69SLPC    C2 5852   3.148   5.178  10.695 -0.2746 -0.7564 -0.3910
   69SLPC    HS 5853   3.241   5.118  10.680  0.5094 -0.6428  3.4156
   69SLPC   O21 5854   3.181   5.316  10.704 -0.2557 -0.2786 -0.1171
   69SLPC   C21 5855   3.273   5.350  10.611  0.0910  0.7915 -0.3236
   69SLPC   O22 5856   3.331   5.279  10.534  0.2004  0.9841 -0.1742
   69SLPC   C22 5857   3.298   5.500  10.631  0.4784  0.3804 -0.6303
   69SLPC   H2R 5858   3.205   5.554  10.659  0.4137  0.5838 -1.2115
   69SLPC   H2S 5859   3.368   5.507  10.716 -0.0473  0.9856 -0.2396
   69SLPC    C3 5860   3.036   5.155  10.579 -0.0349 -0.4357 -0.0575
   69SLPC    HX 5861   2.969   5.243  10.583 -0.6459 -0.8045 -1.7806
   69SLPC    HY 5862   2.985   5.058  10.601 -0.2343 -0.2584  0.2707
   69SLPC   O31 5863   3.098   5.143  10.450  0.1281 -0.0461 -0.0267
   69SLPC   C31 5864   3.142   5.013  10.427  0.1681  0.1384 -0.3783
   69SLPC   O32 5865   3.139   4.922  10.505  0.1272  0.6099  0.3210
   69SLPC   C32 5866   3.176   5.008  10.279  0.1401  0.3077 -0.1458
   69SLPC   H2X 5867   3.231   5.100  10.251  0.4016 -0.6322 -2.9905
   69SLPC   H2Y 5868   3.081   5.014  10.223 -0.7553 -2.9159  0.8770
   69SLPC   C23 5869   3.376   5.551  10.516 -1.0249 -0.2898 -0.4210
   69SLPC   H3R 5870   3.466   5.490  10.493 -0.7112  0.0193 -0.0298
   69SLPC   H3S 5871   3.419   5.650  10.544 -1.3269 -0.6517  1.3567
   69SLPC   C24 5872   3.299   5.564  10.382  0.3828 -0.0405  0.5080
   69SLPC   H4R 5873   3.204   5.611  10.415 -1.3101 -3.5570  0.8692
   69SLPC   H4S 5874   3.270   5.466  10.339  0.8752  0.1336 -0.2433
   69SLPC   C25 5875   3.379   5.651  10.279 -0.2478  0.2162 -0.1611
   69SLPC   H5R 5876   3.468   5.593  10.247  1.0246  1.4529  1.1058
   69SLPC   H5S 5877   3.411   5.751  10.314 -1.7236  0.8583 -0.6038
   69SLPC   C26 5878   3.297   5.683  10.151  0.3937 -0.6734  0.9207
   69SLPC   H6R 5879   3.206   5.737  10.185  0.1639  0.5448 -1.4958
   69SLPC   H6S 5880   3.271   5.587  10.102  1.3738 -1.0678  1.1781
   69SLPC   C27 5881   3.373   5.762  10.046 -0.1871 -0.1261  0.5380
   69SLPC   H7R 5882   3.476   5.720  10.045  0.1229  0.5800 -2.7395
   69SLPC   H7S 5883   3.370   5.865  10.088  1.5342 -0.5707  1.8129
   69SLPC   C28 5884   3.311   5.767   9.899 -0.3740 -0.0495 -0.5395
   69SLPC   H8R 5885   3.206   5.804   9.903  0.5525  2.6687 -0.4220
   69SLPC   H8S 5886   3.307   5.662   9.865  1.4402 -0.0388 -0.8130
   69SLPC   C29 5887   3.384   5.841   9.794 -0.0842 -0.0355  0.1877
   69SLPC   H9R 5888   3.440   5.931   9.824  1.0455 -1.0392  1.1189
   69SLPC  C210 5889   3.405   5.810   9.664  0.7501 -0.0545  0.5310
   69SLPC  H10R 5890   3.476   5.872   9.607  1.3480  0.3132  1.6764
   69SLPC  C211 5891   3.360   5.688   9.581  0.5032  0.0125  0.6523
   69SLPC  H11R 5892   3.360   5.596   9.643  2.2087 -0.7759 -0.4984
   69SLPC  H11S 5893   3.433   5.671   9.499 -0.1136 -1.5584  0.4155
   69SLPC  C212 5894   3.220   5.706   9.521  0.0750 -0.4684 -0.8485
   69SLPC  H12R 5895   3.139   5.713   9.594  0.8307 -1.0695  0.0724
   69SLPC  C213 5896   3.188   5.703   9.394  0.0304  0.2365 -0.2689
   69SLPC  H13R 5897   3.084   5.728   9.369 -0.1913 -0.2136  0.1880
   69SLPC  C214 5898   3.268   5.680   9.266 -0.8288 -1.1451 -0.2391
   69SLPC  H14R 5899   3.366   5.629   9.279 -1.4068 -2.4696 -0.9448
   69SLPC  H14S 5900   3.291   5.780   9.224  2.2546 -1.6093  0.2333
   69SLPC  C215 5901   3.181   5.604   9.169  0.4843  0.8508  0.3330
   69SLPC  H15R 5902   3.089   5.666   9.160  1.0435  2.1001  2.5957
   69SLPC  H15S 5903   3.162   5.498   9.196  0.4275  0.4237 -1.3570
   69SLPC  C216 5904   3.252   5.605   9.031  0.2213  0.1681 -0.9625
   69SLPC  H16R 5905   3.192   5.550   8.956  0.2071  2.1820 -2.4588
   69SLPC  H16S 5906   3.355   5.570   9.053  0.1935  0.5156 -0.2312
   69SLPC  C217 5907   3.253   5.739   8.963 -0.0127 -0.8433  0.2566
   69SLPC  H17R 5908   3.356   5.780   8.958 -0.5725  0.3431 -2.1480
   69SLPC  H17S 5909   3.198   5.820   9.015  1.1610  1.2636 -1.6742
   69SLPC  C218 5910   3.213   5.731   8.818  0.2124 -0.3512  0.6058
   69SLPC  H18R 5911   3.229   5.830   8.771  2.4967 -1.2625 -0.6317
   69SLPC  H18S 5912   3.106   5.704   8.807  0.1837  0.1343 -0.3845
   69SLPC  H18T 5913   3.274   5.651   8.771 -1.3044 -1.1315 -0.0913
   69SLPC   C33 5914   3.263   4.892  10.239  0.8548  0.2188  0.2080
   69SLPC   H3X 5915   3.230   4.797  10.286  4.4703  0.1324  2.6712
   69SLPC   H3Y 5916   3.371   4.905  10.259  0.7831  0.1835  0.6178
   69SLPC   C34 5917   3.257   4.872  10.089 -0.5654 -0.0919  0.0583
   69SLPC   H4X 5918   3.320   4.945  10.034 -1.4698  2.0296  1.7932
   69SLPC   H4Y 5919   3.153   4.893  10.056 -1.1062 -0.3765  1.5570
   69SLPC   C35 5920   3.302   4.732  10.052 -0.0598  0.7577  0.0723
   69SLPC   H5X 5921   3.269   4.653  10.123 -1.0078  1.3214  0.2733
   69SLPC   H5Y 5922   3.412   4.727  10.050 -0.1190 -0.2121 -0.9099
   69SLPC   C36 5923   3.261   4.687   9.913  0.3163 -0.3303 -0.2511
   69SLPC   H6X 5924   3.151   4.675   9.902 -0.2585 -0.2446  4.4156
   69SLPC   H6Y 5925   3.316   4.591   9.901  0.8123  0.0196 -0.8199
   69SLPC   C37 5926   3.307   4.795   9.810  0.2462  0.4793  0.1175
   69SLPC   H7X 5927   3.417   4.805   9.821  0.4875  0.7131 -2.3066
   69SLPC   H7Y 5928   3.257   4.892   9.834 -0.8988  0.3033 -1.4528
   69SLPC   C38 5929   3.258   4.757   9.669 -0.1624  0.1392 -0.4857
   69SLPC   H8X 5930   3.152   4.724   9.675 -0.1912  0.1593 -0.8801
   69SLPC   H8Y 5931   3.322   4.670   9.643  2.3513  1.9832 -0.7152
   69SLPC   C39 5932   3.284   4.868   9.563  0.2083 -0.3206  0.1404
   69SLPC   H9X 5933   3.391   4.896   9.576  0.2236  0.2607 -1.1256
   69SLPC   H9Y 5934   3.219   4.953   9.591 -0.3457  0.0472 -2.1041
   69SLPC  C310 5935   3.259   4.825   9.420 -0.6213  0.3335 -0.0006
   69SLPC  H10X 5936   3.274   4.913   9.354  3.4661  0.5039  1.0364
   69SLPC  H10Y 5937   3.153   4.792   9.414 -0.6048  0.0847  0.9673
   69SLPC  C311 5938   3.358   4.711   9.385 -0.1462 -0.0387  0.5176
   69SLPC  H11X 5939   3.345   4.625   9.454 -1.3460 -0.0559  0.2911
   69SLPC  H11Y 5940   3.461   4.751   9.390 -0.8394  1.7051  1.1909
   69SLPC  C312 5941   3.334   4.658   9.246  0.5122  0.7081  0.3940
   69SLPC  H12X 5942   3.346   4.741   9.174  1.5495 -0.3382 -0.6681
   69SLPC  H12Y 5943   3.230   4.618   9.248  0.9098 -0.4925 -1.2839
   69SLPC  C313 5944   3.425   4.538   9.222 -0.5488 -0.5160 -0.7877
   69SLPC  H13X 5945   3.393   4.461   9.295 -0.7989  1.4363  1.2264
   69SLPC  H13Y 5946   3.531   4.565   9.238 -0.7122 -0.4317  0.1603
   69SLPC  C314 5947   3.418   4.490   9.078  0.1544 -0.2053  0.7832
   69SLPC  H14X 5948   3.506   4.425   9.057  0.9038  0.4938  1.7124
   69SLPC  H14Y 5949   3.401   4.573   9.006  1.6127 -2.1454 -1.9043
   69SLPC  C315 5950   3.295   4.400   9.050  0.1199 -0.6902 -0.2127
   69SLPC  H15X 5951   3.202   4.456   9.073  0.2939 -0.7482  0.6722
   69SLPC  H15Y 5952   3.283   4.317   9.123 -3.8026 -0.6401 -0.7065
   69SLPC  C316 5953   3.294   4.339   8.897  0.3567 -0.7766 -0.1024
   69SLPC  H16X 5954   3.358   4.248   8.898 -0.3745 -1.3148 -1.5201
   69SLPC  H16Y 5955   3.346   4.406   8.826  0.5380  1.2989  1.9362
   69SLPC  C317 5956   3.163   4.305   8.832 -0.3598 -0.3865 -0.2548
   69SLPC  H17X 5957   3.125   4.403   8.798  0.3404  0.1567  0.5152
   69SLPC  H17Y 5958   3.093   4.263   8.908 -1.3529  0.0823 -0.8965
   69SLPC  C318 5959   3.178   4.202   8.720 -0.3076  0.1811 -0.4078
   69SLPC  H18X 5960   3.238   4.255   8.643 -0.7716  0.7260 -0.4024
   69SLPC  H18Y 5961   3.078   4.185   8.674 -0.1350 -1.1500 -0.2979
   69SLPC  H18Z 5962   3.223   4.104   8.746  0.0264  0.1101 -1.2440
   70SLPC     N 5963   5.020   2.839  11.076 -0.3984  0.3797  0.8610
   70SLPC   C13 5964   5.105   2.745  11.157 -0.5830  0.0040  0.2375
   70SLPC  H13A 5965   5.064   2.645  11.163  1.6888 -1.1042 -1.7748
   70SLPC  H13B 5966   5.206   2.737  11.121 -0.8790 -2.8978 -0.0618
   70SLPC  H13C 5967   5.122   2.776  11.259  0.5207 -4.2624  1.4712
   70SLPC   C14 5968   5.030   2.804  10.927  0.3856  0.0031 -0.1895
   70SLPC  H14A 5969   4.990   2.889  10.874 -1.3118 -0.6208  0.0508
   70SLPC  H14B 5970   5.131   2.786  10.894 -0.1497 -1.1261 -1.2629
   70SLPC  H14C 5971   4.973   2.716  10.899 -1.6242  1.0504  0.5385
   70SLPC   C15 5972   5.068   2.979  11.096 -0.3895  0.0174 -0.0681
   70SLPC  H15A 5973   5.010   3.054  11.044 -2.1368  0.2761  2.1554
   70SLPC  H15B 5974   5.071   3.009  11.200  0.9590 -0.3244  0.0008
   70SLPC  H15C 5975   5.164   2.988  11.048  0.4027  0.5241  1.5798
   70SLPC   C12 5976   4.873   2.841  11.127  0.3915  0.5343  0.0112
   70SLPC  H12A 5977   4.837   2.938  11.097  2.4100  0.8590 -1.4871
   70SLPC  H12B 5978   4.869   2.835  11.235 -0.8417 -3.2342 -0.1706
   70SLPC   C11 5979   4.791   2.723  11.075  0.0900 -0.4395 -0.2786
   70SLPC  H11A 5980   4.698   2.716  11.135  1.2289  2.0782  1.8884
   70SLPC  H11B 5981   4.853   2.631  11.088  1.0310  0.2419  0.1698
   70SLPC     P 5982   4.648   2.813  10.883  0.3836  0.3546  0.0777
   70SLPC   O13 5983   4.534   2.723  10.864  0.0087  0.3224  0.2887
   70SLPC   O14 5984   4.620   2.930  10.968 -0.2508 -0.2011  0.5695
   70SLPC   O12 5985   4.766   2.727  10.934 -0.1238 -0.0955 -0.2585
   70SLPC   O11 5986   4.698   2.862  10.739  0.2797 -0.0919  0.3785
   70SLPC    C1 5987   4.652   2.798  10.621 -0.4003 -0.2471  0.1757
   70SLPC    HA 5988   4.664   2.687  10.622 -0.0417 -0.2154 -0.2603
   70SLPC    HB 5989   4.545   2.822  10.607  0.0149  0.6450 -1.6768
   70SLPC    C2 5990   4.730   2.847  10.494 -0.1966  0.0051  0.9132
   70SLPC    HS 5991   4.838   2.844  10.521 -0.0010  0.3222  0.1970
   70SLPC   O21 5992   4.682   2.982  10.468  0.5411  0.0006 -0.0769
   70SLPC   C21 5993   4.743   3.045  10.368 -1.1464 -0.0884 -0.1418
   70SLPC   O22 5994   4.851   3.017  10.326 -0.2304 -0.6638 -0.2158
   70SLPC   C22 5995   4.648   3.164  10.321 -0.0760 -0.6172 -0.1939
   70SLPC   H2R 5996   4.608   3.213  10.412  1.3607 -1.7425  1.0637
   70SLPC   H2S 5997   4.704   3.232  10.254  0.7181 -1.2612 -0.1964
   70SLPC    C3 5998   4.712   2.741  10.378  0.2293  0.3054  0.2505
   70SLPC    HX 5999   4.747   2.646  10.425  2.9186  1.7738  1.3823
   70SLPC    HY 6000   4.775   2.767  10.290 -1.6119 -4.6187 -2.7253
   70SLPC   O31 6001   4.568   2.731  10.347 -0.0142  0.6352 -0.1328
   70SLPC   C31 6002   4.516   2.611  10.359  0.9216  0.8477 -0.6754
   70SLPC   O32 6003   4.575   2.505  10.376  0.0537 -0.6031  0.5863
   70SLPC   C32 6004   4.364   2.617  10.345 -0.3014  0.1945  0.0278
   70SLPC   H2X 6005   4.318   2.667  10.433  0.0514 -0.2539  0.4709
   70SLPC   H2Y 6006   4.331   2.511  10.348 -3.2320  1.0417 -0.6380
   70SLPC   C23 6007   4.527   3.103  10.248  0.0841 -0.1939  0.1746
   70SLPC   H3R 6008   4.452   3.183  10.237 -0.2639 -0.8332 -2.4556
   70SLPC   H3S 6009   4.494   3.015  10.308  0.4977 -0.9734 -0.7190
   70SLPC   C24 6010   4.564   3.067  10.108 -1.0750  0.1654  0.0397
   70SLPC   H4R 6011   4.626   2.976  10.107 -1.2314  0.0518 -1.5817
   70SLPC   H4S 6012   4.624   3.141  10.050 -1.5874  0.6646  0.1334
   70SLPC   C25 6013   4.443   3.033  10.021 -0.6377 -0.1322  0.3188
   70SLPC   H5R 6014   4.382   3.126  10.029 -0.4626  0.0883 -0.7920
   70SLPC   H5S 6015   4.376   2.951  10.055 -1.1415  0.3419  0.4857
   70SLPC   C26 6016   4.469   3.002   9.871  0.6873 -0.2040 -0.6326
   70SLPC   H6R 6017   4.537   2.914   9.868 -0.1012 -0.8321 -0.1301
   70SLPC   H6S 6018   4.527   3.087   9.828 -1.3679 -0.1265 -3.3486
   70SLPC   C27 6019   4.342   2.968   9.796  0.1822  0.7117  0.3721
   70SLPC   H7R 6020   4.280   3.060   9.797  0.9314  1.2459 -1.1550
   70SLPC   H7S 6021   4.279   2.902   9.860 -0.8417  0.4439 -0.9093
   70SLPC   C28 6022   4.362   2.927   9.646  0.6918 -0.7212  0.0914
   70SLPC   H8R 6023   4.401   3.014   9.589  0.5580 -0.6807  0.0633
   70SLPC   H8S 6024   4.259   2.898   9.618  0.3792  0.7238 -0.3088
   70SLPC   C29 6025   4.456   2.810   9.637 -0.1267  0.7257 -0.4075
   70SLPC   H9R 6026   4.429   2.735   9.714 -0.5919  2.2663  0.9592
   70SLPC  C210 6027   4.549   2.785   9.547  0.6147  0.3480 -0.1943
   70SLPC  H10R 6028   4.591   2.684   9.548 -1.0526 -0.3476  2.0148
   70SLPC  C211 6029   4.579   2.862   9.426  0.5210  0.1061  0.1276
   70SLPC  H11R 6030   4.602   2.969   9.446  1.1027 -0.1133  0.6632
   70SLPC  H11S 6031   4.494   2.864   9.355  2.1194  0.4836 -1.8319
   70SLPC  C212 6032   4.701   2.806   9.353 -0.6328 -0.1411  0.3606
   70SLPC  H12R 6033   4.801   2.850   9.371 -1.5598  2.1249  0.1994
   70SLPC  C213 6034   4.685   2.703   9.262 -0.5205  0.0074 -0.4864
   70SLPC  H13R 6035   4.778   2.665   9.218 -0.7032 -1.7054  0.5775
   70SLPC  C214 6036   4.553   2.630   9.234  0.0220  0.4663 -0.0931
   70SLPC  H14R 6037   4.491   2.623   9.327 -1.4806 -0.1187 -1.1269
   70SLPC  H14S 6038   4.587   2.527   9.212 -1.1988  0.8977 -4.3478
   70SLPC  C215 6039   4.475   2.677   9.121  0.2037 -0.3559  0.3589
   70SLPC  H15R 6040   4.452   2.783   9.146 -0.5266 -0.7252  1.2897
   70SLPC  H15S 6041   4.383   2.615   9.127  1.1298 -1.8738 -0.7365
   70SLPC  C216 6042   4.552   2.663   8.990 -0.3587 -0.0530 -0.6758
   70SLPC  H16R 6043   4.579   2.556   8.972 -0.1669 -0.7774  3.5040
   70SLPC  H16S 6044   4.650   2.714   8.996 -0.7044  0.4634  0.6234
   70SLPC  C217 6045   4.483   2.698   8.860  0.1119  0.3641  0.1782
   70SLPC  H17R 6046   4.551   2.680   8.773 -0.2083 -1.7320  0.3420
   70SLPC  H17S 6047   4.463   2.807   8.857  1.5377  0.7512  3.3091
   70SLPC  C218 6048   4.348   2.626   8.835  0.0414 -0.8205  0.2335
   70SLPC  H18R 6049   4.344   2.523   8.875 -4.2661 -0.6939  0.3101
   70SLPC  H18S 6050   4.329   2.635   8.726  2.7269 -1.7325 -0.3531
   70SLPC  H18T 6051   4.267   2.677   8.891  1.0394  2.4442 -1.1386
   70SLPC   C33 6052   4.318   2.673  10.213  0.0998  0.0598  0.6677
   70SLPC   H3X 6053   4.364   2.771  10.188  1.0570 -0.2464  1.1888
   70SLPC   H3Y 6054   4.210   2.692  10.230  0.2682  1.3874  0.2398
   70SLPC   C34 6055   4.322   2.568  10.099 -0.0311 -0.3764  0.1360
   70SLPC   H4X 6056   4.285   2.472  10.141 -2.8473  0.2223 -0.8727
   70SLPC   H4Y 6057   4.430   2.572  10.076 -0.0735  1.2743  0.1587
   70SLPC   C35 6058   4.246   2.605   9.976 -0.1219  0.0060 -0.8036
   70SLPC   H5X 6059   4.280   2.705   9.945  2.5143 -0.9099 -0.9659
   70SLPC   H5Y 6060   4.139   2.625  10.000  0.5273  2.1351  0.3976
   70SLPC   C36 6061   4.265   2.517   9.851  0.2317 -0.8794  0.2352
   70SLPC   H6X 6062   4.263   2.415   9.895 -0.6238 -0.9510  0.0263
   70SLPC   H6Y 6063   4.369   2.539   9.818 -0.3283  0.9903 -0.2934
   70SLPC   C37 6064   4.167   2.537   9.726  0.1646 -0.4700 -0.5430
   70SLPC   H7X 6065   4.214   2.469   9.652 -1.5921  0.6515 -2.7468
   70SLPC   H7Y 6066   4.180   2.634   9.675 -1.7743  0.1614  0.1243
   70SLPC   C38 6067   4.014   2.515   9.743  0.7258  0.3386  0.4851
   70SLPC   H8X 6068   3.977   2.600   9.804  1.2511 -0.0298  1.3177
   70SLPC   H8Y 6069   4.000   2.420   9.798  2.1047 -0.2183 -0.1033
   70SLPC   C39 6070   3.949   2.497   9.604 -0.1822 -0.2018  0.2528
   70SLPC   H9X 6071   3.990   2.567   9.528 -1.9212  0.4439 -0.1112
   70SLPC   H9Y 6072   3.842   2.522   9.621  0.1028 -0.2197  2.1595
   70SLPC  C310 6073   3.967   2.349   9.553  0.2409  0.0176  0.4047
   70SLPC  H10X 6074   3.888   2.284   9.597 -1.1178  1.7675  0.5821
   70SLPC  H10Y 6075   4.073   2.317   9.561  0.4382  0.7907  0.8892
   70SLPC  C311 6076   3.938   2.335   9.404 -0.3054  0.6706  0.6225
   70SLPC  H11X 6077   4.029   2.374   9.354 -0.1057  0.1228  0.5649
   70SLPC  H11Y 6078   3.848   2.395   9.379 -0.3023  1.4348  2.3084
   70SLPC  C312 6079   3.927   2.189   9.356 -0.0995  0.4127  0.7930
   70SLPC  H12X 6080   3.832   2.155   9.402 -0.3407 -0.7770 -0.5457
   70SLPC  H12Y 6081   4.013   2.134   9.401  1.9656 -0.3594 -3.8267
   70SLPC  C313 6082   3.938   2.170   9.204 -0.2773 -0.3111  0.1481
   70SLPC  H13X 6083   3.853   2.227   9.162 -1.6023 -1.5672  1.0914
   70SLPC  H13Y 6084   3.924   2.062   9.182 -1.8506 -0.0389 -0.2191
   70SLPC  C314 6085   4.060   2.225   9.138 -0.4689 -0.3644  0.2785
   70SLPC  H14X 6086   4.143   2.164   9.178 -0.3069  0.0373  0.5519
   70SLPC  H14Y 6087   4.083   2.332   9.159 -0.5831 -0.9247  3.4911
   70SLPC  C315 6088   4.060   2.200   8.986  0.4516 -0.3645  0.6418
   70SLPC  H15X 6089   3.974   2.134   8.962 -0.9172  1.7497 -0.4764
   70SLPC  H15Y 6090   4.153   2.149   8.955  1.5346  2.5744 -1.1629
   70SLPC  C316 6091   4.043   2.335   8.899 -0.2159 -0.5609  0.2956
   70SLPC  H16X 6092   4.137   2.391   8.878 -1.1806  1.1729  0.5689
   70SLPC  H16Y 6093   3.973   2.401   8.953 -0.6812 -1.0890  0.3390
   70SLPC  C317 6094   3.989   2.309   8.761 -0.5814  0.3151 -0.2851
   70SLPC  H17X 6095   3.895   2.252   8.776 -0.5426  0.9457  2.8493
   70SLPC  H17Y 6096   4.051   2.241   8.700 -2.2766 -0.1094 -1.5928
   70SLPC  C318 6097   3.949   2.439   8.682 -0.8692  0.2154 -0.2085
   70SLPC  H18X 6098   4.027   2.514   8.708  0.4664 -1.1326 -0.3128
   70SLPC  H18Y 6099   3.848   2.473   8.714 -0.1860 -0.3250  2.6415
   70SLPC  H18Z 6100   3.940   2.425   8.572 -2.4463  2.4227 -0.4106
   71SLPC     N 6101   4.152   1.132  10.601  0.4663  0.3041  0.1446
   71SLPC   C13 6102   4.077   1.128  10.731  0.1073  0.4267  0.0996
   71SLPC  H13A 6103   4.020   1.219  10.743  1.9895  1.4813  1.3156
   71SLPC  H13B 6104   3.998   1.056  10.747  0.5384 -0.0810 -0.0625
   71SLPC  H13C 6105   4.142   1.134  10.817 -2.2793 -0.1656  1.9933
   71SLPC   C14 6106   4.046   1.148  10.496 -0.2336  0.1411  0.4664
   71SLPC  H14A 6107   3.979   1.064  10.487 -0.5734  0.2315  1.9991
   71SLPC  H14B 6108   3.990   1.233  10.529  1.1642  1.1515  0.2873
   71SLPC  H14C 6109   4.092   1.164  10.400  4.1324  0.1697  2.4376
   71SLPC   C15 6110   4.231   1.002  10.585  0.5932 -0.1099 -0.0640
   71SLPC  H15A 6111   4.160   0.923  10.599  2.0209 -1.3483  0.2925
   71SLPC  H15B 6112   4.267   1.004  10.484  1.4327  1.5106  0.2387
   71SLPC  H15C 6113   4.311   0.989  10.657  0.3778  0.3191  0.2532
   71SLPC   C12 6114   4.257   1.238  10.599  0.0494  0.5332 -0.0252
   71SLPC  H12A 6115   4.323   1.218  10.515 -0.4637 -1.4085  0.0138
   71SLPC  H12B 6116   4.313   1.226  10.690 -2.7674  0.7137  1.7761
   71SLPC   C11 6117   4.220   1.387  10.609  0.5963 -0.8779 -0.6013
   71SLPC  H11A 6118   4.171   1.425  10.517 -1.7708 -2.0734  0.1259
   71SLPC  H11B 6119   4.320   1.436  10.610 -0.4469  1.3349 -0.9771
   71SLPC     P 6120   4.022   1.492  10.755 -0.1636  0.0245 -0.2268
   71SLPC   O13 6121   3.928   1.398  10.817  0.5280  0.1146 -0.0031
   71SLPC   O14 6122   4.042   1.624  10.827  0.5656  0.4284 -0.4244
   71SLPC   O12 6123   4.151   1.415  10.727  0.2740 -0.4273 -0.0333
   71SLPC   O11 6124   3.983   1.527  10.608 -0.2820 -0.3380  0.2234
   71SLPC    C1 6125   3.860   1.560  10.557  0.0628  0.3697  0.2305
   71SLPC    HA 6126   3.785   1.557  10.639 -0.6916  1.2725 -0.4154
   71SLPC    HB 6127   3.853   1.666  10.522  0.3195  0.3915  0.2416
   71SLPC    C2 6128   3.818   1.457  10.437  0.0086 -0.6106  0.0696
   71SLPC    HS 6129   3.718   1.480  10.393  0.3178 -2.3932 -1.6313
   71SLPC   O21 6130   3.815   1.319  10.490 -0.3137  0.2653 -0.3508
   71SLPC   C21 6131   3.705   1.278  10.540  0.0256  0.1084 -0.0015
   71SLPC   O22 6132   3.606   1.348  10.558 -0.0765 -0.0582 -0.2165
   71SLPC   C22 6133   3.706   1.132  10.582  0.1915  0.0931 -0.0015
   71SLPC   H2R 6134   3.807   1.118  10.625 -0.0772  0.0372  0.6074
   71SLPC   H2S 6135   3.625   1.124  10.658 -0.1913  0.2440 -0.3899
   71SLPC    C3 6136   3.918   1.464  10.322 -0.1547  0.3804 -0.1150
   71SLPC    HX 6137   4.009   1.411  10.359  0.8721  1.8985 -0.4146
   71SLPC    HY 6138   3.941   1.569  10.293 -2.0011  0.5389 -1.0411
   71SLPC   O31 6139   3.870   1.405  10.201  0.1904  0.5833  0.0019
   71SLPC   C31 6140   3.983   1.362  10.124 -0.2051 -0.2967  0.4598
   71SLPC   O32 6141   4.095   1.372  10.163  0.4270  0.1313  0.0457
   71SLPC   C32 6142   3.928   1.303   9.993  0.0038 -0.5477 -0.3091
   71SLPC   H2X 6143   3.855   1.381   9.962 -0.2853 -0.4351  0.6335
   71SLPC   H2Y 6144   3.869   1.215  10.025  0.5744 -0.8116  0.0192
   71SLPC   C23 6145   3.682   1.039  10.459 -0.2191  0.0190 -0.7848
   71SLPC   H3R 6146   3.706   0.932  10.473  0.2500  0.1437 -0.6105
   71SLPC   H3S 6147   3.760   1.070  10.385 -1.3207 -1.8696 -2.7791
   71SLPC   C24 6148   3.541   1.052  10.404  0.9433  0.3816  0.9088
   71SLPC   H4R 6149   3.528   1.154  10.363  0.8371 -1.0850 -2.9794
   71SLPC   H4S 6150   3.465   1.028  10.481  2.7053 -0.6136  2.3660
   71SLPC   C25 6151   3.513   0.948  10.291 -0.1736  0.1389  0.4293
   71SLPC   H5R 6152   3.410   0.975  10.260 -0.1881  1.1164  1.2878
   71SLPC   H5S 6153   3.524   0.851  10.344 -1.7777 -0.1685  0.2521
   71SLPC   C26 6154   3.600   0.944  10.173  0.4522 -0.1977  0.1637
   71SLPC   H6R 6155   3.694   0.889  10.196  0.8185  0.6093  0.6029
   71SLPC   H6S 6156   3.625   1.036  10.116  1.2397  0.7648  2.0241
   71SLPC   C27 6157   3.540   0.851  10.066  0.2429 -0.3000 -0.4849
   71SLPC   H7R 6158   3.447   0.896  10.027 -0.5128 -0.3164  1.2453
   71SLPC   H7S 6159   3.514   0.752  10.111 -0.6653  0.2143  0.1269
   71SLPC   C28 6160   3.636   0.823   9.946  0.3881 -0.0711  0.4531
   71SLPC   H8R 6161   3.594   0.743   9.882  1.9783  0.4152 -1.2370
   71SLPC   H8S 6162   3.726   0.770   9.986 -0.7745 -1.3391  1.4501
   71SLPC   C29 6163   3.678   0.948   9.878 -0.4743  0.3663  0.1434
   71SLPC   H9R 6164   3.750   1.010   9.934 -1.4957  0.9846  0.7848
   71SLPC  C210 6165   3.650   0.971   9.750 -0.4102 -0.2513 -0.1734
   71SLPC  H10R 6166   3.689   1.066   9.712  0.9931 -0.9353 -0.5225
   71SLPC  C211 6167   3.585   0.875   9.658  0.1438  0.5419 -0.0294
   71SLPC  H11R 6168   3.532   0.798   9.717  3.7090 -0.7294  1.5960
   71SLPC  H11S 6169   3.652   0.823   9.587 -0.3288 -0.9168  0.5904
   71SLPC  C212 6170   3.483   0.943   9.564  0.1306 -0.7443 -0.2250
   71SLPC  H12R 6171   3.404   1.005   9.608  1.9827 -0.3770  2.7665
   71SLPC  C213 6172   3.496   0.943   9.424  0.3671 -0.5724  0.2092
   71SLPC  H13R 6173   3.427   1.008   9.369 -0.0850  0.5839  2.0662
   71SLPC  C214 6174   3.614   0.886   9.344 -0.4834 -1.1084  0.9464
   71SLPC  H14R 6175   3.607   0.776   9.344  0.5506 -1.1824  0.8538
   71SLPC  H14S 6176   3.706   0.922   9.395 -0.4742 -0.4690  0.4978
   71SLPC  C215 6177   3.637   0.936   9.197 -0.2915  0.7557  0.1747
   71SLPC  H15R 6178   3.642   1.047   9.198 -0.1381  0.7446  0.6346
   71SLPC  H15S 6179   3.543   0.896   9.153 -1.0866  1.4196  1.2364
   71SLPC  C216 6180   3.758   0.887   9.129  0.2604  0.7949  0.5534
   71SLPC  H16R 6181   3.750   0.776   9.133  0.5062  0.7791  0.6216
   71SLPC  H16S 6182   3.858   0.916   9.168  1.1068 -1.2009 -0.0638
   71SLPC  C217 6183   3.757   0.922   8.978  0.0962  0.1414  0.6841
   71SLPC  H17R 6184   3.747   1.030   8.953  0.0425  0.2381  1.1205
   71SLPC  H17S 6185   3.659   0.888   8.937  0.4671 -2.8022  2.1098
   71SLPC  C218 6186   3.865   0.855   8.898  0.5652  0.2352 -0.1079
   71SLPC  H18R 6187   3.859   0.896   8.794  0.6324  0.4919 -0.0112
   71SLPC  H18S 6188   3.841   0.747   8.898 -0.0806  0.3233 -3.4175
   71SLPC  H18T 6189   3.967   0.858   8.941  0.7833 -0.1073 -0.5925
   71SLPC   C33 6190   4.038   1.266   9.894  0.0105  0.3518 -0.2411
   71SLPC   H3X 6191   4.089   1.173   9.928  0.2291  0.2876 -0.7342
   71SLPC   H3Y 6192   4.116   1.345   9.897 -2.0754  2.4075  1.4690
   71SLPC   C34 6193   3.991   1.240   9.747 -0.1256  0.2346  0.6672
   71SLPC   H4X 6194   3.933   1.328   9.714 -3.5754 -0.6721  3.9197
   71SLPC   H4Y 6195   3.911   1.163   9.744 -1.3607  1.4899  0.8930
   71SLPC   C35 6196   4.104   1.202   9.650  0.7328 -0.1095 -0.2836
   71SLPC   H5X 6197   4.130   1.108   9.704 -2.9190 -0.2597  1.4014
   71SLPC   H5Y 6198   4.189   1.274   9.644 -0.5270  1.4292  0.0166
   71SLPC   C36 6199   4.033   1.170   9.521 -0.0150  0.4724 -0.5467
   71SLPC   H6X 6200   3.970   1.257   9.491 -1.3769 -0.1701  0.3977
   71SLPC   H6Y 6201   3.949   1.098   9.533  0.3557 -0.0782 -1.2453
   71SLPC   C37 6202   4.119   1.117   9.406  0.6309  0.2245 -0.2557
   71SLPC   H7X 6203   4.114   1.006   9.401 -0.7524  0.2766 -0.1614
   71SLPC   H7Y 6204   4.223   1.145   9.435 -0.0443  1.5671  0.9071
   71SLPC   C38 6205   4.099   1.182   9.275 -0.1873  0.0478 -0.4551
   71SLPC   H8X 6206   4.127   1.290   9.275 -1.9832  0.5164 -0.8744
   71SLPC   H8Y 6207   3.996   1.177   9.234 -1.2264  3.6948  1.5213
   71SLPC   C39 6208   4.196   1.110   9.173  0.9297 -0.5061 -1.2179
   71SLPC   H9X 6209   4.168   1.003   9.167  1.6906 -0.9338  1.9685
   71SLPC   H9Y 6210   4.303   1.115   9.203  0.3364 -1.5188  1.2359
   71SLPC  C310 6211   4.171   1.172   9.034 -0.5905  0.1102  0.5254
   71SLPC  H10X 6212   4.250   1.249   9.027  1.4498 -1.9744 -0.3321
   71SLPC  H10Y 6213   4.065   1.204   9.022  0.3922  2.7412 -1.4647
   71SLPC  C311 6214   4.194   1.069   8.926 -0.6976  0.8586  0.4893
   71SLPC  H11X 6215   4.124   0.984   8.944 -0.7097  0.3196 -1.9031
   71SLPC  H11Y 6216   4.298   1.031   8.927 -0.5698  0.9520 -3.1637
   71SLPC  C312 6217   4.159   1.119   8.789  0.2724 -0.1855  0.5647
   71SLPC  H12X 6218   4.215   1.213   8.770 -0.1182 -0.4516 -2.0209
   71SLPC  H12Y 6219   4.048   1.125   8.782 -0.0138  0.5612  4.6780
   71SLPC  C313 6220   4.190   1.009   8.694  0.2283  0.4472  0.5444
   71SLPC  H13X 6221   4.162   0.905   8.720 -1.1604  0.0531 -2.3692
   71SLPC  H13Y 6222   4.301   1.006   8.700  0.2316 -1.1842 -0.0234
   71SLPC  C314 6223   4.135   1.040   8.550 -0.1559 -0.4319 -0.9687
   71SLPC  H14X 6224   4.130   1.151   8.539 -0.6652 -0.1160  2.0189
   71SLPC  H14Y 6225   4.029   1.010   8.537 -0.4237 -0.0213  0.1898
   71SLPC  C315 6226   4.230   0.982   8.447 -0.2628  1.0217 -0.4245
   71SLPC  H15X 6227   4.228   0.871   8.448  1.0011  0.9975  0.7536
   71SLPC  H15Y 6228   4.328   1.025   8.475 -0.2711  1.0680 -0.4667
   71SLPC  C316 6229   4.207   1.033   8.299 -0.1943 -0.0240  0.5724
   71SLPC  H16X 6230   4.295   0.997   8.242 -2.4335 -1.3380 -2.1781
   71SLPC  H16Y 6231   4.199   1.143   8.293 -1.4448 -0.1875 -0.8928
   71SLPC  C317 6232   4.091   0.962   8.229  0.4508  0.0355 -0.0406
   71SLPC  H17X 6233   3.993   1.012   8.247 -0.6420 -1.9871 -0.2099
   71SLPC  H17Y 6234   4.081   0.863   8.280 -0.4432  0.5365  0.7721
   71SLPC  C318 6235   4.109   0.933   8.075  0.4001  0.7032 -0.1623
   71SLPC  H18X 6236   4.201   0.875   8.053  0.0880  1.3532 -3.4645
   71SLPC  H18Y 6237   4.120   1.027   8.016 -2.0139  0.0607 -1.7137
   71SLPC  H18Z 6238   4.023   0.875   8.035 -0.5637  0.4060  2.2555
   72SLPC     N 6239   5.109   6.581  10.967 -0.0364  0.2835 -0.6005
   72SLPC   C13 6240   4.996   6.525  11.043 -0.2059  0.1254  0.6488
   72SLPC  H13A 6241   4.906   6.544  10.987 -0.1952  1.1037  0.9607
   72SLPC  H13B 6242   5.009   6.419  11.055 -1.2720 -0.1021 -0.1333
   72SLPC  H13C 6243   4.988   6.565  11.143 -2.8502  1.3011 -0.0047
   72SLPC   C14 6244   5.239   6.568  11.045  0.0930 -0.3358  0.2322
   72SLPC  H14A 6245   5.260   6.463  11.058  0.1162 -0.7075 -2.4982
   72SLPC  H14B 6246   5.322   6.617  10.998 -0.6359  1.0389  0.3414
   72SLPC  H14C 6247   5.220   6.617  11.140  0.2715  0.5765 -0.1917
   72SLPC   C15 6248   5.092   6.735  10.961  0.3973 -0.7472  0.3103
   72SLPC  H15A 6249   5.032   6.767  11.044 -0.3456 -0.5218 -0.3127
   72SLPC  H15B 6250   5.186   6.788  10.953 -0.1563  0.3070  0.6936
   72SLPC  H15C 6251   5.044   6.752  10.866  2.7267  1.0984 -0.6017
   72SLPC   C12 6252   5.129   6.519  10.834  0.1296 -0.6894  0.3821
   72SLPC  H12A 6253   5.127   6.412  10.845 -0.6785 -0.5133  2.1666
   72SLPC  H12B 6254   5.222   6.551  10.790 -1.3831  0.0576 -2.3905
   72SLPC   C11 6255   5.007   6.541  10.738  0.0557 -0.1284  0.3490
   72SLPC  H11A 6256   4.910   6.515  10.785 -0.3409 -3.3877 -2.1357
   72SLPC  H11B 6257   5.006   6.465  10.657 -1.1247  0.8390 -0.5790
   72SLPC     P 6258   5.078   6.740  10.584  0.2045  0.1183  0.4648
   72SLPC   O13 6259   4.999   6.853  10.521 -0.3889 -0.2184  0.1389
   72SLPC   O14 6260   5.206   6.783  10.641  0.2331 -0.3087 -0.0927
   72SLPC   O12 6261   4.984   6.675  10.696 -0.2432 -0.2489  0.2537
   72SLPC   O11 6262   5.094   6.622  10.479 -0.5293  0.6769 -0.3095
   72SLPC    C1 6263   5.017   6.594  10.364 -0.0632  0.9241 -0.3646
   72SLPC    HA 6264   4.917   6.553  10.388  0.7153 -0.3943  0.6955
   72SLPC    HB 6265   5.004   6.684  10.299  0.1014 -0.0438 -1.7604
   72SLPC    C2 6266   5.094   6.493  10.262  0.3911 -0.3871 -0.3501
   72SLPC    HS 6267   5.146   6.418  10.326  1.0365  0.0091 -0.4024
   72SLPC   O21 6268   5.199   6.572  10.191  0.1851 -0.2284 -0.5129
   72SLPC   C21 6269   5.297   6.496  10.136  0.4631  0.4874 -0.3657
   72SLPC   O22 6270   5.318   6.378  10.166  0.5212  0.0582 -0.1940
   72SLPC   C22 6271   5.366   6.555  10.020  0.5404  0.0791  0.0839
   72SLPC   H2R 6272   5.440   6.631  10.053 -1.1156  1.8347 -0.1008
   72SLPC   H2S 6273   5.419   6.468   9.976  0.4473  0.1950 -0.2616
   72SLPC    C3 6274   5.002   6.426  10.160  0.0634  0.3043  0.2517
   72SLPC    HX 6275   4.948   6.352  10.223 -1.7858 -0.0178 -1.6360
   72SLPC    HY 6276   5.063   6.366  10.088 -2.4174 -0.1403 -1.5589
   72SLPC   O31 6277   4.906   6.526  10.111  0.0741  0.2168 -0.3072
   72SLPC   C31 6278   4.877   6.508   9.978 -0.9403 -0.3576  0.5275
   72SLPC   O32 6279   4.928   6.426   9.912 -0.4980 -0.1732 -0.2189
   72SLPC   C32 6280   4.794   6.624   9.930  0.3970 -0.3361  0.1689
   72SLPC   H2X 6281   4.796   6.704  10.006  1.1122  3.1736 -3.3904
   72SLPC   H2Y 6282   4.689   6.589   9.932  0.6169 -0.9699  0.9409
   72SLPC   C23 6283   5.268   6.625   9.913 -0.7503 -0.0437  0.6795
   72SLPC   H3R 6284   5.218   6.710   9.964  0.6756  0.3124  1.5188
   72SLPC   H3S 6285   5.180   6.563   9.886 -0.2380  0.4612 -2.3467
   72SLPC   C24 6286   5.340   6.667   9.784  0.5723 -0.0223  0.4375
   72SLPC   H4R 6287   5.416   6.592   9.755  2.6906  1.9505  0.7931
   72SLPC   H4S 6288   5.389   6.764   9.803  0.4490 -0.0341  0.8098
   72SLPC   C25 6289   5.238   6.677   9.674 -0.2346  0.2919  0.6243
   72SLPC   H5R 6290   5.166   6.759   9.697 -1.9234 -0.5412 -1.4983
   72SLPC   H5S 6291   5.174   6.586   9.677 -0.6682  0.6373  2.3557
   72SLPC   C26 6292   5.306   6.685   9.539 -0.4226  0.1585  0.1725
   72SLPC   H6R 6293   5.352   6.586   9.515  1.2708  1.1563 -0.8597
   72SLPC   H6S 6294   5.384   6.764   9.529  0.1632 -0.2886  1.1080
   72SLPC   C27 6295   5.206   6.718   9.426  0.6197  0.1379 -0.1266
   72SLPC   H7R 6296   5.176   6.825   9.430  1.0043  0.2465 -0.0422
   72SLPC   H7S 6297   5.112   6.666   9.453  1.1248  0.2496  1.9149
   72SLPC   C28 6298   5.254   6.669   9.289  0.2759  1.3151 -0.1967
   72SLPC   H8R 6299   5.165   6.653   9.225 -0.4805  0.5553  1.0201
   72SLPC   H8S 6300   5.296   6.568   9.312 -1.7315  0.5865  0.3698
   72SLPC   C29 6301   5.367   6.750   9.224  1.1587  0.1941 -0.1776
   72SLPC   H9R 6302   5.463   6.737   9.276  0.2075 -0.8783  1.3610
   72SLPC  C210 6303   5.359   6.822   9.112  0.6615  0.5520  0.1090
   72SLPC  H10R 6304   5.440   6.881   9.068  0.4766  0.8323  0.1410
   72SLPC  C211 6305   5.232   6.832   9.036 -0.2428  0.4046 -0.0872
   72SLPC  H11R 6306   5.147   6.833   9.108 -0.2200  0.4990 -0.0635
   72SLPC  H11S 6307   5.214   6.734   8.986 -1.8667  0.0896  1.0478
   72SLPC  C212 6308   5.230   6.965   8.953 -0.4214  0.0001  0.6052
   72SLPC  H12R 6309   5.213   7.049   9.022  0.6713  1.8978 -1.3769
   72SLPC  C213 6310   5.227   6.988   8.821  0.8603  0.2959 -0.2221
   72SLPC  H13R 6311   5.223   7.090   8.780  0.8688  0.5020  0.2869
   72SLPC  C214 6312   5.236   6.882   8.724  0.8866 -0.1299 -0.0460
   72SLPC  H14R 6313   5.156   6.895   8.648  0.2437 -4.1475 -0.1585
   72SLPC  H14S 6314   5.224   6.781   8.768 -0.3952 -0.9817 -2.2784
   72SLPC  C215 6315   5.370   6.885   8.651 -0.1172 -0.3472  0.3769
   72SLPC  H15R 6316   5.387   6.978   8.592 -2.9659  0.9348  1.5027
   72SLPC  H15S 6317   5.364   6.803   8.576  1.3876 -0.9791  0.9261
   72SLPC  C216 6318   5.486   6.868   8.743  0.3205 -0.5729  0.1185
   72SLPC  H16R 6319   5.451   6.790   8.813  0.9288 -0.1979  0.8591
   72SLPC  H16S 6320   5.497   6.953   8.815 -1.6319  0.1194 -0.3778
   72SLPC  C217 6321   5.610   6.811   8.678 -0.9421  0.0334 -0.2874
   72SLPC  H17R 6322   5.592   6.730   8.604  0.1892  0.5020 -1.0848
   72SLPC  H17S 6323   5.664   6.760   8.761  1.2707  0.8024 -1.2036
   72SLPC  C218 6324   5.706   6.912   8.614  0.0723 -1.1590  0.1787
   72SLPC  H18R 6325   5.667   6.949   8.517  2.7175  0.7434 -0.2332
   72SLPC  H18S 6326   5.809   6.875   8.594  1.3868  2.4481 -0.1895
   72SLPC  H18T 6327   5.724   6.998   8.683 -1.1625  0.4020 -1.3920
   72SLPC   C33 6328   4.838   6.672   9.789  0.0780  0.7118  0.4075
   72SLPC   H3X 6329   4.946   6.697   9.792  0.4565 -0.7929 -0.4840
   72SLPC   H3Y 6330   4.786   6.769   9.769  0.6641  0.8665 -0.3932
   72SLPC   C34 6331   4.813   6.579   9.670 -0.9944  0.3960 -0.4104
   72SLPC   H4X 6332   4.724   6.512   9.681 -0.4071 -0.2303  0.5349
   72SLPC   H4Y 6333   4.893   6.502   9.675 -1.7402 -0.2727  1.6833
   72SLPC   C35 6334   4.819   6.652   9.536 -0.2361 -0.1154  0.4816
   72SLPC   H5X 6335   4.891   6.738   9.536 -0.1993 -0.1361 -0.8697
   72SLPC   H5Y 6336   4.717   6.693   9.523  0.6040  1.9703  0.2536
   72SLPC   C36 6337   4.854   6.556   9.417 -0.3254  0.0133 -0.1421
   72SLPC   H6X 6338   4.777   6.476   9.416  0.1415 -0.4845  1.9648
   72SLPC   H6Y 6339   4.950   6.509   9.450  0.9263  2.9243  0.5018
   72SLPC   C37 6340   4.870   6.624   9.285 -0.2707 -0.4327 -0.1078
   72SLPC   H7X 6341   4.958   6.691   9.285 -0.5738 -0.0367 -0.1437
   72SLPC   H7Y 6342   4.783   6.692   9.277 -1.2600 -1.5661  0.8359
   72SLPC   C38 6343   4.869   6.534   9.161 -0.6311  0.3769 -0.0233
   72SLPC   H8X 6344   4.765   6.499   9.143 -0.6569  0.1778  0.4989
   72SLPC   H8Y 6345   4.932   6.443   9.173 -0.9267 -0.0821 -1.8689
   72SLPC   C39 6346   4.918   6.623   9.044 -0.4374 -0.6557 -0.0540
   72SLPC   H9X 6347   5.029   6.625   9.049 -0.5023 -1.2604  2.9294
   72SLPC   H9Y 6348   4.894   6.731   9.059  0.7694 -0.1339 -1.7035
   72SLPC  C310 6349   4.876   6.561   8.911  0.5405 -0.2682  0.3744
   72SLPC  H10X 6350   4.767   6.540   8.917  0.2931  0.6405 -0.9570
   72SLPC  H10Y 6351   4.935   6.468   8.894 -0.3506 -0.6273 -0.8174
   72SLPC  C311 6352   4.877   6.642   8.780 -0.5611  0.1631  0.0259
   72SLPC  H11X 6353   4.981   6.681   8.778  0.1078 -1.6076 -1.3513
   72SLPC  H11Y 6354   4.806   6.722   8.809 -0.1755  0.1340  1.0795
   72SLPC  C312 6355   4.833   6.582   8.646  0.2323 -0.1945 -0.6313
   72SLPC  H12X 6356   4.812   6.655   8.565 -1.2428 -2.8064 -2.6686
   72SLPC  H12Y 6357   4.733   6.535   8.657  1.0074 -1.7837 -0.2192
   72SLPC  C313 6358   4.938   6.481   8.607  0.8966 -0.0078 -0.6188
   72SLPC  H13X 6359   4.946   6.394   8.675  2.7340  0.7846  0.2052
   72SLPC  H13Y 6360   5.031   6.541   8.617  1.5223 -0.6598 -2.4293
   72SLPC  C314 6361   4.918   6.425   8.465 -0.1875  0.4385 -0.5627
   72SLPC  H14X 6362   5.006   6.370   8.426  0.1704  1.2965 -0.9746
   72SLPC  H14Y 6363   4.897   6.510   8.397 -0.9204  0.9277  0.2523
   72SLPC  C315 6364   4.798   6.332   8.452 -0.2303  0.1953 -0.5466
   72SLPC  H15X 6365   4.706   6.394   8.457 -0.8113 -0.6348 -1.0345
   72SLPC  H15Y 6366   4.787   6.276   8.547 -0.8323  1.9166  0.4235
   72SLPC  C316 6367   4.804   6.246   8.322 -0.8489  0.6163  0.6922
   72SLPC  H16X 6368   4.719   6.177   8.340 -0.6238  0.0600 -0.3405
   72SLPC  H16Y 6369   4.899   6.190   8.318 -0.5049  1.2222  0.3109
   72SLPC  C317 6370   4.776   6.310   8.187  0.2674  0.0521 -0.2370
   72SLPC  H17X 6371   4.863   6.372   8.158 -0.2468  0.3149 -1.2334
   72SLPC  H17Y 6372   4.692   6.383   8.200  0.4710  0.1764  0.4434
   72SLPC  C318 6373   4.749   6.213   8.072  0.3126 -0.0707 -0.1405
   72SLPC  H18X 6374   4.639   6.203   8.062  0.1767  0.0612  1.1299
   72SLPC  H18Y 6375   4.808   6.120   8.084 -2.7497 -2.3333 -2.0124
   72SLPC  H18Z 6376   4.785   6.261   7.978 -1.4488 -2.0564 -1.8891
   73SLPC     N 6377   4.594   4.960  11.102  0.0287 -0.2639 -0.0978
   73SLPC   C13 6378   4.526   4.854  11.192 -0.2809  0.0882  0.2501
   73SLPC  H13A 6379   4.508   4.763  11.137  1.1766  0.3666 -0.7157
   73SLPC  H13B 6380   4.581   4.840  11.284  1.1089 -0.4065 -0.6323
   73SLPC  H13C 6381   4.426   4.886  11.215  0.1463  0.3224  1.8104
   73SLPC   C14 6382   4.529   4.950  10.968  0.6295  0.1480 -0.2435
   73SLPC  H14A 6383   4.531   4.850  10.929  1.9638  0.4989 -1.1339
   73SLPC  H14B 6384   4.426   4.978  10.979  0.1458 -1.3613 -0.8199
   73SLPC  H14C 6385   4.581   5.015  10.899  0.7239 -0.1419 -0.4462
   73SLPC   C15 6386   4.736   4.921  11.086 -0.3151 -0.2115 -0.2743
   73SLPC  H15A 6387   4.744   4.817  11.058  2.6138  0.3148 -1.5794
   73SLPC  H15B 6388   4.775   4.980  11.004  1.5305 -0.1614  0.6078
   73SLPC  H15C 6389   4.806   4.932  11.168 -0.6535  2.1339 -0.2771
   73SLPC   C12 6390   4.583   5.102  11.154  0.1904  0.1242 -0.1207
   73SLPC  H12A 6391   4.625   5.108  11.254  0.6655 -1.2356 -0.2321
   73SLPC  H12B 6392   4.479   5.122  11.175  0.1190  0.4306 -0.7525
   73SLPC   C11 6393   4.650   5.218  11.077 -0.1996  0.9338  0.0281
   73SLPC  H11A 6394   4.760   5.206  11.076 -0.1389  1.2247  1.4942
   73SLPC  H11B 6395   4.634   5.306  11.143 -0.8840  1.0002 -0.2245
   73SLPC     P 6396   4.466   5.349  10.940  0.4568  0.0436 -0.2177
   73SLPC   O13 6397   4.349   5.272  10.990  0.5597  0.2949 -0.0387
   73SLPC   O14 6398   4.494   5.480  11.008  0.1421  0.8852 -0.5628
   73SLPC   O12 6399   4.594   5.248  10.952 -0.0425  0.1586  0.2269
   73SLPC   O11 6400   4.460   5.371  10.785  0.1066 -0.9057 -0.0794
   73SLPC    C1 6401   4.397   5.281  10.694 -0.3664 -0.0098  0.5020
   73SLPC    HA 6402   4.385   5.182  10.742  0.1718  0.7591  2.2681
   73SLPC    HB 6403   4.291   5.309  10.673 -0.6014  0.6341  2.3927
   73SLPC    C2 6404   4.484   5.260  10.575 -0.1989 -0.1202 -0.8735
   73SLPC    HS 6405   4.575   5.212  10.617 -1.1349 -1.4308 -0.3080
   73SLPC   O21 6406   4.513   5.385  10.504  0.2647  0.1853  0.0290
   73SLPC   C21 6407   4.633   5.411  10.472 -0.1336 -0.0492  0.5601
   73SLPC   O22 6408   4.736   5.346  10.501  0.3850 -0.2388  0.4273
   73SLPC   C22 6409   4.631   5.539  10.387 -0.1482  0.6102 -0.3340
   73SLPC   H2R 6410   4.522   5.558  10.375 -0.1414  1.0267  0.2672
   73SLPC   H2S 6411   4.667   5.622  10.451  0.4105 -1.2926  1.8694
   73SLPC    C3 6412   4.426   5.160  10.469  0.3133  0.0888  0.0123
   73SLPC    HX 6413   4.342   5.207  10.413  1.4513  0.9857 -0.9825
   73SLPC    HY 6414   4.379   5.068  10.511  0.0349 -0.1840 -0.8802
   73SLPC   O31 6415   4.516   5.122  10.366 -0.4963  0.0430  0.9486
   73SLPC   C31 6416   4.595   5.014  10.379  0.3492 -0.5467 -0.1070
   73SLPC   O32 6417   4.585   4.944  10.476  0.1728 -0.1758  0.1884
   73SLPC   C32 6418   4.682   5.003  10.253 -0.2385  0.0568  0.7173
   73SLPC   H2X 6419   4.625   5.046  10.168 -2.9300 -2.3450  1.2397
   73SLPC   H2Y 6420   4.697   4.894  10.239  3.8613  0.3837  1.8963
   73SLPC   C23 6421   4.698   5.533  10.250 -0.8061 -0.4743  0.5588
   73SLPC   H3R 6422   4.795   5.480  10.252 -0.0488  0.8764  0.0838
   73SLPC   H3S 6423   4.731   5.629  10.206 -0.2108 -1.9867 -2.3821
   73SLPC   C24 6424   4.603   5.456  10.148  0.3977  0.5040 -0.1237
   73SLPC   H4R 6425   4.494   5.478  10.159  0.6309  1.3194  0.6171
   73SLPC   H4S 6426   4.618   5.347  10.160 -0.1489  0.7433  3.1635
   73SLPC   C25 6427   4.636   5.482  10.002  0.4639 -0.0014  0.0455
   73SLPC   H5R 6428   4.739   5.446   9.981  0.3826 -0.6988  0.8402
   73SLPC   H5S 6429   4.634   5.586   9.963 -1.7087  0.4064  1.1331
   73SLPC   C26 6430   4.536   5.417   9.898 -0.0860 -0.6118  0.0674
   73SLPC   H6R 6431   4.437   5.441   9.944  0.2094  0.0428  0.3630
   73SLPC   H6S 6432   4.545   5.307   9.888 -0.9151 -0.6990  0.2075
   73SLPC   C27 6433   4.544   5.489   9.765  0.2168 -0.5425  0.2534
   73SLPC   H7R 6434   4.648   5.477   9.728  1.4679  1.5554  2.9183
   73SLPC   H7S 6435   4.517   5.597   9.763  1.2745 -0.1741  3.4941
   73SLPC   C28 6436   4.455   5.419   9.661 -0.2653 -0.2152 -0.2131
   73SLPC   H8R 6437   4.432   5.503   9.593 -0.1981  0.6335  0.8013
   73SLPC   H8S 6438   4.360   5.397   9.714 -0.6350 -2.3178 -1.6697
   73SLPC   C29 6439   4.517   5.297   9.591 -0.0247 -0.3492  0.5712
   73SLPC   H9R 6440   4.512   5.199   9.641  0.4561 -0.3025  0.7087
   73SLPC  C210 6441   4.557   5.299   9.466 -0.2098 -0.0797 -0.8847
   73SLPC  H10R 6442   4.614   5.213   9.429 -0.4441 -1.6016  2.1746
   73SLPC  C211 6443   4.565   5.419   9.378 -1.0517 -0.9194 -0.2529
   73SLPC  H11R 6444   4.657   5.481   9.389 -0.9443 -0.9642 -0.8604
   73SLPC  H11S 6445   4.482   5.488   9.403 -0.6660  0.4220 -2.4901
   73SLPC  C212 6446   4.544   5.398   9.227  0.4881  0.2493  0.7822
   73SLPC  H12R 6447   4.636   5.380   9.169 -0.3575  2.3617 -1.2827
   73SLPC  C213 6448   4.423   5.379   9.163 -1.0409  0.3942 -0.5937
   73SLPC  H13R 6449   4.415   5.370   9.054  1.7356 -0.7696 -0.7181
   73SLPC  C214 6450   4.290   5.391   9.243  0.4923 -0.0267 -0.9519
   73SLPC  H14R 6451   4.239   5.478   9.196 -0.5785  0.6286  1.3786
   73SLPC  H14S 6452   4.308   5.425   9.347 -0.1867 -2.1337 -0.1195
   73SLPC  C215 6453   4.183   5.281   9.239  0.8262  0.2448  0.4413
   73SLPC  H15R 6454   4.173   5.251   9.132 -1.4700  1.1005  0.4043
   73SLPC  H15S 6455   4.088   5.319   9.281 -0.0255 -1.6262  0.2637
   73SLPC  C216 6456   4.229   5.148   9.303  0.7390 -1.0590  0.0433
   73SLPC  H16R 6457   4.254   5.172   9.408  0.3432  0.4144 -0.1855
   73SLPC  H16S 6458   4.321   5.126   9.245  0.7140  1.9566 -1.2328
   73SLPC  C217 6459   4.131   5.029   9.285  0.1379  0.6376  0.7214
   73SLPC  H17R 6460   4.133   4.988   9.182 -2.8719 -0.6948  1.1361
   73SLPC  H17S 6461   4.030   5.068   9.310 -0.0014 -0.1569  1.4187
   73SLPC  C218 6462   4.173   4.920   9.381  0.2021  0.0968 -0.3434
   73SLPC  H18R 6463   4.121   4.824   9.361 -0.4754  0.0303  1.5940
   73SLPC  H18S 6464   4.156   4.973   9.477  1.2554 -0.2929  0.0659
   73SLPC  H18T 6465   4.282   4.904   9.367  0.3192 -1.0353  1.5547
   73SLPC   C33 6466   4.818   5.070  10.270 -0.3913  0.0395 -0.3747
   73SLPC   H3X 6467   4.856   5.024  10.364 -0.2434 -0.1983 -0.5497
   73SLPC   H3Y 6468   4.800   5.180  10.269  1.1537  0.3097  0.0015
   73SLPC   C34 6469   4.928   5.016  10.172  0.0243  0.4592  0.6998
   73SLPC   H4X 6470   4.957   4.909  10.183  3.8224  1.1881 -1.2684
   73SLPC   H4Y 6471   5.018   5.079  10.185  1.3025 -1.3735  0.9593
   73SLPC   C35 6472   4.873   5.025  10.030  0.5355  0.2681  0.4245
   73SLPC   H5X 6473   4.817   5.119  10.010  1.0727  0.5757  0.3228
   73SLPC   H5Y 6474   4.827   4.930   9.997  1.3646  0.4380 -1.2504
   73SLPC   C36 6475   4.984   5.014   9.929 -0.0360 -0.0644  0.7889
   73SLPC   H6X 6476   5.060   4.946   9.973  1.6829  1.3615  0.0661
   73SLPC   H6Y 6477   5.034   5.113   9.924  3.2480 -1.4978  3.3200
   73SLPC   C37 6478   4.944   4.959   9.793  1.1432  1.3650  0.1934
   73SLPC   H7X 6479   4.866   5.015   9.738  0.4748 -1.7437 -2.1786
   73SLPC   H7Y 6480   4.887   4.865   9.807  2.5027  0.6965  1.3992
   73SLPC   C38 6481   5.064   4.918   9.711 -0.9945 -0.5190 -0.1984
   73SLPC   H8X 6482   5.125   4.835   9.753  0.2323  0.6852  0.4540
   73SLPC   H8Y 6483   5.133   5.005   9.710 -1.9240  0.3290  3.0818
   73SLPC   C39 6484   5.024   4.883   9.562  0.8129  0.4017 -0.0125
   73SLPC   H9X 6485   4.957   4.965   9.530  1.4043  0.2581 -1.6219
   73SLPC   H9Y 6486   4.974   4.784   9.558 -0.8479  1.2287 -0.1753
   73SLPC  C310 6487   5.141   4.876   9.460 -0.4292 -0.5197  0.4381
   73SLPC  H10X 6488   5.202   4.783   9.458  1.0338  0.4585 -2.4924
   73SLPC  H10Y 6489   5.208   4.961   9.483 -2.1828  0.5121  1.8521
   73SLPC  C311 6490   5.089   4.881   9.314 -0.0642 -0.0746 -0.4323
   73SLPC  H11X 6491   5.183   4.888   9.255 -1.7837 -0.0065 -3.2050
   73SLPC  H11Y 6492   5.038   4.978   9.295  2.2726  1.2019 -0.4408
   73SLPC  C312 6493   4.993   4.773   9.280 -0.5559  1.1190 -0.1270
   73SLPC  H12X 6494   4.895   4.770   9.332 -0.0079  0.7306  0.9010
   73SLPC  H12Y 6495   5.033   4.669   9.282  0.2137  1.3809 -1.0645
   73SLPC  C313 6496   4.949   4.785   9.131 -0.3532 -0.0140 -0.2629
   73SLPC  H13X 6497   5.035   4.799   9.062 -0.8156 -0.9378 -1.0306
   73SLPC  H13Y 6498   4.882   4.871   9.112 -1.2261 -0.3846  1.0375
   73SLPC  C314 6499   4.869   4.665   9.084 -0.6664 -0.4277 -0.0438
   73SLPC  H14X 6500   4.772   4.666   9.137 -0.5066  0.5532  0.2513
   73SLPC  H14Y 6501   4.929   4.575   9.106  1.8013  1.0941 -0.3443
   73SLPC  C315 6502   4.836   4.676   8.940 -0.4992 -0.6199 -0.1616
   73SLPC  H15X 6503   4.783   4.773   8.927  2.5102  1.0542 -0.2032
   73SLPC  H15Y 6504   4.756   4.600   8.925 -0.3300 -0.4405 -2.2099
   73SLPC  C316 6505   4.948   4.663   8.847 -0.3895 -0.6868  0.3008
   73SLPC  H16X 6506   4.981   4.557   8.843  1.6775 -0.1636  1.9842
   73SLPC  H16Y 6507   5.045   4.709   8.878 -0.1852 -0.3662 -0.7971
   73SLPC  C317 6508   4.924   4.719   8.706 -0.2116 -0.2286 -0.1884
   73SLPC  H17X 6509   4.905   4.828   8.718 -2.6627 -0.4508 -1.5128
   73SLPC  H17Y 6510   4.830   4.676   8.666 -0.4625  0.7778 -0.7157
   73SLPC  C318 6511   5.046   4.694   8.608 -0.0398 -0.8217 -0.7184
   73SLPC  H18X 6512   5.056   4.779   8.538  0.6277  1.3670  1.9581
   73SLPC  H18Y 6513   5.045   4.597   8.553  1.4852 -1.8548  1.0293
   73SLPC  H18Z 6514   5.135   4.675   8.671 -0.7155  1.7012  1.0649
   74SLPC     N 6515   6.679   0.291  10.966  0.2521  0.2475 -0.3962
   74SLPC   C13 6516   6.758   0.371  11.060 -0.2584  0.5896 -0.0058
   74SLPC  H13A 6517   6.774   0.472  11.028 -0.2392  0.3678 -0.7000
   74SLPC  H13B 6518   6.713   0.376  11.158  0.2945 -2.0907  0.4284
   74SLPC  H13C 6519   6.853   0.320  11.070 -0.8858  0.1274  4.9214
   74SLPC   C14 6520   6.535   0.347  10.983  0.1861 -0.1515  0.6928
   74SLPC  H14A 6521   6.529   0.451  10.951  1.3243  0.1337  1.3953
   74SLPC  H14B 6522   6.455   0.295  10.931  0.7465 -0.6255  0.3085
   74SLPC  H14C 6523   6.515   0.357  11.088  0.2638 -1.0055  0.7944
   74SLPC   C15 6524   6.674   0.146  11.010  0.2323 -0.4853 -0.8536
   74SLPC  H15A 6525   6.732   0.073  10.954  0.5147 -0.2981 -0.8058
   74SLPC  H15B 6526   6.702   0.131  11.113 -0.4565  0.7461 -0.4734
   74SLPC  H15C 6527   6.572   0.112  11.006  0.2170 -0.8950  1.8184
   74SLPC   C12 6528   6.742   0.305  10.824  1.0690 -0.3155  0.3448
   74SLPC  H12A 6529   6.818   0.230  10.810 -0.3464 -1.5209 -1.0459
   74SLPC  H12B 6530   6.776   0.407  10.815  1.9690 -0.6669 -0.3118
   74SLPC   C11 6531   6.657   0.290  10.696 -0.5033  0.0274  0.1720
   74SLPC  H11A 6532   6.712   0.312  10.602 -3.6598  0.0513 -1.7386
   74SLPC  H11B 6533   6.572   0.362  10.700 -0.6620 -0.0239 -1.9571
   74SLPC     P 6534   6.668   0.031  10.656 -0.0017 -0.2660  0.6012
   74SLPC   O13 6535   6.794   0.027  10.734  0.3176  0.0735  0.2765
   74SLPC   O14 6536   6.584  -0.084  10.675  0.3567  0.3122 -0.1347
   74SLPC   O12 6537   6.589   0.166  10.693 -0.0633  0.1872 -0.5661
   74SLPC   O11 6538   6.702   0.035  10.501 -0.1357  0.3343 -0.7764
   74SLPC    C1 6539   6.587   0.053  10.409  0.0670 -0.2290 -0.6672
   74SLPC    HA 6540   6.490   0.042  10.462 -0.2911 -0.4650 -1.3552
   74SLPC    HB 6541   6.595   0.159  10.377 -0.0356  0.3181  1.0670
   74SLPC    C2 6542   6.581  -0.044  10.287 -0.6745  0.5702  0.0793
   74SLPC    HS 6543   6.603  -0.148  10.319 -2.4183  0.1572 -0.0247
   74SLPC   O21 6544   6.678   0.005  10.193 -0.0821  0.6349 -0.0401
   74SLPC   C21 6545   6.721  -0.084  10.111 -0.2390  0.1612  1.2690
   74SLPC   O22 6546   6.688  -0.198  10.100 -0.0430  0.7712 -0.0428
   74SLPC   C22 6547   6.832  -0.019  10.035  0.5075  0.2153 -0.2055
   74SLPC   H2R 6548   6.799   0.087  10.030 -2.1281 -0.4822  1.3935
   74SLPC   H2S 6549   6.928  -0.043  10.086  0.3187 -0.1030 -0.0019
   74SLPC    C3 6550   6.442  -0.023  10.221  0.3085 -0.3990 -0.0064
   74SLPC    HX 6551   6.419   0.085  10.231  0.5137 -0.4279  0.8167
   74SLPC    HY 6552   6.377  -0.075  10.294 -0.0744 -2.1867 -1.5857
   74SLPC   O31 6553   6.437  -0.054  10.083 -0.0792  0.1136 -0.2527
   74SLPC   C31 6554   6.378  -0.172  10.057  0.4491  0.0429  0.8136
   74SLPC   O32 6555   6.338  -0.256  10.139 -0.2932 -0.7497 -0.2521
   74SLPC   C32 6556   6.370  -0.179   9.904 -0.2601  1.3068  0.0028
   74SLPC   H2X 6557   6.469  -0.142   9.868  0.4933  0.5876  1.2857
   74SLPC   H2Y 6558   6.301  -0.100   9.870  0.6947  1.7573 -0.9235
   74SLPC   C23 6559   6.868  -0.066   9.882  0.4858 -0.2851 -0.2329
   74SLPC   H3R 6560   6.892  -0.175   9.880  1.0748 -0.1539 -0.3552
   74SLPC   H3S 6561   6.964  -0.021   9.850  0.8523 -1.5056 -0.8951
   74SLPC   C24 6562   6.757  -0.045   9.784  0.8269 -0.2314 -0.2490
   74SLPC   H4R 6563   6.791   0.038   9.718 -3.4250  2.8893  1.2346
   74SLPC   H4S 6564   6.659  -0.026   9.833  0.3295 -1.4241 -0.7484
   74SLPC   C25 6565   6.727  -0.165   9.698 -0.7163  0.6232  0.1862
   74SLPC   H5R 6566   6.619  -0.165   9.673 -0.6801  1.1812  0.0181
   74SLPC   H5S 6567   6.743  -0.265   9.744  1.2703  0.2908 -1.1643
   74SLPC   C26 6568   6.812  -0.158   9.571  0.3740  0.2212  0.4253
   74SLPC   H6R 6569   6.916  -0.168   9.610 -1.0215  0.6702  4.5077
   74SLPC   H6S 6570   6.798  -0.062   9.517  0.0828 -0.0129  0.0837
   74SLPC   C27 6571   6.796  -0.263   9.461  0.2125  0.1189 -0.4367
   74SLPC   H7R 6572   6.698  -0.238   9.414 -0.4475  0.5392  1.1285
   74SLPC   H7S 6573   6.785  -0.361   9.513  0.1749 -0.0089 -0.6833
   74SLPC   C28 6574   6.909  -0.254   9.360  0.3172  0.2151  1.1564
   74SLPC   H8R 6575   6.994  -0.285   9.425  0.6468 -0.1850  0.5383
   74SLPC   H8S 6576   6.933  -0.155   9.317 -0.4622 -1.1435 -2.5844
   74SLPC   C29 6577   6.867  -0.347   9.242  0.5409  0.3857 -0.1181
   74SLPC   H9R 6578   6.812  -0.440   9.264  0.3416  0.1610 -1.4721
   74SLPC  C210 6579   6.910  -0.332   9.117  0.2117 -0.4816  0.6094
   74SLPC  H10R 6580   6.856  -0.391   9.042 -1.0510  0.9964  0.3243
   74SLPC  C211 6581   6.997  -0.226   9.052 -0.3389 -0.0515 -0.3968
   74SLPC  H11R 6582   7.106  -0.244   9.069  0.0713  2.6602  0.1603
   74SLPC  H11S 6583   6.983  -0.132   9.110  0.7268  0.2159 -0.5589
   74SLPC  C212 6584   6.969  -0.203   8.906  0.2432  0.4101 -0.5466
   74SLPC  H12R 6585   7.057  -0.215   8.841 -0.5868 -2.5038 -1.1760
   74SLPC  C213 6586   6.857  -0.149   8.859  0.4601  0.4471 -0.1245
   74SLPC  H13R 6587   6.848  -0.144   8.749  1.4042  2.0145 -0.1434
   74SLPC  C214 6588   6.743  -0.091   8.939  0.7710  0.3425 -0.8129
   74SLPC  H14R 6589   6.762  -0.094   9.048 -1.5064 -0.9144 -0.4231
   74SLPC  H14S 6590   6.652  -0.153   8.927  1.8458 -1.9860  2.3825
   74SLPC  C215 6591   6.707   0.052   8.890  0.4073 -0.6780 -0.2881
   74SLPC  H15R 6592   6.617   0.046   8.824  0.3719 -0.8517 -0.2207
   74SLPC  H15S 6593   6.793   0.098   8.836 -1.2304  2.2289 -0.5412
   74SLPC  C216 6594   6.679   0.138   9.014 -0.3621  0.6056 -0.6015
   74SLPC  H16R 6595   6.771   0.149   9.076  0.1330 -1.2298 -0.9633
   74SLPC  H16S 6596   6.610   0.082   9.080  0.9059 -0.5004 -0.1880
   74SLPC  C217 6597   6.636   0.274   8.988  0.0895  0.0314 -0.1798
   74SLPC  H17R 6598   6.721   0.322   8.935  0.4286  0.5503  0.8014
   74SLPC  H17S 6599   6.624   0.331   9.083 -0.3408 -0.2450 -0.0673
   74SLPC  C218 6600   6.506   0.279   8.905  0.0709  0.3093  0.5743
   74SLPC  H18R 6601   6.426   0.218   8.951  1.1043 -0.9324  0.7620
   74SLPC  H18S 6602   6.519   0.250   8.798 -1.6745 -0.9243  0.6806
   74SLPC  H18T 6603   6.468   0.384   8.906  0.7727  0.5948 -1.1259
   74SLPC   C33 6604   6.346  -0.317   9.855  0.3392  0.5475  0.3903
   74SLPC   H3X 6605   6.251  -0.344   9.904 -0.1739  0.9600 -0.3544
   74SLPC   H3Y 6606   6.433  -0.376   9.891 -2.1146 -1.4994  3.0983
   74SLPC   C34 6607   6.310  -0.316   9.703  0.3418  0.4715  0.0315
   74SLPC   H4X 6608   6.294  -0.210   9.672 -0.5560  0.7278  1.3680
   74SLPC   H4Y 6609   6.210  -0.362   9.693  1.0759 -0.9736 -0.9376
   74SLPC   C35 6610   6.416  -0.374   9.610  0.3693  0.0249 -0.3922
   74SLPC   H5X 6611   6.466  -0.453   9.670  1.3422 -2.6348 -4.4547
   74SLPC   H5Y 6612   6.490  -0.295   9.585  1.2377 -0.2413  1.2707
   74SLPC   C36 6613   6.353  -0.417   9.482  0.7198  0.1815  0.4586
   74SLPC   H6X 6614   6.287  -0.346   9.427  0.3469  0.4969  1.3017
   74SLPC   H6Y 6615   6.283  -0.498   9.512  1.1466 -1.0319 -1.7002
   74SLPC   C37 6616   6.458  -0.506   9.407  0.2962 -0.2867 -0.4691
   74SLPC   H7X 6617   6.528  -0.553   9.479  0.8806 -1.7640 -1.9738
   74SLPC   H7Y 6618   6.519  -0.440   9.341  0.3362 -0.8109 -0.9599
   74SLPC   C38 6619   6.380  -0.598   9.311 -0.7577  0.5814  0.5529
   74SLPC   H8X 6620   6.313  -0.666   9.366  0.5165 -1.3142 -0.1921
   74SLPC   H8Y 6621   6.449  -0.677   9.274  0.0560  0.6536  1.8592
   74SLPC   C39 6622   6.312  -0.525   9.196  0.0787  0.6717 -0.2523
   74SLPC   H9X 6623   6.385  -0.484   9.122  5.2956 -1.7948  3.1965
   74SLPC   H9Y 6624   6.251  -0.438   9.230  0.3543  0.6661  0.2627
   74SLPC  C310 6625   6.220  -0.621   9.112  0.4519  0.4290 -0.7340
   74SLPC  H10X 6626   6.197  -0.561   9.021  2.8049  3.4176  0.5528
   74SLPC  H10Y 6627   6.121  -0.618   9.163  0.9368  0.4863  0.2117
   74SLPC  C311 6628   6.266  -0.754   9.101  0.2657  0.7609  0.3166
   74SLPC  H11X 6629   6.260  -0.807   9.198  2.0991  0.7937  0.4743
   74SLPC  H11Y 6630   6.373  -0.760   9.073  0.3437  0.8578  0.5908
   74SLPC  C312 6631   6.186  -0.832   8.991  0.1045  0.3773  0.1722
   74SLPC  H12X 6632   6.185  -0.773   8.897  1.4473 -0.7024 -0.5420
   74SLPC  H12Y 6633   6.080  -0.822   9.024 -1.0810 -2.9723 -2.3726
   74SLPC  C313 6634   6.220  -0.979   8.972 -0.2412  0.1291 -0.2535
   74SLPC  H13X 6635   6.197  -1.034   9.066 -3.8002 -0.0301 -1.1394
   74SLPC  H13Y 6636   6.330  -0.986   8.956 -0.0355  0.2980  1.0138
   74SLPC  C314 6637   6.146  -1.045   8.860  0.1538 -0.2449 -0.2492
   74SLPC  H14X 6638   6.202  -1.139   8.839  3.5700  2.4377 -3.7451
   74SLPC  H14Y 6639   6.153  -0.980   8.770 -0.6969  1.1198  0.6606
   74SLPC  C315 6640   5.997  -1.071   8.890 -0.6016 -0.6597 -0.2635
   74SLPC  H15X 6641   5.953  -0.993   8.955 -0.2911 -0.5705 -0.1663
   74SLPC  H15Y 6642   5.977  -1.166   8.945 -0.5398 -0.4815  0.0609
   74SLPC  C316 6643   5.911  -1.090   8.763  0.2051 -0.3053 -0.7164
   74SLPC  H16X 6644   5.898  -0.986   8.726 -3.4247  0.6251  2.8042
   74SLPC  H16Y 6645   5.809  -1.118   8.798 -0.4204  1.2434 -1.2532
   74SLPC  C317 6646   5.953  -1.209   8.671  0.1246 -0.1361  0.9880
   74SLPC  H17X 6647   5.969  -1.299   8.734  2.6426 -0.6324 -0.2866
   74SLPC  H17Y 6648   6.050  -1.178   8.625 -0.5891 -2.4199 -2.1848
   74SLPC  C318 6649   5.856  -1.221   8.549 -0.6173 -0.5122  0.6234
   74SLPC  H18X 6650   5.826  -1.120   8.514  1.2906 -0.4483 -0.8413
   74SLPC  H18Y 6651   5.762  -1.272   8.582 -0.6456 -0.7866  0.1172
   74SLPC  H18Z 6652   5.903  -1.275   8.464 -0.0749 -1.2999  1.4113
   75SLPC     N 6653   3.711   3.034   6.403  0.1564  0.6444 -0.0594
   75SLPC   C13 6654   3.641   3.151   6.339  0.3034  0.3632  0.7494
   75SLPC  H13A 6655   3.535   3.163   6.357 -0.2756 -2.2052 -0.7434
   75SLPC  H13B 6656   3.684   3.236   6.391 -0.4313  0.4399  1.2344
   75SLPC  H13C 6657   3.668   3.158   6.235 -1.5218  0.6835  0.2891
   75SLPC   C14 6658   3.668   2.900   6.343 -0.3927 -0.2162 -0.4858
   75SLPC  H14A 6659   3.732   2.824   6.385 -1.1653 -0.3132  0.5289
   75SLPC  H14B 6660   3.566   2.875   6.366 -0.5556  0.9081  0.0192
   75SLPC  H14C 6661   3.683   2.902   6.236  2.9714 -1.9769 -0.1110
   75SLPC   C15 6662   3.661   3.027   6.546  0.0306 -0.0683 -0.1992
   75SLPC  H15A 6663   3.553   3.029   6.543 -0.0078  1.6481  1.5212
   75SLPC  H15B 6664   3.697   2.942   6.601 -0.6600  0.3208  0.8776
   75SLPC  H15C 6665   3.682   3.113   6.608  1.5081 -1.6603  1.5635
   75SLPC   C12 6666   3.864   3.047   6.399  0.2547 -0.6005 -0.2973
   75SLPC  H12A 6667   3.890   3.144   6.437 -1.6568  0.2889 -1.1574
   75SLPC  H12B 6668   3.902   3.026   6.300 -1.6623  2.1800 -1.6849
   75SLPC   C11 6669   3.954   2.939   6.473  0.2085 -0.3292 -0.2505
   75SLPC  H11A 6670   3.914   2.931   6.577  0.6737  2.1601  0.1340
   75SLPC  H11B 6671   4.059   2.974   6.476  0.7984 -1.8237 -2.4018
   75SLPC     P 6672   4.019   2.697   6.444 -0.5557 -0.2825 -0.1462
   75SLPC   O13 6673   3.966   2.577   6.378  0.2927  0.4110  0.1794
   75SLPC   O14 6674   4.162   2.732   6.421  0.0056  0.7472 -0.2998
   75SLPC   O12 6675   3.940   2.820   6.390  0.1746  0.0839 -0.1971
   75SLPC   O11 6676   3.978   2.690   6.600 -0.2147 -0.3616 -0.2188
   75SLPC    C1 6677   3.843   2.691   6.637 -0.7394 -0.2979  0.1192
   75SLPC    HA 6678   3.826   2.782   6.698  1.1702 -1.7925  3.0017
   75SLPC    HB 6679   3.772   2.686   6.552 -2.9236 -1.6383  1.9685
   75SLPC    C2 6680   3.792   2.572   6.722 -0.1732 -0.0186  0.1092
   75SLPC    HS 6681   3.685   2.591   6.745 -0.3732  0.5036 -1.1683
   75SLPC   O21 6682   3.867   2.560   6.845 -0.3727  0.7027  0.0399
   75SLPC   C21 6683   3.809   2.607   6.949 -0.5605 -0.0473 -0.1800
   75SLPC   O22 6684   3.709   2.679   6.951 -0.7987 -0.0421  1.3346
   75SLPC   C22 6685   3.882   2.574   7.083 -0.2120 -0.4642  0.5702
   75SLPC   H2R 6686   3.894   2.464   7.086 -0.2601 -0.5179 -0.8795
   75SLPC   H2S 6687   3.988   2.609   7.076  0.6101 -2.8778  0.5086
   75SLPC    C3 6688   3.811   2.441   6.651  0.4262 -0.0307  0.5437
   75SLPC    HX 6689   3.921   2.429   6.636  0.1953 -1.0136 -0.5121
   75SLPC    HY 6690   3.764   2.443   6.550  1.5467 -1.5397 -0.0262
   75SLPC   O31 6691   3.745   2.334   6.730  0.4136  0.5689  0.0106
   75SLPC   C31 6692   3.771   2.213   6.688  0.3350 -0.5183 -1.0191
   75SLPC   O32 6693   3.845   2.176   6.597  0.1359 -0.4645 -0.7281
   75SLPC   C32 6694   3.688   2.110   6.780 -0.3766  0.1804  0.1195
   75SLPC   H2X 6695   3.622   2.047   6.716  0.0786 -0.3932  0.2079
   75SLPC   H2Y 6696   3.647   2.174   6.861 -0.3997 -0.4469  0.6063
   75SLPC   C23 6697   3.808   2.645   7.200 -0.4378  0.2318  0.1798
   75SLPC   H3R 6698   3.713   2.588   7.203 -0.1243 -0.3140 -0.0933
   75SLPC   H3S 6699   3.776   2.750   7.186  2.4764  0.7273 -3.7401
   75SLPC   C24 6700   3.872   2.627   7.338  0.1724 -0.5944  0.5265
   75SLPC   H4R 6701   3.977   2.661   7.338 -0.5141  1.6157  0.1641
   75SLPC   H4S 6702   3.867   2.519   7.363  0.2414 -0.5260  0.8448
   75SLPC   C25 6703   3.794   2.715   7.435 -0.0963 -0.2636 -0.4614
   75SLPC   H5R 6704   3.687   2.691   7.415 -0.6303 -0.4011  2.3129
   75SLPC   H5S 6705   3.807   2.824   7.415 -2.1006  0.2232  0.6842
   75SLPC   C26 6706   3.843   2.697   7.582  0.4923  0.0561  0.2444
   75SLPC   H6R 6707   3.952   2.718   7.583  0.3111  1.0321  0.9347
   75SLPC   H6S 6708   3.837   2.590   7.613 -0.7947  0.7871  2.6931
   75SLPC   C27 6709   3.757   2.781   7.683  1.0005  0.0307  0.6400
   75SLPC   H7R 6710   3.648   2.765   7.673  0.8231  0.5703  1.6410
   75SLPC   H7S 6711   3.785   2.887   7.666 -1.0147  0.3091 -1.0160
   75SLPC   C28 6712   3.810   2.762   7.825 -0.2786 -0.2182  0.5028
   75SLPC   H8R 6713   3.915   2.798   7.830 -0.4518 -0.0444  3.6476
   75SLPC   H8S 6714   3.797   2.656   7.853  4.1029 -0.7844  0.6997
   75SLPC   C29 6715   3.727   2.847   7.923  0.4782  0.5392  0.0195
   75SLPC   H9R 6716   3.625   2.814   7.944  0.9835 -0.5142  0.8766
   75SLPC  C210 6717   3.770   2.949   7.996  0.5683  0.0453  0.1500
   75SLPC  H10R 6718   3.697   3.000   8.060  2.7312  2.6742  0.6268
   75SLPC  C211 6719   3.910   3.013   8.000 -0.5400 -0.0049 -0.1234
   75SLPC  H11R 6720   3.973   2.975   7.917  0.6856  2.0619 -0.1836
   75SLPC  H11S 6721   3.956   2.967   8.090  0.9963  1.7792  0.0398
   75SLPC  C212 6722   3.900   3.158   8.017 -0.7077  0.2905  0.5331
   75SLPC  H12R 6723   3.822   3.209   7.958 -1.2473  0.3839  1.3251
   75SLPC  C213 6724   3.987   3.233   8.091 -0.6233  0.4354  0.1624
   75SLPC  H13R 6725   3.956   3.335   8.117 -1.0768  0.7434 -1.5085
   75SLPC  C214 6726   4.101   3.189   8.170 -0.2977 -0.2899 -0.3622
   75SLPC  H14R 6727   4.196   3.237   8.136  1.6534 -3.0903  0.8859
   75SLPC  H14S 6728   4.133   3.082   8.169  0.3141 -0.1804  2.9800
   75SLPC  C215 6729   4.071   3.197   8.323  0.0440 -0.2141 -0.0244
   75SLPC  H15R 6730   4.009   3.110   8.353 -0.2020 -0.7379 -1.9800
   75SLPC  H15S 6731   4.017   3.293   8.340 -1.3298 -1.4732  2.8945
   75SLPC  C216 6732   4.203   3.204   8.406 -0.5911  0.2271 -0.4810
   75SLPC  H16R 6733   4.270   3.286   8.372  2.1238 -1.4135  0.7506
   75SLPC  H16S 6734   4.261   3.112   8.386  0.4274  1.0096 -1.1767
   75SLPC  C217 6735   4.158   3.234   8.553 -0.0308  0.4572 -0.8070
   75SLPC  H17R 6736   4.087   3.157   8.592 -1.6062  2.8394  1.1509
   75SLPC  H17S 6737   4.094   3.325   8.556 -1.8092 -0.7917  0.4192
   75SLPC  C218 6738   4.281   3.248   8.641 -0.2819  0.4122 -0.5579
   75SLPC  H18R 6739   4.306   3.148   8.683 -0.3707  1.0963  1.1779
   75SLPC  H18S 6740   4.262   3.314   8.729  0.4569 -2.2942  1.7217
   75SLPC  H18T 6741   4.367   3.283   8.580  0.7395  1.7122  1.5609
   75SLPC   C33 6742   3.777   2.007   6.853  0.4867  1.1970 -0.5272
   75SLPC   H3X 6743   3.720   1.927   6.905  4.3559 -2.3765 -1.4590
   75SLPC   H3Y 6744   3.850   1.963   6.782  0.5562 -0.5869  0.5942
   75SLPC   C34 6745   3.867   2.062   6.966 -0.3592  0.0125  0.2111
   75SLPC   H4X 6746   3.942   2.132   6.922  0.1406 -0.5523  0.1601
   75SLPC   H4Y 6747   3.926   1.977   7.006 -0.1333 -1.5423 -3.2723
   75SLPC   C35 6748   3.795   2.135   7.076 -0.5680  0.0952  0.1362
   75SLPC   H5X 6749   3.729   2.064   7.131  0.5015 -0.9266  0.1293
   75SLPC   H5Y 6750   3.735   2.217   7.033 -0.9664 -0.4947 -0.4357
   75SLPC   C36 6751   3.892   2.190   7.189  0.5214  0.4585 -0.5376
   75SLPC   H6X 6752   3.832   2.268   7.241 -1.0356  1.4843 -3.7715
   75SLPC   H6Y 6753   3.986   2.236   7.151  1.5399 -0.0217  1.3071
   75SLPC   C37 6754   3.932   2.080   7.291  1.1428 -0.1199  0.3305
   75SLPC   H7X 6755   4.009   2.014   7.246  3.5414  2.0609  1.1409
   75SLPC   H7Y 6756   3.834   2.028   7.302  0.8224  0.2986 -0.4660
   75SLPC   C38 6757   3.981   2.121   7.435 -0.1077 -0.0469  0.2206
   75SLPC   H8X 6758   4.076   2.179   7.427  0.4620 -1.1330 -1.0482
   75SLPC   H8Y 6759   4.012   2.031   7.491  0.7086  0.5211  0.6914
   75SLPC   C39 6760   3.877   2.191   7.527  0.3672  0.2723 -0.9065
   75SLPC   H9X 6761   3.788   2.126   7.510 -0.1447  0.3471  1.3791
   75SLPC   H9Y 6762   3.855   2.293   7.490 -0.2363  0.2364 -0.6607
   75SLPC  C310 6763   3.921   2.186   7.676 -0.6836  0.0609  0.0319
   75SLPC  H10X 6764   3.975   2.090   7.691  1.1910  1.2937  1.3029
   75SLPC  H10Y 6765   3.839   2.189   7.750  0.0222 -2.6456  0.9863
   75SLPC  C311 6766   4.000   2.310   7.706 -0.2864 -0.2180  0.2591
   75SLPC  H11X 6767   3.980   2.385   7.626  1.2829  0.0409  0.0908
   75SLPC  H11Y 6768   4.109   2.291   7.712 -0.4602 -1.7736 -1.2524
   75SLPC  C312 6769   3.981   2.360   7.849  0.4935  0.9152 -0.9095
   75SLPC  H12X 6770   3.873   2.378   7.867  0.3069 -2.7169  2.1770
   75SLPC  H12Y 6771   4.029   2.458   7.874  1.6616  0.0935  0.1632
   75SLPC  C313 6772   4.047   2.273   7.961  0.0474 -0.4622  0.4415
   75SLPC  H13X 6773   4.155   2.290   7.939  0.6862 -0.8489  3.1556
   75SLPC  H13Y 6774   4.033   2.164   7.953 -0.7921 -0.4768  2.0100
   75SLPC  C314 6775   4.023   2.334   8.101 -0.4716  0.2099  0.2327
   75SLPC  H14X 6776   3.914   2.333   8.121 -0.6123  1.8237 -0.3138
   75SLPC  H14Y 6777   4.058   2.440   8.101  0.4242 -0.0780 -0.6410
   75SLPC  C315 6778   4.087   2.261   8.223 -0.2164  0.4947 -0.2772
   75SLPC  H15X 6779   4.185   2.229   8.181  0.1030  0.9906  0.0913
   75SLPC  H15Y 6780   4.027   2.168   8.227  0.7697 -0.2268 -1.6742
   75SLPC  C316 6781   4.111   2.327   8.360 -0.4059  0.0285  0.3909
   75SLPC  H16X 6782   4.141   2.255   8.439 -0.9931  2.2070  2.6557
   75SLPC  H16Y 6783   4.007   2.363   8.377  0.1979  0.7203  2.8176
   75SLPC  C317 6784   4.216   2.435   8.351 -0.3690 -0.4550  0.5926
   75SLPC  H17X 6785   4.177   2.499   8.269  0.5919  1.4254  1.5591
   75SLPC  H17Y 6786   4.317   2.396   8.325 -1.0552 -1.1670 -1.1176
   75SLPC  C318 6787   4.223   2.512   8.486 -0.1847  0.1890  0.1526
   75SLPC  H18X 6788   4.123   2.561   8.486 -0.1147  0.3643  1.5058
   75SLPC  H18Y 6789   4.303   2.589   8.480 -0.1361  0.1405  0.1826
   75SLPC  H18Z 6790   4.230   2.446   8.576 -0.5124  2.3810  1.8464
   76SLPC     N 6791   5.713   0.584   6.215 -0.2203  0.5219  0.0124
   76SLPC   C13 6792   5.652   0.706   6.273 -0.2027 -0.5719 -0.5712
   76SLPC  H13A 6793   5.701   0.709   6.368 -1.3487  1.3326 -0.0004
   76SLPC  H13B 6794   5.676   0.801   6.227  0.0927  1.0911  2.8896
   76SLPC  H13C 6795   5.544   0.697   6.281 -0.1609  0.1579  0.8389
   76SLPC   C14 6796   5.680   0.586   6.070 -0.0658  0.2018 -0.3443
   76SLPC  H14A 6797   5.733   0.672   6.031 -1.0444  0.0594 -2.0216
   76SLPC  H14B 6798   5.702   0.496   6.015 -0.6574  0.1475 -0.4924
   76SLPC  H14C 6799   5.577   0.613   6.053  0.2216  1.3584 -0.3233
   76SLPC   C15 6800   5.649   0.463   6.281  0.5868 -0.0588 -0.4816
   76SLPC  H15A 6801   5.688   0.368   6.250  2.0107  1.1020 -2.3017
   76SLPC  H15B 6802   5.651   0.460   6.389  0.5794  0.8089 -0.4549
   76SLPC  H15C 6803   5.545   0.471   6.254  0.2984  1.2011  0.9135
   76SLPC   C12 6804   5.865   0.586   6.229  0.3150  0.3252 -0.6087
   76SLPC  H12A 6805   5.915   0.500   6.188 -0.0144 -0.2855  0.2550
   76SLPC  H12B 6806   5.893   0.570   6.332 -1.0937 -1.9037 -0.5310
   76SLPC   C11 6807   5.929   0.712   6.178 -0.5429 -1.0495 -0.1477
   76SLPC  H11A 6808   5.892   0.792   6.246  0.4290 -1.1951  0.5592
   76SLPC  H11B 6809   5.893   0.734   6.075 -0.3858 -0.2552 -0.0413
   76SLPC     P 6810   6.156   0.821   6.228 -0.2295 -0.4008 -0.2859
   76SLPC   O13 6811   6.159   0.921   6.122 -0.1471  0.0507 -0.2415
   76SLPC   O14 6812   6.105   0.861   6.360  0.2370 -0.1566  0.1549
   76SLPC   O12 6813   6.068   0.700   6.181 -0.0761  0.1446 -0.8755
   76SLPC   O11 6814   6.295   0.759   6.238  0.0512  0.6861 -0.0475
   76SLPC    C1 6815   6.312   0.616   6.270  0.3413 -0.6407 -0.0198
   76SLPC    HA 6816   6.266   0.549   6.194  1.6537 -0.2265 -1.1985
   76SLPC    HB 6817   6.420   0.597   6.253  0.3478 -0.2300 -0.4667
   76SLPC    C2 6818   6.255   0.577   6.405  0.6410 -0.1901  0.4471
   76SLPC    HS 6819   6.145   0.582   6.390  0.7913 -1.6466 -1.2436
   76SLPC   O21 6820   6.305   0.667   6.516  0.8186  0.1034  0.3278
   76SLPC   C21 6821   6.221   0.677   6.616  0.4552 -0.0127 -0.2532
   76SLPC   O22 6822   6.103   0.631   6.619 -0.7932 -0.3612  0.3094
   76SLPC   C22 6823   6.270   0.776   6.716 -0.0763 -0.5772 -0.2143
   76SLPC   H2R 6824   6.373   0.745   6.746  1.0596  1.8086 -1.4677
   76SLPC   H2S 6825   6.272   0.877   6.671 -1.5222  0.0546  1.1265
   76SLPC    C3 6826   6.290   0.422   6.423  0.3400 -0.4906 -0.4870
   76SLPC    HX 6827   6.399   0.400   6.434  0.5478  0.7839  0.0199
   76SLPC    HY 6828   6.247   0.370   6.334  1.3044 -0.1272 -1.1767
   76SLPC   O31 6829   6.229   0.382   6.555  0.0028 -0.2312 -0.0951
   76SLPC   C31 6830   6.103   0.359   6.553  0.1483  0.1501 -0.8326
   76SLPC   O32 6831   6.032   0.379   6.457 -0.3300  0.1900  0.2609
   76SLPC   C32 6832   6.051   0.310   6.690  0.4272 -0.6743  0.4121
   76SLPC   H2X 6833   6.010   0.207   6.678 -3.0548  0.8268 -1.2725
   76SLPC   H2Y 6834   5.966   0.375   6.718  1.0421  0.9768 -1.4198
   76SLPC   C23 6835   6.182   0.775   6.839 -0.2933  0.2374  0.5323
   76SLPC   H3R 6836   6.174   0.671   6.878 -0.9942  0.5665  1.2748
   76SLPC   H3S 6837   6.077   0.787   6.803 -0.1869  0.4847  0.2988
   76SLPC   C24 6838   6.230   0.864   6.955  0.6276 -0.0640  0.2735
   76SLPC   H4R 6839   6.232   0.966   6.912  4.3363  0.4374  1.4610
   76SLPC   H4S 6840   6.338   0.845   6.975  0.9473  0.6630 -0.7203
   76SLPC   C25 6841   6.133   0.857   7.068 -0.0133 -0.4691 -0.3513
   76SLPC   H5R 6842   6.146   0.764   7.127  1.8135  0.3143  0.5251
   76SLPC   H5S 6843   6.028   0.856   7.033  0.7919 -1.1008 -2.8215
   76SLPC   C26 6844   6.138   0.969   7.173 -0.5713  0.1419 -0.2292
   76SLPC   H6R 6845   6.121   1.071   7.131 -2.6511 -0.5072 -1.0373
   76SLPC   H6S 6846   6.238   0.958   7.218  0.0688  0.5656 -1.5093
   76SLPC   C27 6847   6.032   0.963   7.287 -0.0269  0.0410 -0.3957
   76SLPC   H7R 6848   5.946   1.001   7.228 -0.7119 -0.5766  0.1964
   76SLPC   H7S 6849   6.054   1.043   7.362 -1.8450  0.9522 -0.8135
   76SLPC   C28 6850   5.992   0.829   7.350 -0.4373 -0.4306  0.2738
   76SLPC   H8R 6851   5.901   0.844   7.412 -2.6100 -0.4748 -2.7863
   76SLPC   H8S 6852   5.957   0.752   7.279 -0.3975  0.2207 -0.4593
   76SLPC   C29 6853   6.102   0.784   7.442 -0.4446 -0.4875 -0.0597
   76SLPC   H9R 6854   6.179   0.726   7.389 -0.6915 -1.4156  0.5843
   76SLPC  C210 6855   6.128   0.814   7.566 -0.2404  0.5835 -0.1347
   76SLPC  H10R 6856   6.218   0.763   7.603 -1.5873 -1.9907 -0.2624
   76SLPC  C211 6857   6.045   0.902   7.660  0.1125  0.3838 -0.2340
   76SLPC  H11R 6858   5.959   0.949   7.610  0.9688  2.7073  0.4133
   76SLPC  H11S 6859   6.110   0.987   7.692 -1.0228  1.4245 -0.6732
   76SLPC  C212 6860   6.002   0.831   7.781  0.8053  0.0420  0.5324
   76SLPC  H12R 6861   5.921   0.757   7.768  0.4800  0.1835  1.6833
   76SLPC  C213 6862   6.053   0.841   7.906 -0.0856  0.1115 -0.0992
   76SLPC  H13R 6863   6.007   0.786   7.990 -0.2297  1.6634  0.8619
   76SLPC  C214 6864   6.173   0.920   7.939 -0.6534  0.1316  0.3691
   76SLPC  H14R 6865   6.142   1.001   8.008  0.3847 -1.5479  2.8544
   76SLPC  H14S 6866   6.223   0.970   7.853 -0.0589 -0.3533  0.4306
   76SLPC  C215 6867   6.274   0.842   8.017 -0.5105  1.2551 -0.0901
   76SLPC  H15R 6868   6.333   0.763   7.966 -2.4958 -1.1352  1.1619
   76SLPC  H15S 6869   6.221   0.794   8.102 -2.2584  0.7958 -1.4094
   76SLPC  C216 6870   6.390   0.929   8.079 -0.0292  0.8056  0.3862
   76SLPC  H16R 6871   6.445   0.975   7.995  1.5937 -0.5147  0.6951
   76SLPC  H16S 6872   6.461   0.863   8.134  1.1587  1.4143 -0.3888
   76SLPC  C217 6873   6.347   1.041   8.176  0.0187  0.2159  0.4677
   76SLPC  H17R 6874   6.279   0.994   8.250 -1.2017 -1.7416 -1.7999
   76SLPC  H17S 6875   6.286   1.112   8.116  0.5521 -0.2102 -0.5877
   76SLPC  C218 6876   6.471   1.108   8.242  0.6006 -0.0948 -0.5320
   76SLPC  H18R 6877   6.435   1.195   8.302  0.1668  0.8273 -2.0788
   76SLPC  H18S 6878   6.541   1.153   8.168  0.9759  1.9770  1.0252
   76SLPC  H18T 6879   6.525   1.035   8.306  1.4687  1.3171  0.3675
   76SLPC   C33 6880   6.150   0.326   6.810  0.2785  0.9735 -0.0594
   76SLPC   H3X 6881   6.206   0.422   6.806 -0.7172  1.4857 -2.5324
   76SLPC   H3Y 6882   6.236   0.259   6.791 -0.5191  0.0183 -0.2909
   76SLPC   C34 6883   6.089   0.293   6.948  0.0429 -0.2777 -0.1138
   76SLPC   H4X 6884   6.096   0.183   6.954 -0.8271 -0.3889 -0.9724
   76SLPC   H4Y 6885   5.981   0.317   6.938  0.7090  2.9834 -0.0305
   76SLPC   C35 6886   6.148   0.384   7.062 -0.2018  0.1311  0.1859
   76SLPC   H5X 6887   6.126   0.490   7.037  1.6603  0.9624  1.9001
   76SLPC   H5Y 6888   6.259   0.371   7.057 -0.2836 -0.6649  0.3392
   76SLPC   C36 6889   6.095   0.342   7.204 -0.0390  0.0104 -0.2760
   76SLPC   H6X 6890   6.135   0.240   7.222 -0.4586 -0.1958 -0.5146
   76SLPC   H6Y 6891   5.985   0.336   7.213 -0.1688 -0.7929 -2.2587
   76SLPC   C37 6892   6.144   0.434   7.315  0.6138  0.0900  0.1329
   76SLPC   H7X 6893   6.121   0.540   7.290 -2.8663 -0.4680  0.6531
   76SLPC   H7Y 6894   6.253   0.413   7.318  0.8965  1.3216 -1.0565
   76SLPC   C38 6895   6.078   0.395   7.451 -0.2509 -0.6155 -0.2690
   76SLPC   H8X 6896   6.063   0.286   7.462 -1.1158 -0.3402  1.4229
   76SLPC   H8Y 6897   5.978   0.439   7.468  0.5603  0.3829  2.1046
   76SLPC   C39 6898   6.172   0.433   7.559 -0.0827 -0.2016 -0.1522
   76SLPC   H9X 6899   6.204   0.539   7.555 -0.2797 -0.1817 -1.2571
   76SLPC   H9Y 6900   6.256   0.361   7.542 -0.8736 -0.8095 -1.5707
   76SLPC  C310 6901   6.117   0.399   7.701  0.8827 -0.1313  1.1716
   76SLPC  H10X 6902   6.092   0.292   7.686  1.1783  0.2876 -3.0883
   76SLPC  H10Y 6903   6.025   0.460   7.716  0.2734 -0.8822  0.5080
   76SLPC  C311 6904   6.217   0.420   7.808  0.5260  0.5278  0.6481
   76SLPC  H11X 6905   6.260   0.522   7.798 -0.5458  1.0290  1.0266
   76SLPC  H11Y 6906   6.298   0.345   7.809 -0.7910 -0.9117 -0.1390
   76SLPC  C312 6907   6.154   0.426   7.954  0.5753  0.2095 -0.8248
   76SLPC  H12X 6908   6.094   0.333   7.962  1.6571 -0.6936 -2.7005
   76SLPC  H12Y 6909   6.096   0.520   7.966 -1.4571 -1.0893 -0.2813
   76SLPC  C313 6910   6.265   0.425   8.057 -0.2156  0.2766 -0.2630
   76SLPC  H13X 6911   6.216   0.487   8.136 -0.0068  2.9741 -2.1811
   76SLPC  H13Y 6912   6.354   0.473   8.012  0.1740 -0.0282  0.1838
   76SLPC  C314 6913   6.303   0.292   8.124 -0.0302  0.5807  0.0089
   76SLPC  H14X 6914   6.361   0.223   8.059 -0.3825  0.7376 -0.4806
   76SLPC  H14Y 6915   6.207   0.243   8.152  0.6704 -0.2337  1.0343
   76SLPC  C315 6916   6.389   0.313   8.250  0.1522 -0.7833  0.3354
   76SLPC  H15X 6917   6.338   0.383   8.320 -0.0316  0.0222 -0.5901
   76SLPC  H15Y 6918   6.474   0.377   8.219 -0.6905  0.1099 -0.1508
   76SLPC  C316 6919   6.427   0.181   8.320  0.0684 -0.3298 -0.5784
   76SLPC  H16X 6920   6.490   0.118   8.254  0.9341  0.7408 -0.7934
   76SLPC  H16Y 6921   6.325   0.138   8.333 -0.0473 -0.5133 -1.9285
   76SLPC  C317 6922   6.487   0.205   8.460  0.0652  0.5227  0.2357
   76SLPC  H17X 6923   6.414   0.259   8.525  0.3165  0.3469  0.6708
   76SLPC  H17Y 6924   6.566   0.283   8.460 -0.0668  0.6594  0.1263
   76SLPC  C318 6925   6.539   0.081   8.535  0.4539 -0.1466 -0.1566
   76SLPC  H18X 6926   6.460   0.005   8.553  1.6696 -1.6562 -1.1390
   76SLPC  H18Y 6927   6.586   0.121   8.627 -1.0622  0.8296  0.2286
   76SLPC  H18Z 6928   6.608   0.030   8.466  0.2024  0.4784 -0.8831
   77SLPC     N 6929   2.492   0.433   6.357 -0.0903 -0.5878  0.3168
   77SLPC   C13 6930   2.579   0.552   6.365  0.0754 -0.2435 -0.0879
   77SLPC  H13A 6931   2.684   0.534   6.345 -0.2169 -2.1661  0.0651
   77SLPC  H13B 6932   2.538   0.628   6.300 -0.3601  0.6056  1.1527
   77SLPC  H13C 6933   2.579   0.588   6.467 -2.4006  0.8198 -0.4368
   77SLPC   C14 6934   2.509   0.370   6.224 -0.3643  0.4421 -0.5902
   77SLPC  H14A 6935   2.467   0.434   6.148  0.4744  3.7802  1.6585
   77SLPC  H14B 6936   2.610   0.338   6.204 -0.2654  0.3888 -0.0069
   77SLPC  H14C 6937   2.443   0.285   6.214  0.0551  0.2529 -1.9190
   77SLPC   C15 6938   2.347   0.477   6.364 -0.0853  0.4897 -0.2128
   77SLPC  H15A 6939   2.320   0.538   6.279 -1.4789  1.3236  0.7915
   77SLPC  H15B 6940   2.282   0.391   6.374  0.7029  0.0786  1.6337
   77SLPC  H15C 6941   2.332   0.534   6.455  1.3464 -0.4359  0.6076
   77SLPC   C12 6942   2.521   0.331   6.464 -0.0405 -0.0357 -0.0157
   77SLPC  H12A 6943   2.628   0.322   6.477 -0.2931 -0.9812  1.6181
   77SLPC  H12B 6944   2.493   0.232   6.432 -1.7512  0.4985 -0.1991
   77SLPC   C11 6945   2.458   0.354   6.609  0.0089  0.1743 -0.7977
   77SLPC  H11A 6946   2.466   0.454   6.655 -3.1956 -0.1449  0.5417
   77SLPC  H11B 6947   2.503   0.280   6.679  0.6580  1.0429 -0.2989
   77SLPC     P 6948   2.251   0.191   6.577  0.1222 -0.2894  0.1078
   77SLPC   O13 6949   2.125   0.236   6.507  0.6063  0.0027 -0.0008
   77SLPC   O14 6950   2.352   0.109   6.510  0.0200 -0.3380 -0.0597
   77SLPC   O12 6951   2.320   0.325   6.620  0.0219 -0.2862 -0.4910
   77SLPC   O11 6952   2.201   0.135   6.711 -0.0335 -0.4704 -0.3639
   77SLPC    C1 6953   2.255   0.182   6.840 -0.4911 -0.8407  0.0332
   77SLPC    HA 6954   2.279   0.093   6.901  0.0942  0.1153  1.2070
   77SLPC    HB 6955   2.357   0.226   6.839 -0.2191 -1.4571  0.3622
   77SLPC    C2 6956   2.160   0.278   6.916 -0.5203 -0.0402  0.0286
   77SLPC    HS 6957   2.199   0.381   6.897 -0.2420 -0.2107 -0.3398
   77SLPC   O21 6958   2.141   0.246   7.047 -0.6612 -0.1767  0.2478
   77SLPC   C21 6959   2.243   0.267   7.122  0.0621  0.3007 -0.2004
   77SLPC   O22 6960   2.346   0.325   7.094  0.0689 -0.2952 -0.2248
   77SLPC   C22 6961   2.211   0.216   7.262 -0.2480  0.0700 -0.6099
   77SLPC   H2R 6962   2.129   0.277   7.305 -0.0324 -1.1045  1.5113
   77SLPC   H2S 6963   2.170   0.113   7.265 -2.7100  1.0654  0.8758
   77SLPC    C3 6964   2.021   0.272   6.862 -0.1475  0.0001  0.4826
   77SLPC    HX 6965   1.988   0.169   6.885 -0.3083 -0.6448 -2.3645
   77SLPC    HY 6966   2.024   0.283   6.751  0.0079 -0.5827  0.4282
   77SLPC   O31 6967   1.931   0.376   6.919  0.0805  0.9663 -0.0483
   77SLPC   C31 6968   1.810   0.334   6.945 -0.3007 -0.2028 -0.7947
   77SLPC   O32 6969   1.762   0.227   6.918 -0.1728 -0.0496 -0.1324
   77SLPC   C32 6970   1.740   0.435   7.030 -0.3650 -0.5310  0.0900
   77SLPC   H2X 6971   1.639   0.440   6.984 -0.4096 -0.7140  0.1684
   77SLPC   H2Y 6972   1.795   0.531   7.017 -0.9459  0.1479  2.3806
   77SLPC   C23 6973   2.336   0.228   7.351 -0.7624  0.2136  0.0204
   77SLPC   H3R 6974   2.377   0.330   7.341 -0.9463  0.3102  0.2642
   77SLPC   H3S 6975   2.412   0.155   7.317 -0.8428  0.4254 -0.6284
   77SLPC   C24 6976   2.301   0.213   7.503 -0.2357  0.1168 -0.7839
   77SLPC   H4R 6977   2.202   0.255   7.529 -0.9310  0.2186 -3.4656
   77SLPC   H4S 6978   2.380   0.270   7.556  0.1980 -1.8375  0.7582
   77SLPC   C25 6979   2.310   0.064   7.559  0.8792  0.1218 -0.2552
   77SLPC   H5R 6980   2.413   0.025   7.540  0.9394  0.0115  0.2931
   77SLPC   H5S 6981   2.246  -0.003   7.498  1.3184  0.2360 -0.8444
   77SLPC   C26 6982   2.292   0.060   7.708  0.5730  0.6687  0.1907
   77SLPC   H6R 6983   2.199   0.114   7.737  0.4209 -0.4325  1.8336
   77SLPC   H6S 6984   2.386   0.092   7.757 -1.3153  0.5824  4.0126
   77SLPC   C27 6985   2.264  -0.089   7.744 -0.0343  0.5240 -0.0443
   77SLPC   H7R 6986   2.355  -0.150   7.725 -0.5047 -0.1575 -0.1521
   77SLPC   H7S 6987   2.186  -0.126   7.673  0.9353 -3.2620  0.7144
   77SLPC   C28 6988   2.210  -0.102   7.889 -0.4701  0.1465  0.4711
   77SLPC   H8R 6989   2.119  -0.039   7.900 -0.8729 -0.6144  1.5889
   77SLPC   H8S 6990   2.284  -0.053   7.956  0.8596  0.0849 -0.9098
   77SLPC   C29 6991   2.178  -0.241   7.926  0.7447  0.5812 -0.2509
   77SLPC   H9R 6992   2.119  -0.300   7.855 -0.3068  0.2935  0.8361
   77SLPC  C210 6993   2.228  -0.304   8.036 -0.4782  0.5752 -0.1007
   77SLPC  H10R 6994   2.198  -0.409   8.052 -0.0449  0.5497  0.5594
   77SLPC  C211 6995   2.322  -0.234   8.133  0.4038  0.4165 -0.0991
   77SLPC  H11R 6996   2.317  -0.283   8.233  0.6017 -0.0582 -0.3206
   77SLPC  H11S 6997   2.294  -0.130   8.161 -1.1679 -0.3483  1.2755
   77SLPC  C212 6998   2.465  -0.230   8.086 -0.1297  0.6428 -0.0363
   77SLPC  H12R 6999   2.472  -0.243   7.978  1.8212  0.8208  0.0505
   77SLPC  C213 7000   2.584  -0.225   8.151 -0.0335  0.4778 -0.1527
   77SLPC  H13R 7001   2.678  -0.224   8.094 -0.6307  3.1495 -1.1286
   77SLPC  C214 7002   2.583  -0.218   8.309 -0.6261  0.1925  0.2571
   77SLPC  H14R 7003   2.657  -0.292   8.347 -0.9157 -0.0503  0.3494
   77SLPC  H14S 7004   2.480  -0.237   8.346 -1.3135  1.9911 -0.6707
   77SLPC  C215 7005   2.622  -0.074   8.351 -0.1729  0.2676 -0.7710
   77SLPC  H15R 7006   2.560  -0.008   8.287  1.8915  1.2188 -1.8348
   77SLPC  H15S 7007   2.728  -0.047   8.329  0.6248 -1.4093  0.8935
   77SLPC  C216 7008   2.599  -0.045   8.499  0.2490  0.7774 -0.0521
   77SLPC  H16R 7009   2.493  -0.056   8.531  0.5860  1.1535  1.2452
   77SLPC  H16S 7010   2.619   0.063   8.519 -2.2458  1.6888 -2.1929
   77SLPC  C217 7011   2.698  -0.120   8.589  0.0209  1.1770 -0.2282
   77SLPC  H17R 7012   2.792  -0.061   8.580 -0.1291  1.2879 -1.1729
   77SLPC  H17S 7013   2.724  -0.224   8.558 -1.3443  0.6301  0.4191
   77SLPC  C218 7014   2.658  -0.120   8.738 -0.1011  0.4263  0.8439
   77SLPC  H18R 7015   2.649  -0.020   8.786 -2.1236  1.5591 -1.7674
   77SLPC  H18S 7016   2.746  -0.171   8.782 -0.3302 -1.7310 -1.0642
   77SLPC  H18T 7017   2.564  -0.173   8.767  0.5190 -0.9849  0.3058
   77SLPC   C33 7018   1.706   0.393   7.176 -0.4793 -0.5307 -0.1223
   77SLPC   H3X 7019   1.661   0.291   7.171 -0.1949 -0.6366 -0.5861
   77SLPC   H3Y 7020   1.630   0.461   7.220 -3.2735 -0.9277 -4.0707
   77SLPC   C34 7021   1.832   0.389   7.267 -0.0592  0.5177  0.1705
   77SLPC   H4X 7022   1.836   0.483   7.326 -0.1569  0.4754  0.2447
   77SLPC   H4Y 7023   1.923   0.371   7.205 -1.1715 -0.0629 -1.3419
   77SLPC   C35 7024   1.827   0.272   7.371  0.3672  0.0709 -0.3474
   77SLPC   H5X 7025   1.927   0.249   7.413  0.3548  0.6643  0.0125
   77SLPC   H5Y 7026   1.807   0.178   7.315  3.5366  0.2018 -1.8696
   77SLPC   C36 7027   1.718   0.300   7.482 -0.6822  0.5461 -0.2431
   77SLPC   H6X 7028   1.678   0.201   7.510 -0.4475  0.1421 -1.3185
   77SLPC   H6Y 7029   1.631   0.358   7.443 -1.4823 -0.2604  0.3160
   77SLPC   C37 7030   1.779   0.368   7.612 -0.2719 -0.2286 -0.1385
   77SLPC   H7X 7031   1.819   0.471   7.597 -0.5582 -0.4368 -2.4025
   77SLPC   H7Y 7032   1.862   0.306   7.653  0.4976  0.8319 -0.0737
   77SLPC   C38 7033   1.668   0.388   7.704  0.7165 -0.2565 -0.8179
   77SLPC   H8X 7034   1.620   0.292   7.732  1.2709 -0.7446 -1.5189
   77SLPC   H8Y 7035   1.583   0.443   7.659  0.9821 -0.1453 -1.1845
   77SLPC   C39 7036   1.711   0.462   7.831  0.1683  0.1701  0.2564
   77SLPC   H9X 7037   1.766   0.550   7.791 -1.5876  2.6296  3.0674
   77SLPC   H9Y 7038   1.786   0.410   7.895  1.3009  0.4510 -0.8289
   77SLPC  C310 7039   1.595   0.515   7.920  0.0966  0.0077  0.1331
   77SLPC  H10X 7040   1.525   0.571   7.855 -0.0217  0.6802  0.8327
   77SLPC  H10Y 7041   1.655   0.592   7.973 -0.4756  1.4857 -1.3461
   77SLPC  C311 7042   1.514   0.412   7.995 -0.1116  0.8286  0.1736
   77SLPC  H11X 7043   1.582   0.330   8.027 -0.6295  0.7962  1.2084
   77SLPC  H11Y 7044   1.439   0.380   7.919 -0.0357  0.5069  0.2337
   77SLPC  C312 7045   1.425   0.468   8.107  0.9018  0.0544  0.3029
   77SLPC  H12X 7046   1.394   0.565   8.062 -0.5649 -0.1870  0.7438
   77SLPC  H12Y 7047   1.490   0.500   8.190 -0.7852  1.6293  1.0602
   77SLPC  C313 7048   1.309   0.380   8.160  0.0887  0.0024 -0.1552
   77SLPC  H13X 7049   1.244   0.372   8.070  1.3281  0.9509 -1.1657
   77SLPC  H13Y 7050   1.264   0.433   8.247  1.5969  0.2974  0.4564
   77SLPC  C314 7051   1.362   0.242   8.201 -0.4301  0.3415  0.1647
   77SLPC  H14X 7052   1.447   0.258   8.272  0.5866  0.3292 -1.0308
   77SLPC  H14Y 7053   1.410   0.201   8.109 -1.3900 -0.4847  0.0295
   77SLPC  C315 7054   1.262   0.140   8.253  0.1027  0.3108 -0.5242
   77SLPC  H15X 7055   1.174   0.119   8.188  0.2499  0.3396 -0.7313
   77SLPC  H15Y 7056   1.218   0.185   8.345  0.0167 -1.9064  0.5571
   77SLPC  C316 7057   1.340   0.010   8.280 -0.0480  0.4959 -0.5582
   77SLPC  H16X 7058   1.419  -0.017   8.206  1.3294 -1.0681  1.4347
   77SLPC  H16Y 7059   1.270  -0.076   8.269 -0.7569  1.3427 -3.0241
   77SLPC  C317 7060   1.402   0.019   8.424 -0.4934  0.1181  0.3629
   77SLPC  H17X 7061   1.320   0.018   8.499 -0.6019  1.7978  0.2740
   77SLPC  H17Y 7062   1.457   0.112   8.446  2.4955 -1.4700 -0.1188
   77SLPC  C318 7063   1.513  -0.089   8.454  0.0862  0.5445 -0.4595
   77SLPC  H18X 7064   1.460  -0.178   8.495  2.5369 -1.4051 -1.3948
   77SLPC  H18Y 7065   1.593  -0.061   8.525 -0.1751 -0.6701  0.3372
   77SLPC  H18Z 7066   1.551  -0.122   8.355  0.7971 -1.1450  0.3544
   78SLPC     N 7067   4.527   1.426   6.115  0.0590 -0.2238 -0.1966
   78SLPC   C13 7068   4.489   1.478   5.985 -0.3055 -0.3442 -0.3233
   78SLPC  H13A 7069   4.565   1.454   5.912 -0.8779 -2.0109 -0.3869
   78SLPC  H13B 7070   4.399   1.437   5.942  0.2702  0.1609 -2.0521
   78SLPC  H13C 7071   4.472   1.585   5.989 -0.2780 -0.3982  1.8270
   78SLPC   C14 7072   4.664   1.484   6.145  0.2767  0.0462  0.1669
   78SLPC  H14A 7073   4.731   1.476   6.061  0.4590 -1.1907  0.4069
   78SLPC  H14B 7074   4.657   1.591   6.155  0.7029  0.0073  0.9224
   78SLPC  H14C 7075   4.712   1.442   6.232 -0.3635 -1.2215 -0.0715
   78SLPC   C15 7076   4.546   1.280   6.096  0.8454  0.5051  0.1080
   78SLPC  H15A 7077   4.450   1.230   6.095  1.3610 -0.4960 -1.2874
   78SLPC  H15B 7078   4.602   1.261   6.006  0.5154 -2.8779  0.5329
   78SLPC  H15C 7079   4.602   1.243   6.181  0.3356  1.6883  0.9728
   78SLPC   C12 7080   4.434   1.465   6.224 -0.7678  0.6952  0.6269
   78SLPC  H12A 7081   4.449   1.570   6.246  2.4307  0.9420 -2.3645
   78SLPC  H12B 7082   4.461   1.410   6.313  0.5047 -1.1235 -0.8330
   78SLPC   C11 7083   4.287   1.435   6.205 -0.6179 -0.2675 -0.0858
   78SLPC  H11A 7084   4.248   1.493   6.119 -0.5435  3.2865  2.1781
   78SLPC  H11B 7085   4.243   1.475   6.299  2.7550 -1.5647  2.1504
   78SLPC     P 7086   4.261   1.197   6.311  0.0624  0.3415  0.1232
   78SLPC   O13 7087   4.121   1.181   6.353  0.6938  0.1303  0.0493
   78SLPC   O14 7088   4.343   1.081   6.267  0.2656 -0.5092 -0.1423
   78SLPC   O12 7089   4.264   1.300   6.191 -0.0181  0.5365  0.5845
   78SLPC   O11 7090   4.337   1.279   6.422 -0.1240  0.5725  0.3228
   78SLPC    C1 7091   4.412   1.216   6.528 -0.1604  0.1843 -0.8810
   78SLPC    HA 7092   4.433   1.108   6.514  2.9083  0.5339  0.5915
   78SLPC    HB 7093   4.516   1.254   6.518 -0.3345  0.9134 -0.0471
   78SLPC    C2 7094   4.346   1.250   6.660  0.8115  0.5221 -0.1253
   78SLPC    HS 7095   4.320   1.358   6.654  1.4183  0.7207  0.6935
   78SLPC   O21 7096   4.439   1.209   6.765  0.3166 -0.1494  0.2574
   78SLPC   C21 7097   4.527   1.307   6.791  0.3627  0.3859  0.4587
   78SLPC   O22 7098   4.542   1.410   6.727  0.2049  0.5477  0.1926
   78SLPC   C22 7099   4.615   1.243   6.910  0.0260 -0.1338  0.1519
   78SLPC   H2R 7100   4.582   1.139   6.931  0.6138  0.2446  3.2062
   78SLPC   H2S 7101   4.718   1.239   6.868 -0.0693 -1.0744  0.0031
   78SLPC    C3 7102   4.210   1.180   6.671 -0.2246 -0.0968  0.0819
   78SLPC    HX 7103   4.210   1.082   6.620 -2.3861 -0.3035  0.4194
   78SLPC    HY 7104   4.128   1.234   6.619  0.7919  1.4981  0.1038
   78SLPC   O31 7105   4.170   1.149   6.804 -0.5428  0.0242 -0.3072
   78SLPC   C31 7106   4.144   1.251   6.895 -0.0005  0.3196 -0.4207
   78SLPC   O32 7107   4.134   1.366   6.861 -0.0669 -0.0833 -0.2474
   78SLPC   C32 7108   4.124   1.195   7.038 -0.2226  0.1734  0.2817
   78SLPC   H2X 7109   4.206   1.219   7.109 -0.5040 -1.3082  1.1307
   78SLPC   H2Y 7110   4.136   1.085   7.026  1.5021  0.6200 -2.6549
   78SLPC   C23 7111   4.604   1.321   7.044 -0.3395 -0.2281  0.7221
   78SLPC   H3R 7112   4.648   1.258   7.125 -1.8016 -2.2254 -0.0040
   78SLPC   H3S 7113   4.495   1.316   7.062  0.0795 -3.2422  2.7045
   78SLPC   C24 7114   4.669   1.457   7.037 -0.0234  0.2491 -1.2201
   78SLPC   H4R 7115   4.607   1.522   6.971  1.0238  2.6547  0.0973
   78SLPC   H4S 7116   4.769   1.424   7.001  0.4984  0.4847 -0.0164
   78SLPC   C25 7117   4.684   1.508   7.180 -0.2865 -0.6626 -0.5241
   78SLPC   H5R 7118   4.747   1.438   7.240  0.6781 -0.0430 -0.7940
   78SLPC   H5S 7119   4.587   1.521   7.232  0.1180 -0.5124  0.1983
   78SLPC   C26 7120   4.771   1.637   7.196  0.1297 -0.1512  0.1232
   78SLPC   H6R 7121   4.713   1.721   7.151  2.8969  1.2385 -0.9303
   78SLPC   H6S 7122   4.864   1.627   7.137 -0.5886 -0.3820 -0.9878
   78SLPC   C27 7123   4.789   1.671   7.340 -0.5551  0.0248 -0.4692
   78SLPC   H7R 7124   4.833   1.574   7.374  0.5150  0.3916 -0.7968
   78SLPC   H7S 7125   4.692   1.662   7.393  0.3390 -1.0485  1.0685
   78SLPC   C28 7126   4.871   1.793   7.377 -0.1251 -0.2417  0.5202
   78SLPC   H8R 7127   4.971   1.776   7.332 -1.6591 -3.7355 -1.8774
   78SLPC   H8S 7128   4.875   1.803   7.487 -0.5760 -0.4856  0.5629
   78SLPC   C29 7129   4.812   1.913   7.309  0.1070  0.5535  0.1499
   78SLPC   H9R 7130   4.774   1.898   7.207  0.7371 -0.0163 -0.0060
   78SLPC  C210 7131   4.794   2.037   7.369 -0.1733 -0.4732  0.0659
   78SLPC  H10R 7132   4.759   2.128   7.318  1.7737  0.3601  0.1756
   78SLPC  C211 7133   4.828   2.064   7.513 -0.0980 -0.1256 -0.0684
   78SLPC  H11R 7134   4.930   2.037   7.550 -1.0069  0.9148  3.4463
   78SLPC  H11S 7135   4.766   1.989   7.567 -1.2274 -0.2935 -1.5812
   78SLPC  C212 7136   4.799   2.207   7.560 -0.2051  0.5324 -0.0944
   78SLPC  H12R 7137   4.778   2.281   7.482  1.2683  0.7183 -0.3171
   78SLPC  C213 7138   4.832   2.254   7.682  0.0970 -0.4339 -0.3111
   78SLPC  H13R 7139   4.807   2.359   7.702 -2.5057 -1.0237 -0.3704
   78SLPC  C214 7140   4.912   2.191   7.795 -0.3946  0.7476 -0.0105
   78SLPC  H14R 7141   5.001   2.251   7.821  0.0352  0.3704 -0.6068
   78SLPC  H14S 7142   4.963   2.103   7.752 -3.2363 -0.2035 -1.6069
   78SLPC  C215 7143   4.831   2.163   7.921 -0.0162 -0.1027  0.0894
   78SLPC  H15R 7144   4.896   2.111   7.995 -0.1508  0.0923  0.3449
   78SLPC  H15S 7145   4.736   2.111   7.895  1.5444 -2.4370 -1.1749
   78SLPC  C216 7146   4.786   2.290   7.993  0.2276 -0.0481  1.0069
   78SLPC  H16R 7147   4.713   2.336   7.924  0.2218 -1.2009  0.2234
   78SLPC  H16S 7148   4.881   2.345   8.010  0.7207 -0.5327 -0.1662
   78SLPC  C217 7149   4.714   2.267   8.133 -0.4298 -0.1640  0.1527
   78SLPC  H17R 7150   4.666   2.364   8.160 -0.2658 -0.9421  3.5732
   78SLPC  H17S 7151   4.785   2.230   8.211 -0.9989 -0.2770  0.6222
   78SLPC  C218 7152   4.607   2.164   8.105 -1.1645  0.4916  0.3920
   78SLPC  H18R 7153   4.638   2.057   8.102 -2.0041  0.1952  2.1187
   78SLPC  H18S 7154   4.559   2.195   8.010  0.9277 -1.5888 -1.4167
   78SLPC  H18T 7155   4.527   2.177   8.180 -0.9623 -1.1323  0.9084
   78SLPC   C33 7156   4.002   1.262   7.105 -0.8648 -0.1014  0.6691
   78SLPC   H3X 7157   3.917   1.222   7.046  0.2712 -2.3594  0.4788
   78SLPC   H3Y 7158   3.994   1.372   7.097 -1.5282 -0.1080  1.2012
   78SLPC   C34 7159   3.970   1.214   7.245 -0.7337 -0.0781 -0.2818
   78SLPC   H4X 7160   4.051   1.240   7.316  0.6200 -0.6345 -1.6009
   78SLPC   H4Y 7161   3.976   1.103   7.254  0.4432 -0.0138 -0.2609
   78SLPC   C35 7162   3.837   1.261   7.297 -0.0722  0.7712 -0.2070
   78SLPC   H5X 7163   3.763   1.230   7.220 -0.1652 -0.2926  0.2965
   78SLPC   H5Y 7164   3.846   1.370   7.316  1.9817  0.2014  2.2261
   78SLPC   C36 7165   3.806   1.189   7.436 -0.2884 -0.5079 -0.0209
   78SLPC   H6X 7166   3.826   1.080   7.425 -0.7194 -0.7783  1.7228
   78SLPC   H6Y 7167   3.701   1.211   7.468 -0.2162 -2.0441  1.3331
   78SLPC   C37 7168   3.892   1.236   7.555  0.2119  0.4373  0.1107
   78SLPC   H7X 7169   3.894   1.346   7.568 -0.5641  0.3051  1.4269
   78SLPC   H7Y 7170   3.993   1.199   7.527 -0.0288 -0.6707  0.6489
   78SLPC   C38 7171   3.850   1.171   7.695 -0.6541  0.1448 -0.7608
   78SLPC   H8X 7172   3.933   1.141   7.763 -1.1303 -0.8030 -0.5973
   78SLPC   H8Y 7173   3.809   1.071   7.671 -1.1726 -0.4897  2.5537
   78SLPC   C39 7174   3.752   1.262   7.775 -0.3914  0.2480 -0.1707
   78SLPC   H9X 7175   3.674   1.294   7.703 -0.1487  0.8661 -0.1622
   78SLPC   H9Y 7176   3.800   1.356   7.810  1.6911 -1.0914  0.7292
   78SLPC  C310 7177   3.696   1.190   7.895  0.1521  0.4861 -0.2186
   78SLPC  H10X 7178   3.784   1.162   7.956 -1.2515 -1.9584  0.7338
   78SLPC  H10Y 7179   3.639   1.100   7.865  1.5656 -1.1607  1.8944
   78SLPC  C311 7180   3.610   1.274   7.989 -0.1193  0.3033  0.1838
   78SLPC  H11X 7181   3.529   1.328   7.935 -1.3019  1.6986  3.2732
   78SLPC  H11Y 7182   3.673   1.351   8.038 -0.0903  0.3228  0.1163
   78SLPC  C312 7183   3.535   1.184   8.090 -0.1436 -0.4603  0.1632
   78SLPC  H12X 7184   3.603   1.106   8.131  0.0073 -0.0066  0.7914
   78SLPC  H12Y 7185   3.456   1.124   8.039 -0.7615  1.1870 -0.8491
   78SLPC  C313 7186   3.477   1.256   8.217 -0.5097 -0.2461  0.4325
   78SLPC  H13X 7187   3.408   1.340   8.192  0.0140  0.0647  0.0027
   78SLPC  H13Y 7188   3.561   1.304   8.273 -0.3191 -0.3501  0.2376
   78SLPC  C314 7189   3.420   1.157   8.319  0.9596  0.2150  0.6137
   78SLPC  H14X 7190   3.422   1.192   8.425  0.3905  1.7288  0.1382
   78SLPC  H14Y 7191   3.479   1.063   8.324 -0.3794 -0.8516 -2.4923
   78SLPC  C315 7192   3.277   1.117   8.280  0.2925 -0.2314 -0.3398
   78SLPC  H15X 7193   3.291   1.052   8.191  2.3200 -1.1368  0.5876
   78SLPC  H15Y 7194   3.233   1.215   8.254 -0.2101 -0.7585 -1.4772
   78SLPC  C316 7195   3.198   1.043   8.392  0.5680 -0.4993 -0.0886
   78SLPC  H16X 7196   3.183   1.117   8.474 -1.0756 -1.8970  0.9078
   78SLPC  H16Y 7197   3.260   0.961   8.433  1.0159 -0.2097 -0.1843
   78SLPC  C317 7198   3.071   0.983   8.339  0.5456  0.0424  0.0102
   78SLPC  H17X 7199   3.097   0.924   8.249 -1.9378 -1.1109  0.0131
   78SLPC  H17Y 7200   3.004   1.069   8.317 -0.9000 -0.3632  2.6393
   78SLPC  C318 7201   2.995   0.893   8.436  0.1386 -0.0151  0.5763
   78SLPC  H18X 7202   2.984   0.950   8.531  0.2061 -0.1067  0.6382
   78SLPC  H18Y 7203   3.053   0.801   8.456  0.6820  0.0385 -0.7268
   78SLPC  H18Z 7204   2.894   0.864   8.400  1.2675 -0.3582 -2.4210
   79SLPC     N 7205   1.613   3.511   6.033 -0.4629  0.1696  0.2820
   79SLPC   C13 7206   1.662   3.390   5.956 -0.0793 -0.1552  0.3884
   79SLPC  H13A 7207   1.702   3.417   5.859  1.1363 -0.3737  0.8210
   79SLPC  H13B 7208   1.742   3.341   6.009 -0.6010 -1.7665 -0.2858
   79SLPC  H13C 7209   1.587   3.313   5.945  0.3263 -0.3636 -1.0463
   79SLPC   C14 7210   1.514   3.579   5.946  0.3855 -0.6517 -0.5119
   79SLPC  H14A 7211   1.456   3.653   5.998 -0.0569 -1.9004  0.7962
   79SLPC  H14B 7212   1.566   3.625   5.864  0.4982  0.1508  0.0062
   79SLPC  H14C 7213   1.436   3.514   5.908 -0.8420  0.2621  0.4201
   79SLPC   C15 7214   1.727   3.598   6.067  0.1188  0.1784  0.2206
   79SLPC  H15A 7215   1.792   3.630   5.987 -0.8566  0.1471 -0.5942
   79SLPC  H15B 7216   1.699   3.687   6.120  0.3203 -0.6107  1.6933
   79SLPC  H15C 7217   1.787   3.546   6.141 -1.2992 -1.0709  0.5342
   79SLPC   C12 7218   1.538   3.464   6.155  0.1337 -0.1309 -0.0280
   79SLPC  H12A 7219   1.607   3.412   6.220 -0.4308 -1.3636 -0.4016
   79SLPC  H12B 7220   1.470   3.386   6.124  2.1787 -1.5779 -0.9612
   79SLPC   C11 7221   1.459   3.569   6.237 -0.4507 -0.1939  0.6720
   79SLPC  H11A 7222   1.382   3.527   6.306 -0.4258 -1.4742 -0.0441
   79SLPC  H11B 7223   1.402   3.621   6.157  4.0717  0.6255 -2.1821
   79SLPC     P 7224   1.493   3.792   6.360 -0.5279 -0.0030  0.0077
   79SLPC   O13 7225   1.610   3.873   6.395 -0.3460  0.0693 -0.1228
   79SLPC   O14 7226   1.385   3.850   6.278  0.2716  0.2295  0.2189
   79SLPC   O12 7227   1.546   3.653   6.305  0.1888 -0.3644 -0.0570
   79SLPC   O11 7228   1.418   3.737   6.488 -0.1353 -0.2787  0.6561
   79SLPC    C1 7229   1.474   3.657   6.584  0.3862 -0.5322 -0.3095
   79SLPC    HA 7230   1.454   3.550   6.563  2.0895 -0.8762 -0.2676
   79SLPC    HB 7231   1.583   3.678   6.595  0.3601 -1.0392  0.9779
   79SLPC    C2 7232   1.408   3.701   6.723 -0.4741  0.4463  0.9659
   79SLPC    HS 7233   1.297   3.703   6.715 -0.5370  0.3340  1.7778
   79SLPC   O21 7234   1.468   3.827   6.772  0.1438 -0.0080 -0.0473
   79SLPC   C21 7235   1.379   3.931   6.773 -0.4156  0.0942  0.6670
   79SLPC   O22 7236   1.268   3.926   6.725  0.7377 -0.7341 -0.3663
   79SLPC   C22 7237   1.447   4.042   6.844  0.4486  0.0778  0.5140
   79SLPC   H2R 7238   1.534   4.016   6.907  0.1232  0.4264  1.1123
   79SLPC   H2S 7239   1.489   4.106   6.763 -1.8902  0.1587 -0.6732
   79SLPC    C3 7240   1.447   3.599   6.831  0.6496  0.1311  0.5094
   79SLPC    HX 7241   1.554   3.613   6.856  0.4646  1.3058  0.6995
   79SLPC    HY 7242   1.420   3.504   6.780 -2.9570  1.2351  0.2256
   79SLPC   O31 7243   1.365   3.624   6.945 -0.0960  0.7107 -0.7383
   79SLPC   C31 7244   1.419   3.640   7.058 -0.4227 -0.0269  0.7484
   79SLPC   O32 7245   1.539   3.630   7.085 -0.3096  0.5675 -0.1399
   79SLPC   C32 7246   1.315   3.702   7.159 -0.3348 -0.2069  0.3805
   79SLPC   H2X 7247   1.224   3.639   7.153 -0.0970 -0.6277  1.0806
   79SLPC   H2Y 7248   1.298   3.803   7.117  0.0741 -0.2015  0.2171
   79SLPC   C23 7249   1.354   4.122   6.939 -0.1193  0.6678 -0.1424
   79SLPC   H3R 7250   1.335   4.067   7.033  1.1755 -0.3860 -0.4751
   79SLPC   H3S 7251   1.254   4.125   6.890 -0.6349 -0.2040  0.8453
   79SLPC   C24 7252   1.397   4.268   6.959  0.6857 -0.2709  0.0480
   79SLPC   H4R 7253   1.328   4.328   7.021 -0.0637  0.1925 -1.2093
   79SLPC   H4S 7254   1.411   4.307   6.856  3.2048 -2.7386 -0.6133
   79SLPC   C25 7255   1.536   4.270   7.024 -0.0571 -0.0681 -0.3354
   79SLPC   H5R 7256   1.556   4.379   7.032  1.6675 -0.3343 -0.6737
   79SLPC   H5S 7257   1.619   4.232   6.960  0.8370 -1.0690  1.3853
   79SLPC   C26 7258   1.536   4.223   7.176  0.5530  0.5072 -0.2902
   79SLPC   H6R 7259   1.551   4.113   7.181 -1.9008  0.1919  0.4248
   79SLPC   H6S 7260   1.438   4.242   7.224 -0.3576 -1.0807 -1.5144
   79SLPC   C27 7261   1.632   4.299   7.258  0.0984  0.5877 -0.4230
   79SLPC   H7R 7262   1.612   4.408   7.253  0.5446  0.6858 -0.1405
   79SLPC   H7S 7263   1.736   4.276   7.224 -0.4672 -3.9416  0.5064
   79SLPC   C28 7264   1.631   4.266   7.411  0.9092 -0.7913 -0.2547
   79SLPC   H8R 7265   1.725   4.306   7.455  0.8370 -0.6093 -0.2668
   79SLPC   H8S 7266   1.640   4.155   7.416  2.8789 -0.5917  1.8997
   79SLPC   C29 7267   1.509   4.308   7.490  0.0111 -0.3308  0.9962
   79SLPC   H9R 7268   1.454   4.396   7.454 -0.4059 -1.3044 -0.8534
   79SLPC  C210 7269   1.441   4.249   7.588  0.3749  0.1432 -0.2992
   79SLPC  H10R 7270   1.353   4.302   7.628 -0.7232 -1.0568 -1.1057
   79SLPC  C211 7271   1.485   4.114   7.645  0.3140  0.2548 -0.2068
   79SLPC  H11R 7272   1.503   4.055   7.552 -1.6722  0.6428 -0.8555
   79SLPC  H11S 7273   1.401   4.059   7.693 -0.0596  1.0775  0.0727
   79SLPC  C212 7274   1.604   4.125   7.738 -0.0294 -0.3069  0.3765
   79SLPC  H12R 7275   1.702   4.146   7.694 -0.2123 -1.1142 -0.4245
   79SLPC  C213 7276   1.604   4.091   7.869  0.7959  0.4822 -0.6185
   79SLPC  H13R 7277   1.701   4.088   7.921 -0.6283 -1.4971  2.0287
   79SLPC  C214 7278   1.497   4.035   7.962  0.4065  0.6098 -0.2875
   79SLPC  H14R 7279   1.523   3.931   7.993  1.7418  0.6070 -1.3749
   79SLPC  H14S 7280   1.404   4.015   7.905  0.2280 -0.3004  0.3000
   79SLPC  C215 7281   1.471   4.122   8.081  0.1050 -0.3008 -0.1878
   79SLPC  H15R 7282   1.378   4.092   8.135 -0.4278  2.6308  0.6300
   79SLPC  H15S 7283   1.446   4.226   8.049 -0.2596 -0.5876 -0.8594
   79SLPC  C216 7284   1.591   4.132   8.178 -0.2545 -0.4803  1.0146
   79SLPC  H16R 7285   1.685   4.146   8.120 -1.1482 -1.1887 -0.6257
   79SLPC  H16S 7286   1.590   4.027   8.213  0.4338 -0.3919  1.3136
   79SLPC  C217 7287   1.578   4.231   8.294 -1.0364 -0.0269 -0.0902
   79SLPC  H17R 7288   1.570   4.333   8.250 -0.8971  0.2399  0.4971
   79SLPC  H17S 7289   1.680   4.227   8.338 -1.3353  1.8763  0.8121
   79SLPC  C218 7290   1.471   4.198   8.397 -0.4335  0.1882  0.7879
   79SLPC  H18R 7291   1.485   4.273   8.478 -0.3770  0.9238  0.1008
   79SLPC  H18S 7292   1.488   4.101   8.447 -2.4480 -0.7605 -0.2900
   79SLPC  H18T 7293   1.371   4.196   8.349 -0.5295  0.5982  0.9708
   79SLPC   C33 7294   1.369   3.720   7.304 -0.2054 -0.0776 -1.1961
   79SLPC   H3X 7295   1.472   3.760   7.301 -0.3785  0.3061 -2.2750
   79SLPC   H3Y 7296   1.358   3.621   7.354  1.4348  1.0681  1.5241
   79SLPC   C34 7297   1.262   3.800   7.384  0.3867 -0.0445  0.3365
   79SLPC   H4X 7298   1.162   3.762   7.355 -0.0713 -0.3189  2.2444
   79SLPC   H4Y 7299   1.272   3.909   7.366 -1.3183 -0.2863 -2.3519
   79SLPC   C35 7300   1.285   3.766   7.531  0.3268 -0.1499  0.0776
   79SLPC   H5X 7301   1.382   3.817   7.555  0.5951 -0.4838 -0.2951
   79SLPC   H5Y 7302   1.305   3.657   7.533 -1.8565 -0.6298 -2.3660
   79SLPC   C36 7303   1.169   3.813   7.626  0.7408 -0.1696  0.2816
   79SLPC   H6X 7304   1.071   3.785   7.582  0.3318 -0.0545  1.0992
   79SLPC   H6Y 7305   1.165   3.923   7.636  0.5365 -0.1303 -0.2444
   79SLPC   C37 7306   1.184   3.774   7.772 -0.1380  0.3221  0.5890
   79SLPC   H7X 7307   1.291   3.786   7.799 -0.1176  1.1713  0.1398
   79SLPC   H7Y 7308   1.161   3.666   7.785  1.1337 -0.3015 -1.8610
   79SLPC   C38 7309   1.102   3.858   7.871 -0.1509  0.1014  0.3685
   79SLPC   H8X 7310   0.995   3.840   7.847 -0.1711  0.1405  0.4289
   79SLPC   H8Y 7311   1.133   3.964   7.858  1.2557 -0.1827  1.2190
   79SLPC   C39 7312   1.149   3.829   8.017  0.0187  0.7088  0.0648
   79SLPC   H9X 7313   1.254   3.863   8.023  0.1617  0.0382  1.5916
   79SLPC   H9Y 7314   1.143   3.718   8.029 -2.2572  0.8550  0.4209
   79SLPC  C310 7315   1.058   3.887   8.132  0.4652  0.4738 -0.5666
   79SLPC  H10X 7316   0.965   3.827   8.136  0.4399  0.5168 -0.5233
   79SLPC  H10Y 7317   1.051   3.997   8.119 -0.8488  0.3645 -0.8828
   79SLPC  C311 7318   1.136   3.885   8.263 -0.1865  0.2118 -0.3135
   79SLPC  H11X 7319   1.234   3.933   8.242 -0.1871 -0.1270 -1.0810
   79SLPC  H11Y 7320   1.153   3.778   8.287  0.6333  0.6045  0.8789
   79SLPC  C312 7321   1.057   3.955   8.376 -0.4056 -0.0344 -0.4665
   79SLPC  H12X 7322   1.036   4.057   8.338 -0.6923 -0.1654 -0.6613
   79SLPC  H12Y 7323   1.114   3.954   8.472 -0.7538 -0.6620 -0.2617
   79SLPC  C313 7324   0.918   3.887   8.404 -0.5186 -0.0634  0.4689
   79SLPC  H13X 7325   0.928   3.779   8.426 -0.3015 -0.2473 -0.5062
   79SLPC  H13Y 7326   0.841   3.904   8.326  0.4839  3.4460  0.1372
   79SLPC  C314 7327   0.853   3.947   8.533 -0.6333  0.1293  0.0515
   79SLPC  H14X 7328   0.828   4.054   8.518  1.1666  0.5797  0.2049
   79SLPC  H14Y 7329   0.923   3.940   8.619  0.2308  0.3922 -0.6219
   79SLPC  C315 7330   0.715   3.885   8.560  0.5304 -0.1441  0.4746
   79SLPC  H15X 7331   0.719   3.778   8.589  1.1451 -0.4332 -0.6847
   79SLPC  H15Y 7332   0.654   3.895   8.467  1.0900 -1.1232 -0.0001
   79SLPC  C316 7333   0.635   3.969   8.665  0.1424  0.2898  0.5659
   79SLPC  H16X 7334   0.634   4.073   8.625 -0.3713  0.8630  2.0163
   79SLPC  H16Y 7335   0.688   3.969   8.762 -1.5921 -2.8639  1.5854
   79SLPC  C317 7336   0.491   3.919   8.687 -0.6267 -0.2477 -0.1522
   79SLPC  H17X 7337   0.434   3.919   8.591 -0.5207  1.3897 -0.2278
   79SLPC  H17Y 7338   0.443   4.000   8.747  0.1972 -0.5820  0.9762
   79SLPC  C318 7339   0.465   3.790   8.764  0.0743  0.2198  0.0454
   79SLPC  H18X 7340   0.542   3.712   8.743 -1.9332 -1.8106  0.0446
   79SLPC  H18Y 7341   0.362   3.756   8.743  0.3337  0.2385 -1.3067
   79SLPC  H18Z 7342   0.471   3.799   8.875 -2.3290  2.2614  0.0427
   80SLPC     N 7343   2.756   1.514   6.055  0.3928 -0.0720 -0.2703
   80SLPC   C13 7344   2.886   1.521   6.136  0.0451 -0.2887  0.0815
   80SLPC  H13A 7345   2.955   1.446   6.101  1.8990  2.2636 -1.9534
   80SLPC  H13B 7346   2.938   1.615   6.130 -1.7709  0.7388 -0.0284
   80SLPC  H13C 7347   2.868   1.512   6.242  0.4898 -2.4342 -0.0156
   80SLPC   C14 7348   2.776   1.505   5.903 -1.0661  0.2202 -0.4139
   80SLPC  H14A 7349   2.804   1.599   5.858  2.4259  0.2188  1.5651
   80SLPC  H14B 7350   2.845   1.424   5.882 -0.7618  0.7824 -1.6038
   80SLPC  H14C 7351   2.677   1.475   5.873 -1.2520 -1.5699  1.8172
   80SLPC   C15 7352   2.672   1.643   6.075 -0.7324 -0.6268  0.4488
   80SLPC  H15A 7353   2.577   1.630   6.026 -0.0212 -0.6986 -0.9426
   80SLPC  H15B 7354   2.654   1.678   6.175 -0.4689 -1.3091  0.7413
   80SLPC  H15C 7355   2.729   1.721   6.027  1.5420 -0.5136  3.2446
   80SLPC   C12 7356   2.669   1.397   6.099  0.1486 -0.0424  0.7988
   80SLPC  H12A 7357   2.571   1.396   6.053 -0.4890 -1.8379  2.1356
   80SLPC  H12B 7358   2.654   1.405   6.206 -0.7589  2.4026  0.5305
   80SLPC   C11 7359   2.725   1.250   6.084 -0.6776  0.1398 -0.5564
   80SLPC  H11A 7360   2.784   1.236   5.991 -0.3099 -2.4197  0.0293
   80SLPC  H11B 7361   2.638   1.181   6.079 -0.7516  0.3374 -2.6864
   80SLPC     P 7362   2.755   1.189   6.337 -0.3571  0.3138  0.1634
   80SLPC   O13 7363   2.635   1.277   6.363 -0.1097  1.1238  0.4584
   80SLPC   O14 7364   2.721   1.049   6.343 -0.2265 -0.2611 -0.3699
   80SLPC   O12 7365   2.811   1.227   6.191 -0.1363 -0.0239  0.5880
   80SLPC   O11 7366   2.864   1.246   6.430  0.8072 -0.0796  0.6846
   80SLPC    C1 7367   2.992   1.189   6.446 -0.0970  0.3499 -0.9233
   80SLPC    HA 7368   3.033   1.160   6.346  1.6331  1.6823 -0.6216
   80SLPC    HB 7369   3.056   1.270   6.486 -4.3470  1.7537  3.4843
   80SLPC    C2 7370   2.992   1.067   6.545 -0.4589  0.3939 -0.1269
   80SLPC    HS 7371   2.903   1.003   6.527  0.5771 -1.1119  0.0087
   80SLPC   O21 7372   3.011   1.112   6.677  0.0862 -0.0865 -0.2695
   80SLPC   C21 7373   2.900   1.144   6.747  0.0048  0.6834 -0.8663
   80SLPC   O22 7374   2.782   1.126   6.710 -0.4231  0.1107  0.0055
   80SLPC   C22 7375   2.948   1.205   6.884  0.3288 -0.5483  0.0718
   80SLPC   H2R 7376   2.857   1.256   6.922 -0.7657 -1.2749 -1.5087
   80SLPC   H2S 7377   2.944   1.130   6.966 -0.3694 -0.5240  0.0693
   80SLPC    C3 7378   3.113   0.976   6.513 -0.4761 -0.0139  0.2394
   80SLPC    HX 7379   3.205   1.036   6.499 -1.1510  0.9146 -0.2246
   80SLPC    HY 7380   3.088   0.925   6.417  2.5125  0.3434 -0.8065
   80SLPC   O31 7381   3.134   0.868   6.613 -0.3197  0.3711 -0.1970
   80SLPC   C31 7382   3.224   0.893   6.704  0.5307 -0.0506 -0.4188
   80SLPC   O32 7383   3.291   0.996   6.722 -0.4281  0.0053  0.1291
   80SLPC   C32 7384   3.204   0.786   6.819  0.5621  0.2200 -0.0543
   80SLPC   H2X 7385   3.101   0.788   6.860 -0.1449  1.7111 -1.8441
   80SLPC   H2Y 7386   3.274   0.825   6.896 -0.7303  1.2765  0.6053
   80SLPC   C23 7387   3.083   1.275   6.883 -0.4135 -0.0490  0.5996
   80SLPC   H3R 7388   3.089   1.361   6.813 -1.0874  0.5199  1.2347
   80SLPC   H3S 7389   3.171   1.212   6.858  0.1956  0.4124  1.5569
   80SLPC   C24 7390   3.113   1.340   7.017 -1.2218 -0.2584 -0.0882
   80SLPC   H4R 7391   3.116   1.270   7.103 -2.5027 -2.0121 -1.4418
   80SLPC   H4S 7392   3.031   1.410   7.044 -1.9108 -0.6926 -1.0722
   80SLPC   C25 7393   3.235   1.434   7.013  0.1350 -0.8212 -0.0960
   80SLPC   H5R 7394   3.222   1.523   6.947 -0.8050 -0.5004  0.5031
   80SLPC   H5S 7395   3.322   1.389   6.961  2.3936  3.1865 -0.0202
   80SLPC   C26 7396   3.257   1.497   7.154  0.4835 -0.2600 -0.5230
   80SLPC   H6R 7397   3.165   1.523   7.210  0.7346 -0.3539 -0.0616
   80SLPC   H6S 7398   3.300   1.597   7.131  0.2654 -0.2204 -0.7637
   80SLPC   C27 7399   3.339   1.407   7.249 -0.4620  0.5539 -0.2248
   80SLPC   H7R 7400   3.438   1.395   7.200 -0.7856  2.6784 -1.4496
   80SLPC   H7S 7401   3.289   1.308   7.253  0.2912  0.2027  0.9710
   80SLPC   C28 7402   3.365   1.473   7.385 -0.2464  0.6507 -0.0880
   80SLPC   H8R 7403   3.394   1.579   7.369 -2.8962  1.5286  0.6969
   80SLPC   H8S 7404   3.448   1.417   7.433 -0.2769  1.5183  0.9819
   80SLPC   C29 7405   3.239   1.478   7.469 -0.7309 -0.3496  0.3877
   80SLPC   H9R 7406   3.150   1.518   7.417 -0.9841  2.2111  2.6920
   80SLPC  C210 7407   3.225   1.428   7.592 -0.1793 -0.2163 -0.0899
   80SLPC  H10R 7408   3.126   1.444   7.636 -0.1718 -2.0381  0.6323
   80SLPC  C211 7409   3.337   1.368   7.674  0.7888  0.2452  0.4310
   80SLPC  H11R 7410   3.440   1.369   7.632  0.5149  0.7623 -0.2365
   80SLPC  H11S 7411   3.305   1.263   7.686  2.7919 -0.7867 -2.4955
   80SLPC  C212 7412   3.332   1.437   7.807  0.3596  0.4651  0.5195
   80SLPC  H12R 7413   3.410   1.515   7.808  0.3690  0.4612  0.0168
   80SLPC  C213 7414   3.245   1.409   7.904  0.2449  0.7096 -0.4256
   80SLPC  H13R 7415   3.262   1.447   8.006  1.0467 -2.8888  0.8316
   80SLPC  C214 7416   3.144   1.294   7.897 -0.3144 -1.1011 -0.5136
   80SLPC  H14R 7417   3.196   1.197   7.911 -0.6212 -1.2086 -0.1117
   80SLPC  H14S 7418   3.099   1.305   7.796 -0.3420  0.9062 -0.3021
   80SLPC  C215 7419   3.042   1.301   8.010  0.0283  0.8265 -0.1161
   80SLPC  H15R 7420   2.961   1.374   7.989 -0.7748 -0.4860 -1.6390
   80SLPC  H15S 7421   3.093   1.317   8.108  0.7276  0.5995 -0.4361
   80SLPC  C216 7422   2.971   1.163   8.033  0.9836 -0.4587  0.0469
   80SLPC  H16R 7423   2.931   1.161   8.137 -0.2606 -1.9129 -0.4382
   80SLPC  H16S 7424   3.049   1.083   8.037  0.7338 -0.6866  0.4010
   80SLPC  C217 7425   2.862   1.135   7.931 -0.0583  0.3495  0.2844
   80SLPC  H17R 7426   2.807   1.042   7.958  0.5208  0.8052  3.1716
   80SLPC  H17S 7427   2.902   1.128   7.828  1.2874 -1.5978  0.9103
   80SLPC  C218 7428   2.745   1.238   7.927  0.9132  0.2773  0.5353
   80SLPC  H18R 7429   2.683   1.240   8.019 -1.3788 -1.9786 -0.8904
   80SLPC  H18S 7430   2.666   1.210   7.854  0.4438  3.8049 -0.4416
   80SLPC  H18T 7431   2.776   1.344   7.908 -0.3365  0.2907 -1.6167
   80SLPC   C33 7432   3.264   0.653   6.763 -0.3293  0.6412  0.1513
   80SLPC   H3X 7433   3.365   0.684   6.726  0.2691 -0.2228  1.0306
   80SLPC   H3Y 7434   3.196   0.606   6.689 -0.3511 -1.4086  1.4481
   80SLPC   C34 7435   3.304   0.557   6.883  0.5633  0.9795 -0.4087
   80SLPC   H4X 7436   3.391   0.601   6.937  0.5975 -1.8010  1.9075
   80SLPC   H4Y 7437   3.337   0.460   6.841 -0.4182  0.5184 -0.1100
   80SLPC   C35 7438   3.191   0.522   6.981 -0.6574 -0.6703  0.2955
   80SLPC   H5X 7439   3.118   0.463   6.921  0.7965 -1.0225 -1.1798
   80SLPC   H5Y 7440   3.140   0.607   7.029 -1.4118 -0.7324 -0.3892
   80SLPC   C36 7441   3.247   0.442   7.098  0.1956  0.2957 -0.2176
   80SLPC   H6X 7442   3.278   0.512   7.179 -0.2490  0.1702  0.0603
   80SLPC   H6Y 7443   3.335   0.383   7.064 -0.2373  0.7165 -2.1555
   80SLPC   C37 7444   3.143   0.343   7.144  0.3875 -0.1131  0.1679
   80SLPC   H7X 7445   3.175   0.294   7.239 -1.8911  1.1676  1.6447
   80SLPC   H7Y 7446   3.122   0.263   7.070  1.5626 -1.2038  0.9916
   80SLPC   C38 7447   3.006   0.416   7.192 -0.7885  0.3299  0.3031
   80SLPC   H8X 7448   2.950   0.446   7.101  0.1273 -1.4101 -0.8511
   80SLPC   H8Y 7449   3.034   0.511   7.243  0.0037  0.4863 -0.4113
   80SLPC   C39 7450   2.925   0.334   7.295  0.3891  0.3283  0.4953
   80SLPC   H9X 7451   2.974   0.324   7.394 -0.0965 -2.6962  0.4670
   80SLPC   H9Y 7452   2.904   0.233   7.255 -5.2802  0.2333  3.3747
   80SLPC  C310 7453   2.788   0.396   7.327 -0.3211 -0.7794 -0.6131
   80SLPC  H10X 7454   2.732   0.415   7.233  1.0210  0.9997 -1.0820
   80SLPC  H10Y 7455   2.810   0.499   7.362  0.8615 -1.4503  0.6731
   80SLPC  C311 7456   2.706   0.320   7.431 -0.1916 -0.2474 -0.7028
   80SLPC  H11X 7457   2.681   0.225   7.379  0.1629 -1.2753  0.9822
   80SLPC  H11Y 7458   2.614   0.381   7.450  0.0587 -0.2271  0.4311
   80SLPC  C312 7459   2.773   0.311   7.572 -0.1372  0.1980 -0.7249
   80SLPC  H12X 7460   2.817   0.408   7.604  0.1114  0.2660 -1.2624
   80SLPC  H12Y 7461   2.855   0.237   7.567 -0.6925 -0.4037 -0.9039
   80SLPC  C313 7462   2.690   0.266   7.687 -0.1852  0.5390 -0.2770
   80SLPC  H13X 7463   2.651   0.165   7.661 -0.2794  1.3828 -3.6521
   80SLPC  H13Y 7464   2.597   0.328   7.686  0.3320  1.3315  0.7408
   80SLPC  C314 7465   2.752   0.258   7.833  0.3976 -0.1284  0.1357
   80SLPC  H14X 7466   2.804   0.352   7.863 -0.0896  0.1735  0.0337
   80SLPC  H14Y 7467   2.829   0.178   7.825  2.0426  1.6353 -2.0892
   80SLPC  C315 7468   2.658   0.200   7.940 -0.0184 -0.2131 -0.5595
   80SLPC  H15X 7469   2.714   0.169   8.031 -0.1924  1.9274  0.2938
   80SLPC  H15Y 7470   2.604   0.114   7.895 -0.9756 -0.7838  1.6363
   80SLPC  C316 7471   2.564   0.313   7.986 -0.4280 -0.4386 -0.0100
   80SLPC  H16X 7472   2.557   0.388   7.903  0.4934  0.7100  0.9329
   80SLPC  H16Y 7473   2.605   0.373   8.070 -0.4884 -0.7703  0.2565
   80SLPC  C317 7474   2.427   0.264   8.027 -0.3622  0.3302 -1.0358
   80SLPC  H17X 7475   2.392   0.178   7.967 -2.1129 -0.0876  0.5426
   80SLPC  H17Y 7476   2.351   0.345   8.014 -1.4935 -0.8701 -2.0437
   80SLPC  C318 7477   2.419   0.224   8.172 -0.9644  0.6673 -0.5260
   80SLPC  H18X 7478   2.409   0.318   8.231  0.1112  0.7066 -0.4064
   80SLPC  H18Y 7479   2.515   0.178   8.205 -0.6320  2.6496  1.4164
   80SLPC  H18Z 7480   2.333   0.156   8.193  0.8057 -1.6926 -0.6676
   81SAPS     N 7481   3.875   3.152  11.119 -0.4285  0.2570 -0.1257
   81SAPS   HN1 7482   3.941   3.073  11.136 -0.4644 -0.2385 -2.1076
   81SAPS   HN2 7483   3.841   3.152  11.021 -1.2662 -0.1532  0.1599
   81SAPS   HN3 7484   3.926   3.240  11.141  1.0306 -0.7140  0.4615
   81SAPS   C12 7485   3.769   3.123  11.231  0.7172 -0.9168  0.5526
   81SAPS  H12A 7486   3.706   3.047  11.187 -0.8652  0.1239  0.9851
   81SAPS   C13 7487   3.830   3.079  11.367 -0.0086  0.2429 -0.2673
   81SAPS  O13A 7488   3.953   3.050  11.367  0.5322  0.1593 -0.0496
   81SAPS  O13B 7489   3.755   3.054  11.460  0.3838 -0.0100 -0.4551
   81SAPS   C11 7490   3.686   3.248  11.248 -0.6211 -0.0087 -0.9041
   81SAPS  H11A 7491   3.745   3.322  11.306 -0.9437  0.4668 -1.1828
   81SAPS  H11B 7492   3.600   3.217  11.312 -0.2927  0.1535 -0.3826
   81SAPS     P 7493   3.605   3.451  11.126  0.0283 -0.5309 -0.2744
   81SAPS   O13 7494   3.535   3.487  11.255 -0.0187 -0.0724 -0.1261
   81SAPS   O14 7495   3.714   3.536  11.078  0.4755  0.4522 -0.7966
   81SAPS   O12 7496   3.644   3.301  11.125  0.4509 -0.3949  0.0312
   81SAPS   O11 7497   3.492   3.453  11.013  0.1890 -0.8332  0.1420
   81SAPS    C1 7498   3.367   3.531  11.038 -0.3200  0.7203  0.0030
   81SAPS    HA 7499   3.294   3.466  11.090 -1.7418  2.3100  0.0511
   81SAPS    HB 7500   3.394   3.624  11.092  1.1830  0.3806 -0.1549
   81SAPS    C2 7501   3.301   3.576  10.905 -0.1562  0.2535 -0.3526
   81SAPS    HS 7502   3.197   3.537  10.908 -0.1484  0.2825  0.4047
   81SAPS   O21 7503   3.367   3.509  10.797 -0.2485 -0.1388  0.1424
   81SAPS   C21 7504   3.353   3.377  10.785  0.5116 -0.3751  0.1434
   81SAPS   O22 7505   3.278   3.305  10.853  0.9068 -0.6704  0.0679
   81SAPS   C22 7506   3.448   3.327  10.683 -0.0615  0.0808  0.0845
   81SAPS   H2R 7507   3.531   3.276  10.737  1.1267  0.4151 -1.4065
   81SAPS   H2S 7508   3.414   3.251  10.610 -0.9276  0.8322 -0.3020
   81SAPS    C3 7509   3.304   3.730  10.883  0.2209 -0.1137  0.7058
   81SAPS    HX 7510   3.402   3.769  10.916 -0.9672  3.0163  0.7433
   81SAPS    HY 7511   3.230   3.769  10.957  0.6158 -3.0112  2.6780
   81SAPS   O31 7512   3.266   3.773  10.747 -0.2062  1.1491  0.5551
   81SAPS   C31 7513   3.374   3.788  10.670 -1.0431  0.0255  0.3307
   81SAPS   O32 7514   3.488   3.752  10.695  0.1317 -0.4178  0.2157
   81SAPS   C32 7515   3.324   3.844  10.539  0.4526 -0.1429  0.4765
   81SAPS   H2X 7516   3.267   3.939  10.550  0.9348  0.2852 -0.6950
   81SAPS   H2Y 7517   3.253   3.764  10.507 -1.0340  0.9714  0.9210
   81SAPS   C23 7518   3.520   3.435  10.600  0.1929 -0.7258 -0.1490
   81SAPS   H3R 7519   3.616   3.396  10.559  0.5782  0.6771 -0.6002
   81SAPS   H3S 7520   3.543   3.524  10.661 -0.5459 -2.0147  2.0424
   81SAPS   C24 7521   3.441   3.473  10.474 -0.0163  0.1718 -0.1190
   81SAPS   H4R 7522   3.504   3.547  10.420 -1.4336 -0.6188 -3.0000
   81SAPS   H4S 7523   3.355   3.529  10.516  0.2790  2.1646 -2.0624
   81SAPS   C25 7524   3.391   3.366  10.375 -0.4948  0.3359 -0.3936
   81SAPS   H5R 7525   3.321   3.289  10.410 -0.1243 -0.4218 -1.2906
   81SAPS   C26 7526   3.415   3.360  10.242 -0.1682  0.5358 -0.2045
   81SAPS   H6R 7527   3.346   3.300  10.181 -1.3717  0.1966  1.4697
   81SAPS   C27 7528   3.508   3.445  10.164 -0.1769 -0.8054  0.5940
   81SAPS   H7R 7529   3.537   3.534  10.223  1.2942 -0.5567 -0.4797
   81SAPS   H7S 7530   3.475   3.488  10.067  3.1540  0.0005 -0.2327
   81SAPS   C28 7531   3.636   3.374  10.136 -0.1588 -1.4100 -0.8195
   81SAPS   H8R 7532   3.692   3.366  10.231 -2.4589  0.1618  0.7291
   81SAPS   C29 7533   3.693   3.341  10.019  0.2184 -0.2051 -0.1250
   81SAPS   H9R 7534   3.783   3.278  10.017  1.3293  1.3365  0.0270
   81SAPS  C210 7535   3.623   3.353   9.886  0.0422  0.2517  0.3177
   81SAPS  H10R 7536   3.565   3.448   9.887 -2.1910 -1.0461 -1.5573
   81SAPS  H10S 7537   3.558   3.264   9.871  0.2819  0.4810 -2.2195
   81SAPS  C211 7538   3.705   3.366   9.762  0.7208 -0.7216 -0.5365
   81SAPS  H11R 7539   3.807   3.393   9.790  0.4691  2.0567 -2.0982
   81SAPS  C212 7540   3.661   3.355   9.641  0.1070  0.1650 -0.0251
   81SAPS  H12R 7541   3.738   3.361   9.562 -0.4252 -2.6947 -0.8464
   81SAPS  C213 7542   3.514   3.315   9.602 -0.3087  0.0097 -0.5192
   81SAPS  H13R 7543   3.478   3.235   9.670  2.4715 -0.8624  0.0223
   81SAPS  H13S 7544   3.512   3.262   9.504  1.7360 -0.2575 -0.4342
   81SAPS  C214 7545   3.419   3.434   9.607  0.1408 -0.2488 -0.4044
   81SAPS  H14R 7546   3.439   3.505   9.689 -1.9978 -2.3399  2.0021
   81SAPS  C215 7547   3.318   3.456   9.518 -0.5133  0.4900 -1.3823
   81SAPS  H15R 7548   3.263   3.546   9.549  0.5863 -0.3726  3.4431
   81SAPS  C216 7549   3.288   3.381   9.393 -0.3865  0.1843 -0.4679
   81SAPS  H16R 7550   3.180   3.389   9.369 -0.6365  1.8602  1.0753
   81SAPS  H16S 7551   3.307   3.274   9.413 -0.8021  0.3767  1.0087
   81SAPS  C217 7552   3.370   3.432   9.272 -0.3723 -0.0249  0.2411
   81SAPS  H17R 7553   3.479   3.413   9.276 -0.1846  0.7330 -0.9655
   81SAPS  H17S 7554   3.348   3.538   9.245 -1.6111 -0.9068 -2.4115
   81SAPS  C218 7555   3.318   3.360   9.141 -0.7496 -0.0138 -0.3960
   81SAPS  H18R 7556   3.212   3.386   9.123 -0.7787 -0.8656 -1.4810
   81SAPS  H18S 7557   3.314   3.250   9.157 -0.1092  0.0038 -0.0671
   81SAPS  C219 7558   3.397   3.381   9.011  0.2780  0.2233 -0.1688
   81SAPS  H19R 7559   3.501   3.341   9.006  0.2613  0.4293 -2.3664
   81SAPS  H19S 7560   3.393   3.490   8.991 -0.5838 -0.1358 -1.9987
   81SAPS  C220 7561   3.324   3.312   8.889  0.3791  0.3142 -1.1757
   81SAPS  H20R 7562   3.215   3.299   8.907  0.2498  1.6556 -0.9387
   81SAPS  H20S 7563   3.361   3.210   8.864 -0.0719 -0.0364 -0.4285
   81SAPS  H20T 7564   3.354   3.377   8.804 -0.0814  2.2374  0.1017
   81SAPS   C33 7565   3.443   3.854  10.445 -0.2303 -0.0351 -0.6095
   81SAPS   H3X 7566   3.486   3.753  10.431  1.5760  0.7430 -0.8173
   81SAPS   H3Y 7567   3.523   3.915  10.490 -0.3507 -0.9694  0.8864
   81SAPS   C34 7568   3.419   3.920  10.306  0.6327  0.4335 -0.1561
   81SAPS   H4X 7569   3.515   3.918  10.249  1.3170  2.1532  0.8955
   81SAPS   H4Y 7570   3.396   4.029  10.310 -0.1926  0.3318 -1.8583
   81SAPS   C35 7571   3.315   3.852  10.230  0.3433  0.0814  0.0352
   81SAPS   H5X 7572   3.228   3.832  10.296  1.2867  0.8812  1.5612
   81SAPS   H5Y 7573   3.361   3.756  10.200  0.9844 -0.3065  2.1957
   81SAPS   C36 7574   3.266   3.929  10.103 -0.1390 -0.2135  0.9128
   81SAPS   H6X 7575   3.238   4.035  10.118 -1.2431 -0.3123 -0.4180
   81SAPS   H6Y 7576   3.170   3.878  10.082 -0.1579  0.2657 -0.1445
   81SAPS   C37 7577   3.355   3.920   9.969 -0.5695 -0.2477 -0.2951
   81SAPS   H7X 7578   3.391   3.815   9.955  1.2084  0.1325  1.2152
   81SAPS   H7Y 7579   3.442   3.987   9.982 -2.9473  2.5880  1.4584
   81SAPS   C38 7580   3.277   3.963   9.845 -0.5123 -0.0885 -0.0287
   81SAPS   H8X 7581   3.284   4.073   9.837 -1.6314 -0.0646 -0.7108
   81SAPS   H8Y 7582   3.171   3.932   9.857 -0.8371  1.2784  0.7120
   81SAPS   C39 7583   3.348   3.900   9.721 -0.3783  0.3485  0.4614
   81SAPS   H9X 7584   3.312   3.795   9.717  0.8790 -0.0346 -1.2130
   81SAPS   H9Y 7585   3.457   3.883   9.737 -0.2427 -0.6192 -1.4208
   81SAPS  C310 7586   3.322   3.978   9.592 -0.2379  0.1770 -0.0981
   81SAPS  H10X 7587   3.374   4.076   9.592 -1.9093  1.0901  0.6643
   81SAPS  H10Y 7588   3.214   4.003   9.601  0.3965  2.2220  2.1103
   81SAPS  C311 7589   3.373   3.904   9.469 -0.3461  0.2213 -1.1734
   81SAPS  H11X 7590   3.317   3.809   9.460  1.4553 -0.8703 -1.0556
   81SAPS  H11Y 7591   3.483   3.891   9.471 -0.5366 -1.3456  0.7181
   81SAPS  C312 7592   3.323   3.975   9.339  0.4558  0.1068 -0.1702
   81SAPS  H12X 7593   3.371   4.074   9.321  0.3705 -0.5405 -4.5211
   81SAPS  H12Y 7594   3.213   3.990   9.338  0.4186 -0.1596  0.4217
   81SAPS  C313 7595   3.365   3.888   9.211  0.7150  1.0349 -0.1379
   81SAPS  H13X 7596   3.336   3.784   9.237  2.2979  0.8746  1.0281
   81SAPS  H13Y 7597   3.475   3.890   9.199  0.8119 -0.0914  0.4984
   81SAPS  C314 7598   3.313   3.952   9.086 -0.3488 -0.4856 -0.6836
   81SAPS  H14X 7599   3.392   3.945   9.007 -1.3577  0.3073 -1.7822
   81SAPS  H14Y 7600   3.281   4.057   9.101 -3.1916 -1.3702 -0.3286
   81SAPS  C315 7601   3.185   3.885   9.029 -0.2335  0.1032  0.3596
   81SAPS  H15X 7602   3.138   3.947   8.950  0.3771 -0.4990 -0.4854
   81SAPS  H15Y 7603   3.109   3.888   9.110  1.4299 -0.4507  1.9665
   81SAPS  C316 7604   3.201   3.737   8.981 -0.0869  0.0026  0.5976
   81SAPS  H16X 7605   3.262   3.679   9.053  0.5595 -0.0093  0.0487
   81SAPS  H16Y 7606   3.248   3.748   8.880 -3.4977 -0.8900 -1.1460
   81SAPS  C317 7607   3.060   3.681   8.952 -0.1096  0.1772 -0.2297
   81SAPS  H17X 7608   3.007   3.676   9.049  0.4535 -1.2895  0.0115
   81SAPS  H17Y 7609   3.079   3.578   8.915 -0.7203 -0.4453  1.1785
   81SAPS  C318 7610   2.981   3.762   8.850  0.0727 -0.4349  1.0569
   81SAPS  H18X 7611   2.903   3.699   8.802  0.8231  0.0246 -0.8313
   81SAPS  H18Y 7612   3.054   3.794   8.772 -0.6501 -1.4419 -0.0446
   81SAPS  H18Z 7613   2.938   3.855   8.892 -0.6945 -0.5520  0.5412
   82SAPS     N 7614   2.157   2.482  10.781 -0.5048  0.6692  0.3084
   82SAPS   HN1 7615   2.259   2.468  10.792 -0.7307  0.6053  2.4393
   82SAPS   HN2 7616   2.110   2.390  10.781  0.7437  0.0188  1.2568
   82SAPS   HN3 7617   2.137   2.534  10.693  0.0261  1.7975  0.8324
   82SAPS   C12 7618   2.096   2.551  10.900 -0.1891  0.4033  0.5573
   82SAPS  H12A 7619   2.114   2.497  10.992 -0.9721  2.5285  2.0015
   82SAPS   C13 7620   2.165   2.689  10.929  0.6073  0.2408  0.0154
   82SAPS  O13A 7621   2.265   2.722  10.857 -1.0790 -0.5607  0.8842
   82SAPS  O13B 7622   2.142   2.739  11.038  0.3338 -0.4100 -0.1334
   82SAPS   C11 7623   1.951   2.579  10.868  0.9822 -0.1960 -1.3547
   82SAPS  H11A 7624   1.941   2.663  10.795  0.2205  1.1984  0.3024
   82SAPS  H11B 7625   1.909   2.602  10.968 -0.8175  0.0297 -2.1505
   82SAPS     P 7626   1.734   2.431  10.852 -0.2014  0.0325  0.1348
   82SAPS   O13 7627   1.727   2.305  10.928 -0.3535 -0.1658 -0.4425
   82SAPS   O14 7628   1.675   2.553  10.905  0.3370  0.1134  0.6847
   82SAPS   O12 7629   1.888   2.456  10.817  0.1126  0.0748 -0.1685
   82SAPS   O11 7630   1.660   2.411  10.719  0.0695 -0.3670  0.2373
   82SAPS    C1 7631   1.733   2.346  10.611  0.0929 -0.5849 -0.3418
   82SAPS    HA 7632   1.792   2.260  10.647 -0.0583 -0.2252  0.7832
   82SAPS    HB 7633   1.654   2.306  10.544  0.1886  0.1411 -0.8978
   82SAPS    C2 7634   1.822   2.441  10.516  0.0448  1.5042  0.5193
   82SAPS    HS 7635   1.855   2.521  10.586  1.4342  0.0514  1.5476
   82SAPS   O21 7636   1.739   2.491  10.411  0.4496 -0.1014 -0.4653
   82SAPS   C21 7637   1.633   2.574  10.445 -0.5224  0.3503  0.5132
   82SAPS   O22 7638   1.611   2.623  10.554  0.4401  0.1832 -0.1354
   82SAPS   C22 7639   1.549   2.596  10.325 -0.3843  0.2969 -0.0288
   82SAPS   H2R 7640   1.546   2.510  10.254 -3.7262  0.1567  0.1933
   82SAPS   H2S 7641   1.452   2.611  10.378 -0.9361 -3.3232  0.1164
   82SAPS    C3 7642   1.949   2.368  10.462 -0.4926  1.2882  0.0982
   82SAPS    HX 7643   1.903   2.287  10.401 -0.7236  0.9235  0.7468
   82SAPS    HY 7644   2.005   2.320  10.546 -1.4174  0.2402  0.1368
   82SAPS   O31 7645   2.028   2.454  10.382 -0.0184  0.6595 -0.0011
   82SAPS   C31 7646   2.091   2.552  10.433  0.1097  0.4418 -0.6877
   82SAPS   O32 7647   2.093   2.584  10.553 -0.4653  0.3296 -0.2786
   82SAPS   C32 7648   2.153   2.635  10.317  0.0918 -0.2437 -0.1196
   82SAPS   H2X 7649   2.180   2.555  10.244 -0.8337 -2.4633  1.8972
   82SAPS   H2Y 7650   2.240   2.684  10.365  0.0567  0.7320 -1.0310
   82SAPS   C23 7651   1.572   2.736  10.266  0.5854 -0.2833  0.3441
   82SAPS   H3R 7652   1.679   2.753  10.243  0.3716  0.0347 -0.4185
   82SAPS   H3S 7653   1.538   2.815  10.337  0.1688 -1.3116  1.3093
   82SAPS   C24 7654   1.499   2.765  10.132  0.3188  0.0157  0.0812
   82SAPS   H4R 7655   1.555   2.736  10.041 -0.9109 -1.0327 -0.3575
   82SAPS   H4S 7656   1.501   2.876  10.130  0.7445 -0.0058 -0.6918
   82SAPS   C25 7657   1.356   2.724  10.125  0.2843  0.2551 -0.4203
   82SAPS   H5R 7658   1.341   2.636  10.061  1.7082 -0.2157 -0.1383
   82SAPS   C26 7659   1.259   2.765  10.202  0.6085 -0.8954  0.2280
   82SAPS   H6R 7660   1.159   2.729  10.175 -0.6196  0.4331  2.8195
   82SAPS   C27 7661   1.258   2.866  10.302  0.0422 -0.1627  0.3392
   82SAPS   H7R 7662   1.309   2.954  10.257 -1.6967  0.2097 -0.9537
   82SAPS   H7S 7663   1.328   2.844  10.386  2.1772  2.3959 -0.6740
   82SAPS   C28 7664   1.123   2.914  10.344  0.5800  0.2871 -0.4153
   82SAPS   H8R 7665   1.082   2.850  10.424 -0.2060 -1.6969 -2.3410
   82SAPS   C29 7666   1.042   3.003  10.298 -0.1199  0.1353 -0.1025
   82SAPS   H9R 7667   0.938   3.007  10.334 -0.1826  2.3289 -0.4162
   82SAPS  C210 7668   1.063   3.091  10.179  0.0785 -0.2101 -0.1448
   82SAPS  H10R 7669   1.163   3.077  10.131  0.7458  0.4048  1.0316
   82SAPS  H10S 7670   1.072   3.193  10.224 -1.7732  0.5881 -1.5198
   82SAPS  C211 7671   0.948   3.086  10.077 -0.0592  0.2761  0.0592
   82SAPS  H11R 7672   0.846   3.113  10.108  1.1456  5.1570  0.2431
   82SAPS  C212 7673   0.958   3.039   9.954 -0.1898  0.3880  0.3223
   82SAPS  H12R 7674   0.872   3.024   9.887  2.5393  1.5779 -3.5767
   82SAPS  C213 7675   1.083   2.986   9.891  0.7938 -0.4761 -0.0315
   82SAPS  H13R 7676   1.122   2.912   9.964  0.6551 -0.5897 -0.0719
   82SAPS  H13S 7677   1.162   3.064   9.887 -0.0951  0.4012 -0.9350
   82SAPS  C214 7678   1.061   2.936   9.755  0.6021 -0.9236  0.3710
   82SAPS  H14R 7679   1.021   3.020   9.696 -0.3431  0.6109  3.0776
   82SAPS  C215 7680   1.062   2.811   9.701  0.1309 -0.1484 -0.2102
   82SAPS  H15R 7681   1.047   2.801   9.592 -1.9830 -1.0234  0.1296
   82SAPS  C216 7682   1.095   2.676   9.767 -0.2582  0.7048  0.3663
   82SAPS  H16R 7683   1.113   2.704   9.873  0.1326  2.8404 -0.2348
   82SAPS  H16S 7684   1.180   2.628   9.713  0.6978  1.2322  1.3984
   82SAPS  C217 7685   0.996   2.556   9.777  0.5093 -0.0019 -0.0970
   82SAPS  H17R 7686   0.897   2.581   9.821  0.1808 -1.5346  0.0602
   82SAPS  H17S 7687   1.042   2.475   9.838  2.4500  0.1614 -1.3068
   82SAPS  C218 7688   0.976   2.482   9.639  0.3650  0.0723  0.6484
   82SAPS  H18R 7689   0.945   2.560   9.566  1.5510 -1.0587 -1.1059
   82SAPS  H18S 7690   0.898   2.407   9.660 -0.6646  1.2516  1.0935
   82SAPS  C219 7691   1.094   2.410   9.585  0.3326 -0.4902  0.0680
   82SAPS  H19R 7692   1.150   2.348   9.658 -2.1877 -0.5401  2.0480
   82SAPS  H19S 7693   1.173   2.482   9.556  1.3153 -1.7716 -0.4891
   82SAPS  C220 7694   1.075   2.334   9.450  0.0417 -0.0172 -0.7907
   82SAPS  H20R 7695   0.998   2.254   9.450  0.8692 -0.8117  0.1186
   82SAPS  H20S 7696   1.172   2.286   9.425  0.3064  0.1560 -0.0898
   82SAPS  H20T 7697   1.048   2.404   9.367  1.8994  1.0823 -0.4845
   82SAPS   C33 7698   2.066   2.746  10.254  0.5125  0.4610 -0.3132
   82SAPS   H3X 7699   2.121   2.799  10.173  0.9314  0.0214 -0.3187
   82SAPS   H3Y 7700   2.036   2.822  10.329 -1.8420  1.5776 -2.3184
   82SAPS   C34 7701   1.934   2.701  10.178  0.1698  0.3883 -0.5161
   82SAPS   H4X 7702   1.887   2.789  10.129  1.2275  2.0135  1.2995
   82SAPS   H4Y 7703   1.868   2.674  10.264  0.4973 -0.8842 -0.6451
   82SAPS   C35 7704   1.937   2.579  10.093 -0.6734  0.4596 -0.2712
   82SAPS   H5X 7705   1.955   2.483  10.144  1.5316 -0.7132 -3.0880
   82SAPS   H5Y 7706   2.025   2.595  10.028 -0.8583 -2.3490 -1.2895
   82SAPS   C36 7707   1.801   2.566  10.009 -0.2346  0.4854 -0.0341
   82SAPS   H6X 7708   1.806   2.656   9.945  0.8132  0.4908  0.0487
   82SAPS   H6Y 7709   1.724   2.574  10.089  0.4265 -0.1387  0.6706
   82SAPS   C37 7710   1.780   2.429   9.952 -0.1554  0.4515  0.7447
   82SAPS   H7X 7711   1.685   2.436   9.895 -0.8318 -2.0411  1.4706
   82SAPS   H7Y 7712   1.768   2.343  10.021 -2.3986  0.9259  1.0037
   82SAPS   C38 7713   1.900   2.375   9.860 -0.2558 -0.6684 -1.2241
   82SAPS   H8X 7714   1.875   2.279   9.809 -0.3950 -0.3105 -1.8306
   82SAPS   H8Y 7715   1.991   2.367   9.923 -1.6800 -0.1331  0.9388
   82SAPS   C39 7716   1.931   2.465   9.736  0.0406  0.2470  1.2194
   82SAPS   H9X 7717   1.998   2.545   9.774  2.0189  0.1539 -1.8575
   82SAPS   H9Y 7718   1.842   2.514   9.691 -1.0715 -1.6638  1.3029
   82SAPS  C310 7719   2.003   2.387   9.632  0.4961 -0.1213 -0.9990
   82SAPS  H10X 7720   1.937   2.301   9.606  1.9095 -1.5848  0.1825
   82SAPS  H10Y 7721   2.103   2.351   9.662 -0.4992 -1.4114  0.8976
   82SAPS  C311 7722   2.036   2.454   9.496  0.6407  0.2341  0.4522
   82SAPS  H11X 7723   2.100   2.545   9.504 -3.6964  3.6601 -1.7420
   82SAPS  H11Y 7724   1.938   2.478   9.451  1.4240  1.2061 -0.7842
   82SAPS  C312 7725   2.108   2.355   9.400  0.7966 -0.4534 -0.4158
   82SAPS  H12X 7726   2.125   2.255   9.444 -0.0792  0.2919  1.6823
   82SAPS  H12Y 7727   2.210   2.397   9.385  0.6227  0.9013  1.9010
   82SAPS  C313 7728   2.041   2.348   9.256 -0.5913 -0.0533 -0.0103
   82SAPS  H13X 7729   2.000   2.444   9.219 -4.7996 -1.4512  0.7498
   82SAPS  H13Y 7730   1.948   2.288   9.266 -0.4054 -0.4534 -0.6050
   82SAPS  C314 7731   2.131   2.293   9.154 -0.3675 -0.1845 -0.0310
   82SAPS  H14X 7732   2.172   2.197   9.190  3.1146  0.9153 -0.9457
   82SAPS  H14Y 7733   2.220   2.353   9.126  0.8667 -2.9107 -2.1348
   82SAPS  C315 7734   2.055   2.272   9.023 -0.1075 -0.1661  0.2599
   82SAPS  H15X 7735   1.964   2.210   9.034  0.6157 -1.2102  0.3628
   82SAPS  H15Y 7736   2.119   2.207   8.959  1.3324  0.8446  0.6475
   82SAPS  C316 7737   2.024   2.405   8.947  0.1052 -0.1051 -0.5737
   82SAPS  H16X 7738   2.067   2.401   8.845  2.1592 -1.3244  0.3133
   82SAPS  H16Y 7739   2.077   2.483   9.006 -0.2069  0.4739 -1.0453
   82SAPS  C317 7740   1.873   2.435   8.936 -0.2957 -0.6039 -0.5298
   82SAPS  H17X 7741   1.834   2.426   9.039 -0.1821  0.6112 -0.3702
   82SAPS  H17Y 7742   1.835   2.350   8.876  0.1110  0.3246 -2.1262
   82SAPS  C318 7743   1.834   2.568   8.869  0.4723 -0.4761  0.2989
   82SAPS  H18X 7744   1.893   2.649   8.915  1.6245 -1.3427  0.3882
   82SAPS  H18Y 7745   1.727   2.592   8.880  0.6436  0.8060 -0.7659
   82SAPS  H18Z 7746   1.860   2.554   8.762 -2.4270  0.0008 -0.4997
   83SAPS     N 7747   3.454   3.898  11.397  0.2452 -0.5399  0.4726
   83SAPS   HN1 7748   3.545   3.931  11.360  0.2656 -0.2181  0.8071
   83SAPS   HN2 7749   3.414   3.966  11.466  0.9508 -1.0866  1.4315
   83SAPS   HN3 7750   3.463   3.807  11.446  0.8069 -0.5190  0.4099
   83SAPS   C12 7751   3.375   3.870  11.280 -0.6634  0.1471  0.4583
   83SAPS  H12A 7752   3.414   3.795  11.213  1.2421  3.4973 -2.3638
   83SAPS   C13 7753   3.234   3.812  11.327 -0.2823 -0.4713 -0.1116
   83SAPS  O13A 7754   3.213   3.805  11.451  0.0286  0.0366  0.0483
   83SAPS  O13B 7755   3.156   3.758  11.245  0.6146 -0.3922  0.3513
   83SAPS   C11 7756   3.365   4.002  11.193 -0.0753 -0.6801  0.0222
   83SAPS  H11A 7757   3.322   4.078  11.261  1.2914  0.4335 -0.3225
   83SAPS  H11B 7758   3.293   3.976  11.113  0.6169  1.3135 -1.3000
   83SAPS     P 7759   3.568   4.006  11.026 -0.0252 -0.0184  0.2650
   83SAPS   O13 7760   3.686   4.090  10.997  0.1773  0.4082  0.7902
   83SAPS   O14 7761   3.588   3.861  11.032 -0.4834 -0.0873  0.2991
   83SAPS   O12 7762   3.499   4.046  11.156  0.3863 -0.0584  0.4521
   83SAPS   O11 7763   3.461   4.047  10.915  0.4859  0.3868  0.1964
   83SAPS    C1 7764   3.420   4.179  10.898 -0.5099 -0.5719 -0.3582
   83SAPS    HA 7765   3.335   4.192  10.968  0.1407  0.1226  0.3096
   83SAPS    HB 7766   3.494   4.255  10.931 -0.8476  0.5525 -2.1458
   83SAPS    C2 7767   3.378   4.230  10.752 -0.7331  0.6036  0.1115
   83SAPS    HS 7768   3.350   4.336  10.769 -3.5057 -0.5983  3.6285
   83SAPS   O21 7769   3.267   4.157  10.700 -0.0118  0.0811  0.3237
   83SAPS   C21 7770   3.148   4.186  10.741  0.0451 -0.4353  0.6765
   83SAPS   O22 7771   3.120   4.276  10.822 -0.6057 -0.0259  0.3750
   83SAPS   C22 7772   3.040   4.086  10.696  0.5750  0.2452  0.4374
   83SAPS   H2R 7773   3.089   3.986  10.697 -0.4872 -0.2801  0.4663
   83SAPS   H2S 7774   2.955   4.084  10.768  0.8291 -1.3022  0.7143
   83SAPS    C3 7775   3.493   4.217  10.646 -0.4748  0.0746 -0.4162
   83SAPS    HX 7776   3.520   4.109  10.650  2.1622  0.6318 -2.0076
   83SAPS    HY 7777   3.573   4.286  10.678 -1.5761  2.6965 -3.0473
   83SAPS   O31 7778   3.441   4.254  10.514 -0.7553  0.4255  0.8485
   83SAPS   C31 7779   3.529   4.241  10.417  0.4544  1.1687  0.8154
   83SAPS   O32 7780   3.644   4.191  10.426 -0.3536  0.8913 -0.4731
   83SAPS   C32 7781   3.460   4.284  10.285  0.4143  0.5851 -0.3564
   83SAPS   H2X 7782   3.416   4.384  10.304 -1.8243 -0.6190  1.0433
   83SAPS   H2Y 7783   3.373   4.217  10.267  1.5974 -0.8149 -0.9988
   83SAPS   C23 7784   2.994   4.118  10.555 -0.3501  0.0783  0.1177
   83SAPS   H3R 7785   3.084   4.162  10.507 -0.6025  0.0774 -0.3554
   83SAPS   H3S 7786   2.924   4.204  10.553 -0.5447  0.0063  2.4045
   83SAPS   C24 7787   2.968   4.002  10.466  0.7122 -0.0025 -0.7625
   83SAPS   H4R 7788   3.053   3.931  10.476 -0.5262 -1.6221 -1.5965
   83SAPS   H4S 7789   2.956   4.022  10.358 -1.5096  0.1809 -0.4998
   83SAPS   C25 7790   2.846   3.923  10.504  0.1887 -0.0163 -0.3889
   83SAPS   H5R 7791   2.748   3.972  10.497  0.4026  0.5955  0.6919
   83SAPS   C26 7792   2.848   3.795  10.551 -0.0493  0.3954 -0.0695
   83SAPS   H6R 7793   2.753   3.746  10.576  0.3973  0.3445  1.5615
   83SAPS   C27 7794   2.969   3.716  10.578  0.2419  0.6912 -0.1354
   83SAPS   H7R 7795   3.038   3.786  10.629  2.0291 -0.0918 -1.4423
   83SAPS   H7S 7796   3.012   3.681  10.482  1.1980 -0.0582  0.5520
   83SAPS   C28 7797   2.972   3.602  10.677  0.8006  0.0391  0.2598
   83SAPS   H8R 7798   2.974   3.630  10.784  2.3011  0.5710  0.1085
   83SAPS   C29 7799   3.003   3.474  10.661 -0.6989 -0.4860 -0.5216
   83SAPS   H9R 7800   3.005   3.414  10.753  0.9157  1.8948  1.0553
   83SAPS  C210 7801   3.047   3.422  10.525  0.1765  0.1228  0.6992
   83SAPS  H10R 7802   3.135   3.358  10.546 -0.3532 -0.6643  0.5519
   83SAPS  H10S 7803   3.090   3.497  10.455  1.9954 -0.6052  1.0159
   83SAPS  C211 7804   2.942   3.346  10.446  0.5013 -0.4550  0.0933
   83SAPS  H11R 7805   2.859   3.401  10.399  0.4740 -0.8302 -0.3083
   83SAPS  C212 7806   2.932   3.213  10.427  0.0909  1.3304  0.4511
   83SAPS  H12R 7807   2.853   3.181  10.358 -0.4883 -0.6726  1.9860
   83SAPS  C213 7808   3.027   3.111  10.478 -0.6153 -0.7385 -0.1112
   83SAPS  H13R 7809   2.986   3.072  10.573  1.5733 -0.2035  1.1032
   83SAPS  H13S 7810   3.124   3.154  10.512  0.1698 -2.0170 -0.6611
   83SAPS  C214 7811   3.042   2.986  10.383  0.3541 -0.1945 -0.1454
   83SAPS  H14R 7812   2.943   2.940  10.366  1.0632 -2.2830  1.0831
   83SAPS  C215 7813   3.144   2.920  10.333 -0.4925 -0.8460 -1.0842
   83SAPS  H15R 7814   3.137   2.823  10.281  0.7295 -2.1104  1.0461
   83SAPS  C216 7815   3.286   2.971  10.362  0.3055 -0.3734  0.0182
   83SAPS  H16R 7816   3.315   2.984  10.468  1.3957 -3.0949  0.0708
   83SAPS  H16S 7817   3.306   3.072  10.319 -0.2711  0.1195  0.8930
   83SAPS  C217 7818   3.390   2.871  10.303 -0.4199 -0.8232 -0.6287
   83SAPS  H17R 7819   3.387   2.776  10.361 -1.3356  0.0211  0.7327
   83SAPS  H17S 7820   3.491   2.915  10.323 -1.0358 -0.9138  2.9713
   83SAPS  C218 7821   3.383   2.833  10.155 -0.2659 -0.2607  0.6074
   83SAPS  H18R 7822   3.374   2.925  10.093  2.5399  0.3325  0.9908
   83SAPS  H18S 7823   3.293   2.771  10.137 -1.0403  1.0513 -0.1095
   83SAPS  C219 7824   3.513   2.776  10.108 -0.1799 -0.0162 -0.2331
   83SAPS  H19R 7825   3.564   2.713  10.185 -2.0242 -1.2431  0.0099
   83SAPS  H19S 7826   3.576   2.864  10.085  1.8876 -1.9853 -2.3680
   83SAPS  C220 7827   3.495   2.704   9.982 -0.3580 -0.2291 -0.1120
   83SAPS  H20R 7828   3.596   2.687   9.939 -0.4495 -0.0872 -0.3788
   83SAPS  H20S 7829   3.431   2.767   9.917 -0.5107 -1.0648 -0.7820
   83SAPS  H20T 7830   3.444   2.606   9.987 -1.2144  0.2449  0.4450
   83SAPS   C33 7831   3.551   4.294  10.163  0.3107  0.2480  0.1137
   83SAPS   H3X 7832   3.614   4.202  10.161  1.5084  1.0304  1.1672
   83SAPS   H3Y 7833   3.623   4.377  10.178 -1.0104  1.5002 -0.4048
   83SAPS   C34 7834   3.479   4.328  10.027 -0.3977  0.1283 -0.4113
   83SAPS   H4X 7835   3.408   4.414  10.037  0.1489  0.7630 -1.9432
   83SAPS   H4Y 7836   3.410   4.245  10.002  0.0304 -1.1384  2.3979
   83SAPS   C35 7837   3.576   4.344   9.913 -0.2659  0.0426  0.6240
   83SAPS   H5X 7838   3.648   4.259   9.914 -0.4058 -0.0650  2.2276
   83SAPS   H5Y 7839   3.639   4.433   9.934 -0.2053 -0.0273  0.7369
   83SAPS   C36 7840   3.513   4.369   9.772 -0.2071 -0.4461  0.4207
   83SAPS   H6X 7841   3.447   4.458   9.763 -1.2380 -1.2901 -0.4839
   83SAPS   H6Y 7842   3.447   4.281   9.756  1.5708 -1.5622 -0.8693
   83SAPS   C37 7843   3.614   4.361   9.661 -0.2520 -0.4640 -0.1488
   83SAPS   H7X 7844   3.648   4.255   9.654 -1.8003 -0.9078 -1.3166
   83SAPS   H7Y 7845   3.704   4.414   9.698 -0.7497  0.2968 -0.0261
   83SAPS   C38 7846   3.574   4.413   9.527 -1.1801  0.5404 -0.6653
   83SAPS   H8X 7847   3.598   4.521   9.520  0.7571  0.2819  1.5902
   83SAPS   H8Y 7848   3.465   4.401   9.508 -1.6568  1.6331  1.2565
   83SAPS   C39 7849   3.641   4.335   9.410 -0.2494  0.2599 -0.0387
   83SAPS   H9X 7850   3.582   4.346   9.316  2.2121  2.1976 -1.4195
   83SAPS   H9Y 7851   3.619   4.230   9.440 -1.6768  0.0671 -1.6560
   83SAPS  C310 7852   3.784   4.356   9.383 -0.7232  0.3238 -0.4151
   83SAPS  H10X 7853   3.839   4.350   9.480 -0.4385 -0.8331 -0.6413
   83SAPS  H10Y 7854   3.795   4.463   9.359 -0.5179  0.5121  0.4822
   83SAPS  C311 7855   3.846   4.258   9.284 -0.5461 -0.1358  0.3658
   83SAPS  H11X 7856   3.836   4.157   9.330 -0.2782  0.5077  1.8570
   83SAPS  H11Y 7857   3.955   4.275   9.288 -0.8227  1.2757  2.9737
   83SAPS  C312 7858   3.798   4.271   9.143 -0.1847 -0.0935  0.6482
   83SAPS  H12X 7859   3.884   4.311   9.087  1.4512 -2.4653  1.4040
   83SAPS  H12Y 7860   3.711   4.338   9.124 -0.4667 -1.2003 -2.1561
   83SAPS  C313 7861   3.757   4.144   9.074  0.0903 -0.0050 -0.0297
   83SAPS  H13X 7862   3.675   4.099   9.135 -0.8246 -0.6914 -1.7236
   83SAPS  H13Y 7863   3.838   4.068   9.068 -0.6136 -1.0818  3.1191
   83SAPS  C314 7864   3.707   4.160   8.927 -0.1981 -0.0342  0.7146
   83SAPS  H14X 7865   3.785   4.217   8.872  1.0702 -1.0202  1.4549
   83SAPS  H14Y 7866   3.612   4.217   8.926  0.5995  1.3104  0.4518
   83SAPS  C315 7867   3.681   4.030   8.853 -0.2302 -0.0139  0.0882
   83SAPS  H15X 7868   3.585   3.998   8.900 -0.1678 -0.0777  0.1693
   83SAPS  H15Y 7869   3.759   3.953   8.872 -2.2083 -2.6537 -2.0102
   83SAPS  C316 7870   3.658   4.063   8.709  0.3746  0.2207 -0.5101
   83SAPS  H16X 7871   3.755   4.105   8.674  0.0419 -0.8712 -2.8788
   83SAPS  H16Y 7872   3.590   4.148   8.687 -0.6202 -0.0391  1.5013
   83SAPS  C317 7873   3.618   3.940   8.620  0.2174 -0.0700 -0.0905
   83SAPS  H17X 7874   3.526   3.886   8.652  1.3911 -1.3518  1.2529
   83SAPS  H17Y 7875   3.702   3.868   8.629 -0.2054 -0.4877  0.6181
   83SAPS  C318 7876   3.610   3.995   8.478  0.0833  0.5159  0.4820
   83SAPS  H18X 7877   3.523   4.062   8.467  0.0701  0.3367 -0.5519
   83SAPS  H18Y 7878   3.581   3.917   8.404 -2.2249 -0.2736  2.1537
   83SAPS  H18Z 7879   3.699   4.053   8.446 -0.2178 -1.4176 -4.3262
   84SAPS     N 7880   4.837   4.104  11.251  0.3830  0.0667  0.3108
   84SAPS   HN1 7881   4.792   4.059  11.333 -1.3408  1.7244  0.3061
   84SAPS   HN2 7882   4.782   4.184  11.213  2.5026  0.1493 -2.7299
   84SAPS   HN3 7883   4.843   4.035  11.174 -0.7548  1.9355 -1.4859
   84SAPS   C12 7884   4.974   4.138  11.296 -1.1112  0.0305  0.1513
   84SAPS  H12A 7885   4.990   4.230  11.241 -1.0423  0.9121  1.6084
   84SAPS   C13 7886   4.986   4.160  11.449 -0.4464  0.0660 -0.5238
   84SAPS  O13A 7887   4.895   4.123  11.519  0.0376 -1.0527 -0.3010
   84SAPS  O13B 7888   5.094   4.208  11.496 -0.3980  0.1014 -0.4229
   84SAPS   C11 7889   5.070   4.027  11.257  0.8715  0.0534  0.0465
   84SAPS  H11A 7890   5.034   3.931  11.301  0.1195  0.5131  0.4300
   84SAPS  H11B 7891   5.175   4.037  11.294  0.9292  0.6643 -0.2858
   84SAPS     P 7892   5.160   4.112  11.023 -0.3067 -0.8316 -0.0400
   84SAPS   O13 7893   5.063   4.212  10.973 -0.1346 -0.1482  0.1081
   84SAPS   O14 7894   5.281   4.161  11.090  0.1324  0.0682 -0.0273
   84SAPS   O12 7895   5.079   4.013  11.116  0.2816  0.5276  0.2134
   84SAPS   O11 7896   5.197   4.019  10.899  0.0374 -0.1311 -0.4509
   84SAPS    C1 7897   5.096   3.937  10.842  0.2360  0.8196 -0.5064
   84SAPS    HA 7898   5.118   3.835  10.880  0.9328  0.6988 -1.2161
   84SAPS    HB 7899   4.991   3.959  10.869 -0.2603 -0.1919 -1.5476
   84SAPS    C2 7900   5.107   3.923  10.691  0.5709 -0.2255  0.0174
   84SAPS    HS 7901   5.206   3.897  10.650  0.3095 -0.9054 -0.1903
   84SAPS   O21 7902   5.072   4.048  10.625  0.3628  0.2439 -0.6999
   84SAPS   C21 7903   5.176   4.132  10.632  0.4890  0.1462 -0.8062
   84SAPS   O22 7904   5.290   4.101  10.646  0.3142 -0.5954  0.6855
   84SAPS   C22 7905   5.116   4.282  10.637 -0.0523  0.1252  0.0817
   84SAPS   H2R 7906   5.017   4.283  10.586  0.8649 -0.3799 -1.8000
   84SAPS   H2S 7907   5.100   4.314  10.742 -0.4356  1.4809 -0.3844
   84SAPS    C3 7908   5.014   3.809  10.655  0.1925 -1.1715  0.3773
   84SAPS    HX 7909   4.919   3.830  10.708 -0.5259  0.9712 -1.6425
   84SAPS    HY 7910   5.066   3.721  10.698  2.9634  0.4875  0.5603
   84SAPS   O31 7911   4.993   3.793  10.507 -0.0265  0.3382 -0.4504
   84SAPS   C31 7912   5.090   3.734  10.449 -0.0935 -0.1878 -0.2361
   84SAPS   O32 7913   5.187   3.679  10.500 -0.1955 -0.1186 -0.3695
   84SAPS   C32 7914   5.056   3.730  10.298  0.0019 -0.5339  0.3628
   84SAPS   H2X 7915   5.123   3.798  10.241 -1.0087  1.4193  1.4339
   84SAPS   H2Y 7916   4.953   3.769  10.284 -0.6246 -1.7907  1.4776
   84SAPS   C23 7917   5.220   4.378  10.557  0.0703 -0.0031 -0.1044
   84SAPS   H3R 7918   5.222   4.338  10.453  1.2287 -0.1532 -0.0225
   84SAPS   H3S 7919   5.327   4.370  10.586 -1.0237  0.2113  4.4269
   84SAPS   C24 7920   5.169   4.523  10.545 -0.0676  0.3468 -0.0023
   84SAPS   H4R 7921   5.154   4.569  10.645  0.2236 -0.2305  0.3101
   84SAPS   H4S 7922   5.067   4.525  10.502 -0.0493 -0.7589 -0.1090
   84SAPS   C25 7923   5.253   4.607  10.454 -0.2637 -0.4409  0.5984
   84SAPS   H5R 7924   5.342   4.655  10.496  1.4430 -0.4337 -2.7875
   84SAPS   C26 7925   5.235   4.630  10.323  0.6313  0.2524 -0.0963
   84SAPS   H6R 7926   5.303   4.706  10.282  1.0619 -0.4255 -0.6501
   84SAPS   C27 7927   5.128   4.566  10.237  0.4774 -0.1484  0.1017
   84SAPS   H7R 7928   5.113   4.459  10.259  1.1792 -0.3727 -0.4870
   84SAPS   H7S 7929   5.167   4.578  10.133 -1.2886 -0.8179 -0.6559
   84SAPS   C28 7930   4.993   4.629  10.243 -0.0755 -0.1143 -0.0144
   84SAPS   H8R 7931   4.976   4.706  10.319  2.2899  1.1037 -0.6588
   84SAPS   C29 7932   4.890   4.597  10.169  0.4327  0.0084 -0.3585
   84SAPS   H9R 7933   4.798   4.656  10.159  0.2108 -0.2792 -0.0409
   84SAPS  C210 7934   4.904   4.492  10.058 -0.3447 -0.4121  0.1377
   84SAPS  H10R 7935   4.811   4.432  10.052  0.9852 -2.3559 -1.6699
   84SAPS  H10S 7936   4.985   4.417  10.067  0.3185  0.1782 -0.8502
   84SAPS  C211 7937   4.924   4.562   9.928  0.2692  0.0744 -0.3697
   84SAPS  H11R 7938   4.988   4.651   9.939  1.3472 -0.5206 -1.6637
   84SAPS  C212 7939   4.883   4.514   9.808  0.3966 -0.4980  0.1065
   84SAPS  H12R 7940   4.912   4.567   9.716 -0.7309  0.8438  0.5042
   84SAPS  C213 7941   4.818   4.382   9.787  0.6307 -0.8597  0.2290
   84SAPS  H13R 7942   4.783   4.340   9.884  1.7740 -0.5203  0.8027
   84SAPS  H13S 7943   4.894   4.309   9.751  0.6823 -1.4796  1.5853
   84SAPS  C214 7944   4.696   4.370   9.697  0.3438 -0.3468 -0.2476
   84SAPS  H14R 7945   4.603   4.357   9.754  0.4551  2.0025  0.4787
   84SAPS  C215 7946   4.713   4.393   9.562 -0.9268  0.2177  0.0978
   84SAPS  H15R 7947   4.623   4.385   9.499 -0.6720 -0.2703 -0.2096
   84SAPS  C216 7948   4.836   4.428   9.485 -0.1431  0.1194  0.0225
   84SAPS  H16R 7949   4.927   4.395   9.539  0.9200  0.2142 -1.6569
   84SAPS  H16S 7950   4.844   4.537   9.463  1.0141  0.8106  3.6369
   84SAPS  C217 7951   4.841   4.340   9.359  0.0694 -0.1146 -0.4822
   84SAPS  H17R 7952   4.919   4.382   9.292 -0.1274  0.7280 -0.1866
   84SAPS  H17S 7953   4.744   4.358   9.307 -0.1908  0.5586  0.2376
   84SAPS  C218 7954   4.874   4.194   9.393  0.5098 -0.3061  0.3113
   84SAPS  H18R 7955   4.821   4.153   9.482  0.4353  1.2859  1.0323
   84SAPS  H18S 7956   4.983   4.188   9.414  0.6205 -1.1048 -0.4923
   84SAPS  C219 7957   4.862   4.116   9.262 -0.0956  0.3202  0.2802
   84SAPS  H19R 7958   4.934   4.032   9.277  1.0299  1.3842  0.8970
   84SAPS  H19S 7959   4.896   4.183   9.180  0.9066  0.3632  0.7237
   84SAPS  C220 7960   4.718   4.057   9.240 -0.5393 -0.9654  0.4638
   84SAPS  H20R 7961   4.640   4.136   9.246  1.2298  1.1093 -2.5285
   84SAPS  H20S 7962   4.698   3.976   9.314  1.1552 -0.7237  1.1883
   84SAPS  H20T 7963   4.706   4.016   9.138  3.3676 -2.0369  0.3621
   84SAPS   C33 7964   5.086   3.590  10.229  0.2912  0.4110 -0.8201
   84SAPS   H3X 7965   5.022   3.517  10.283 -0.2069 -0.2221 -2.2371
   84SAPS   H3Y 7966   5.192   3.578  10.260  0.1040  0.8252  0.0058
   84SAPS   C34 7967   5.061   3.580  10.076 -0.0950  0.2456  0.8439
   84SAPS   H4X 7968   5.136   3.635  10.015 -1.5092  1.4958  0.2110
   84SAPS   H4Y 7969   4.971   3.636  10.044  0.9488  1.2825 -0.3510
   84SAPS   C35 7970   5.057   3.441  10.017 -0.5511 -0.1381  0.7486
   84SAPS   H5X 7971   5.156   3.398  10.047 -0.5179  1.1291  2.4984
   84SAPS   H5Y 7972   5.053   3.441   9.906 -0.1477 -0.9271  0.7297
   84SAPS   C36 7973   4.943   3.359  10.079 -0.0911 -0.7461 -0.5541
   84SAPS   H6X 7974   4.846   3.412  10.072  0.0436 -0.3800  0.2960
   84SAPS   H6Y 7975   4.954   3.337  10.188 -1.9711  4.0998  0.7472
   84SAPS   C37 7976   4.932   3.223  10.002 -0.2288 -0.1229 -0.0089
   84SAPS   H7X 7977   4.870   3.152  10.061 -1.4056 -0.3035 -1.4560
   84SAPS   H7Y 7978   5.031   3.173   9.996  1.8234  3.6016  0.6379
   84SAPS   C38 7979   4.882   3.248   9.863 -0.3246 -0.5716  0.9409
   84SAPS   H8X 7980   4.961   3.305   9.810 -2.2571  0.6133 -0.7582
   84SAPS   H8Y 7981   4.795   3.317   9.871  1.6638  2.1290  0.1818
   84SAPS   C39 7982   4.841   3.110   9.802 -0.2578  0.8403 -0.0258
   84SAPS   H9X 7983   4.767   3.056   9.865 -1.2353  0.3826 -1.5167
   84SAPS   H9Y 7984   4.931   3.045   9.800 -0.8765 -0.0167 -0.3424
   84SAPS  C310 7985   4.790   3.128   9.653 -0.1120  0.3622  0.6670
   84SAPS  H10X 7986   4.699   3.190   9.661  0.7750  1.6410  1.0671
   84SAPS  H10Y 7987   4.772   3.031   9.603  1.1417 -0.0472  0.9902
   84SAPS  C311 7988   4.888   3.198   9.559  0.8350  0.0175  0.6644
   84SAPS  H11X 7989   4.976   3.129   9.553  1.3708  0.6155  1.6140
   84SAPS  H11Y 7990   4.930   3.289   9.607  0.6850  0.7714 -0.6022
   84SAPS  C312 7991   4.847   3.233   9.419  0.2794 -0.6128 -0.4713
   84SAPS  H12X 7992   4.788   3.327   9.424 -0.3566 -0.9841 -1.0381
   84SAPS  H12Y 7993   4.798   3.143   9.376 -2.1663  0.1788  0.5667
   84SAPS  C313 7994   4.972   3.279   9.341 -0.1758 -0.6553 -0.3659
   84SAPS  H13X 7995   5.056   3.207   9.353  0.3877 -0.1303 -1.1594
   84SAPS  H13Y 7996   4.995   3.383   9.374 -2.2210  0.0955 -1.2324
   84SAPS  C314 7997   4.944   3.295   9.191  0.2950 -0.0761 -1.1694
   84SAPS  H14X 7998   5.020   3.356   9.138 -1.9775  2.4309 -1.6802
   84SAPS  H14Y 7999   4.844   3.345   9.187  0.4982  0.2968 -1.5984
   84SAPS  C315 8000   4.931   3.159   9.122 -0.2728 -1.0300 -0.3203
   84SAPS  H15X 8001   4.861   3.091   9.175 -1.4920 -0.3324 -1.0047
   84SAPS  H15Y 8002   5.031   3.111   9.121  0.4651  0.4747 -0.5589
   84SAPS  C316 8003   4.884   3.173   8.976 -0.1278 -0.4955 -0.5325
   84SAPS  H16X 8004   4.953   3.248   8.930  0.8076 -0.8108  0.3369
   84SAPS  H16Y 8005   4.781   3.213   8.968 -0.2693 -0.6872  0.3231
   84SAPS  C317 8006   4.890   3.042   8.893  0.3459 -0.2832 -0.5497
   84SAPS  H17X 8007   4.993   3.019   8.860  0.2735 -0.5555 -0.5849
   84SAPS  H17Y 8008   4.847   3.088   8.802  1.4465 -1.6671 -1.7865
   84SAPS  C318 8009   4.801   2.940   8.959  1.1294 -0.0606 -0.1459
   84SAPS  H18X 8010   4.704   2.989   8.985  0.2514 -1.2742 -1.0727
   84SAPS  H18Y 8011   4.842   2.886   9.047  0.6943 -0.0105  0.0887
   84SAPS  H18Z 8012   4.772   2.868   8.880  0.3343 -0.6895  0.7008
   85SAPS     N 8013   1.891   5.387  10.865 -0.4149  0.1252 -1.0078
   85SAPS   HN1 8014   1.903   5.288  10.836  1.9302  0.1168 -0.0816
   85SAPS   HN2 8015   1.793   5.398  10.899  0.3092 -0.2850  1.2996
   85SAPS   HN3 8016   1.899   5.462  10.792  0.8466 -0.6516 -1.6819
   85SAPS   C12 8017   1.968   5.422  10.983 -0.3409  0.2887  0.4608
   85SAPS  H12A 8018   1.947   5.526  11.002  2.0266  0.9639 -0.4739
   85SAPS   C13 8019   1.927   5.343  11.107  0.6775 -0.3037 -0.0094
   85SAPS  O13A 8020   1.821   5.273  11.101 -0.0505  0.0293  0.3652
   85SAPS  O13B 8021   1.979   5.378  11.213  0.4435 -0.5704  0.2776
   85SAPS   C11 8022   2.126   5.408  10.954  0.0528  0.4018  0.3636
   85SAPS  H11A 8023   2.163   5.304  10.956 -1.7436 -0.2553  0.4960
   85SAPS  H11B 8024   2.174   5.463  11.038  2.8606  0.6325 -1.3219
   85SAPS     P 8025   2.268   5.589  10.815  0.2051  0.0050 -0.0980
   85SAPS   O13 8026   2.255   5.662  10.687  0.2442 -0.6000 -0.0314
   85SAPS   O14 8027   2.252   5.665  10.942  0.2204 -0.2995  0.8594
   85SAPS   O12 8028   2.164   5.466  10.821 -0.1268 -0.0366 -0.5941
   85SAPS   O11 8029   2.404   5.518  10.832  0.0007  0.2054  0.2086
   85SAPS    C1 8030   2.513   5.527  10.736 -0.8265 -0.1884 -0.8740
   85SAPS    HA 8031   2.516   5.628  10.690  2.0467 -0.8631 -2.2294
   85SAPS    HB 8032   2.607   5.524  10.794  0.5624  0.6802 -3.0139
   85SAPS    C2 8033   2.526   5.408  10.632 -0.1776  1.0267  0.1750
   85SAPS    HS 8034   2.633   5.410  10.602 -0.3293 -0.1023 -0.4661
   85SAPS   O21 8035   2.437   5.426  10.519 -0.5971 -0.5871 -0.5476
   85SAPS   C21 8036   2.462   5.528  10.441  0.8919  0.0061  0.2705
   85SAPS   O22 8037   2.560   5.599  10.448 -0.2249  0.6668 -0.2831
   85SAPS   C22 8038   2.365   5.535  10.330  0.1013  0.0124  1.0036
   85SAPS   H2R 8039   2.386   5.450  10.260 -0.3255  0.3354  0.4738
   85SAPS   H2S 8040   2.262   5.527  10.372 -1.3534  1.8243 -2.0423
   85SAPS    C3 8041   2.507   5.274  10.708 -0.5427  0.5292 -1.4922
   85SAPS    HX 8042   2.404   5.277  10.749 -0.8969  0.0657 -2.3323
   85SAPS    HY 8043   2.590   5.271  10.782 -0.9119 -0.8361 -1.1318
   85SAPS   O31 8044   2.524   5.169  10.620 -0.0148  0.3649  0.4763
   85SAPS   C31 8045   2.413   5.115  10.557 -0.1511  0.8671 -0.4721
   85SAPS   O32 8046   2.297   5.145  10.580 -0.1770 -0.3663  0.0827
   85SAPS   C32 8047   2.466   5.022  10.454 -0.2913  0.2684  0.3514
   85SAPS   H2X 8048   2.510   4.929  10.496 -0.0580 -0.6293 -1.7819
   85SAPS   H2Y 8049   2.543   5.068  10.388 -1.3437  2.3401  0.5290
   85SAPS   C23 8050   2.372   5.677  10.253 -0.2494  0.9136  0.2535
   85SAPS   H3R 8051   2.478   5.691  10.223 -1.2924  1.5436 -3.3429
   85SAPS   H3S 8052   2.342   5.762  10.318 -1.2968 -0.2472  1.3152
   85SAPS   C24 8053   2.286   5.666  10.126 -0.4064 -0.0940  0.5023
   85SAPS   H4R 8054   2.293   5.576  10.061  0.8844 -0.0078  0.5103
   85SAPS   H4S 8055   2.320   5.754  10.067  3.4928  0.2953  3.1691
   85SAPS   C25 8056   2.145   5.708  10.148 -0.1312  0.5044  0.4189
   85SAPS   H5R 8057   2.116   5.685  10.251  1.4349 -0.4029  0.6782
   85SAPS   C26 8058   2.052   5.746  10.055  0.4374  0.5183 -0.2987
   85SAPS   H6R 8059   1.953   5.775  10.092 -0.5446 -1.4349 -1.3039
   85SAPS   C27 8060   2.076   5.752   9.906  0.2209 -0.6093 -0.3993
   85SAPS   H7R 8061   2.179   5.786   9.885  0.8626 -1.5250  1.1720
   85SAPS   H7S 8062   2.008   5.828   9.861 -1.3329 -0.1379  2.5724
   85SAPS   C28 8063   2.052   5.614   9.854  0.1544  0.2568 -0.6188
   85SAPS   H8R 8064   2.048   5.529   9.923  1.3319  0.1851 -0.6306
   85SAPS   C29 8065   2.030   5.588   9.724 -0.1571  0.1031 -0.1380
   85SAPS   H9R 8066   2.009   5.484   9.694 -0.5286  0.3060 -0.5957
   85SAPS  C210 8067   2.031   5.693   9.615  0.1557  0.4260 -0.7569
   85SAPS  H10R 8068   2.068   5.789   9.656 -0.9211 -0.7607  3.2362
   85SAPS  H10S 8069   1.924   5.707   9.588 -0.7693 -0.9367  2.0317
   85SAPS  C211 8070   2.114   5.664   9.493  0.0415 -0.4077 -1.2574
   85SAPS  H11R 8071   2.201   5.732   9.485  0.9640 -1.3220  0.6518
   85SAPS  C212 8072   2.093   5.567   9.402 -0.3381 -0.7398  0.5258
   85SAPS  H12R 8073   2.164   5.561   9.318 -0.3804 -1.3175  0.5271
   85SAPS  C213 8074   1.979   5.474   9.378 -0.4376  0.2977 -0.1366
   85SAPS  H13R 8075   1.931   5.446   9.474  0.3072  1.7129  0.6594
   85SAPS  H13S 8076   2.012   5.385   9.320  0.3475  0.9810 -0.7565
   85SAPS  C214 8077   1.871   5.551   9.313 -0.5240  0.3423 -0.2565
   85SAPS  H14R 8078   1.857   5.654   9.349  0.5196  0.0788  0.9704
   85SAPS  C215 8079   1.785   5.498   9.228 -0.5775 -1.1363 -0.0766
   85SAPS  H15R 8080   1.713   5.568   9.182  0.6296  1.3937  1.7406
   85SAPS  C216 8081   1.780   5.359   9.172  0.7189 -0.0070 -0.4383
   85SAPS  H16R 8082   1.699   5.306   9.227  1.9210 -0.7511  0.6689
   85SAPS  H16S 8083   1.877   5.307   9.191  1.3023  0.0333 -3.0980
   85SAPS  C217 8084   1.755   5.343   9.023  0.7194 -0.2249 -0.4236
   85SAPS  H17R 8085   1.668   5.408   9.001  1.7619 -0.0598 -4.6317
   85SAPS  H17S 8086   1.722   5.241   8.995 -0.6981 -0.0891  0.7349
   85SAPS  C218 8087   1.871   5.367   8.930  0.2506  0.2310  0.1028
   85SAPS  H18R 8088   1.953   5.296   8.953  1.5196  2.0734  1.4434
   85SAPS  H18S 8089   1.916   5.467   8.947  0.8113 -0.0660  0.3654
   85SAPS  C219 8090   1.840   5.352   8.783  0.5560  0.5758 -1.0269
   85SAPS  H19R 8091   1.752   5.403   8.740 -0.7968 -0.9448 -0.1156
   85SAPS  H19S 8092   1.820   5.243   8.775 -0.2678  0.3357  3.1522
   85SAPS  C220 8093   1.959   5.392   8.693  0.4386 -0.7766 -0.1669
   85SAPS  H20R 8094   2.036   5.311   8.692  1.5792  0.2991 -0.0733
   85SAPS  H20S 8095   1.999   5.490   8.726  1.7096 -0.7492 -1.7338
   85SAPS  H20T 8096   1.921   5.413   8.591  1.2836  0.6037 -0.1986
   85SAPS   C33 8097   2.341   4.988  10.367 -0.2688 -0.2954  0.3678
   85SAPS   H3X 8098   2.258   4.948  10.429 -2.7309  0.0351 -2.5891
   85SAPS   H3Y 8099   2.355   4.897  10.305 -2.3506 -0.5150  0.1752
   85SAPS   C34 8100   2.296   5.107  10.278  0.3252 -0.6660  0.3393
   85SAPS   H4X 8101   2.265   5.201  10.329  0.9802  0.4410 -1.2604
   85SAPS   H4Y 8102   2.205   5.068  10.226 -0.1394 -0.7644  1.2084
   85SAPS   C35 8103   2.398   5.146  10.164  1.0202  0.8271 -0.0537
   85SAPS   H5X 8104   2.437   5.055  10.114  4.0657  2.6037 -1.1023
   85SAPS   H5Y 8105   2.486   5.196  10.211  2.3562 -1.2559 -0.2786
   85SAPS   C36 8106   2.333   5.250  10.071 -0.0041 -0.3420 -0.1315
   85SAPS   H6X 8107   2.281   5.328  10.131  0.4681 -0.3500  0.2852
   85SAPS   H6Y 8108   2.255   5.196  10.012  1.4460  0.5051 -2.9090
   85SAPS   C37 8109   2.429   5.311   9.974  0.6448  0.2109  0.5545
   85SAPS   H7X 8110   2.510   5.351  10.038 -0.5712  0.5691  1.8887
   85SAPS   H7Y 8111   2.379   5.394   9.921 -0.1380  0.6732  1.9905
   85SAPS   C38 8112   2.495   5.227   9.858 -0.2689 -0.1445  0.4369
   85SAPS   H8X 8113   2.408   5.180   9.807 -1.0941 -0.6038  2.2294
   85SAPS   H8Y 8114   2.570   5.155   9.897  0.7678 -0.9456 -2.9243
   85SAPS   C39 8115   2.573   5.310   9.759 -0.0907 -0.5899  0.6066
   85SAPS   H9X 8116   2.611   5.404   9.804  0.5576 -0.2252 -0.6735
   85SAPS   H9Y 8117   2.506   5.345   9.678 -0.3299 -0.0194  1.0453
   85SAPS  C310 8118   2.690   5.244   9.693  0.1739  0.1495 -0.9112
   85SAPS  H10X 8119   2.662   5.140   9.667  1.1020 -0.9251  2.2533
   85SAPS  H10Y 8120   2.767   5.241   9.773 -0.9618  0.6314  0.2173
   85SAPS  C311 8121   2.747   5.323   9.576  0.3557 -0.0850 -0.1737
   85SAPS  H11X 8122   2.783   5.423   9.611  0.9145 -0.2841 -0.1893
   85SAPS  H11Y 8123   2.667   5.328   9.499  0.5349  0.3865 -0.3311
   85SAPS  C312 8124   2.864   5.255   9.501  0.1014 -0.0212  0.1359
   85SAPS  H12X 8125   2.830   5.156   9.463  0.8050 -0.0426 -0.4487
   85SAPS  H12Y 8126   2.947   5.241   9.574  0.0426 -2.6337 -0.2697
   85SAPS  C313 8127   2.912   5.339   9.381 -0.2475  0.1771 -0.2828
   85SAPS  H13X 8128   2.991   5.280   9.330 -0.0987  1.6894 -1.8412
   85SAPS  H13Y 8129   2.969   5.428   9.414 -1.2090  0.5105  0.4772
   85SAPS  C314 8130   2.813   5.374   9.267 -0.3822 -0.0209 -0.5108
   85SAPS  H14X 8131   2.737   5.449   9.298  0.0677  0.1691  0.1358
   85SAPS  H14Y 8132   2.769   5.278   9.233 -1.6271  0.5955 -0.6659
   85SAPS  C315 8133   2.878   5.441   9.138 -0.1154  0.5706  0.1860
   85SAPS  H15X 8134   2.977   5.391   9.129  0.4721  1.7392  0.0388
   85SAPS  H15Y 8135   2.905   5.546   9.162  1.4910 -0.2046  1.9223
   85SAPS  C316 8136   2.786   5.439   9.024  0.1191 -0.0786  0.0106
   85SAPS  H16X 8137   2.704   5.505   9.059  1.2848  1.5606 -0.2558
   85SAPS  H16Y 8138   2.761   5.333   9.001  1.7039 -0.8278  1.5610
   85SAPS  C317 8139   2.853   5.505   8.901  0.2294 -0.2099 -0.0179
   85SAPS  H17X 8140   2.896   5.603   8.930  0.2834  0.8030 -3.3331
   85SAPS  H17Y 8141   2.772   5.530   8.830 -0.9816 -2.1744  0.6490
   85SAPS  C318 8142   2.949   5.416   8.818  0.4142 -0.1370 -1.3124
   85SAPS  H18X 8143   3.015   5.375   8.898 -0.8871  0.1659 -0.0548
   85SAPS  H18Y 8144   3.004   5.479   8.744  1.4116  0.0381 -0.4424
   85SAPS  H18Z 8145   2.907   5.331   8.762  0.2695 -0.2670 -1.0069
   86SAPS     N 8146   4.332   5.639  11.172 -0.4242  0.6965 -0.7890
   86SAPS   HN1 8147   4.373   5.669  11.263  0.3507 -0.9620 -0.5787
   86SAPS   HN2 8148   4.394   5.572  11.124 -3.8361 -1.7386 -2.0140
   86SAPS   HN3 8149   4.307   5.717  11.108  0.6514  1.1107 -0.7072
   86SAPS   C12 8150   4.210   5.567  11.215 -0.5109 -0.7322  0.0820
   86SAPS  H12A 8151   4.244   5.465  11.225  0.3396 -0.4565  0.0028
   86SAPS   C13 8152   4.153   5.602  11.342  0.6722 -0.0118  0.1826
   86SAPS  O13A 8153   4.197   5.698  11.410 -0.1133  0.7876 -0.0092
   86SAPS  O13B 8154   4.042   5.547  11.373 -0.4264  0.3651 -0.1377
   86SAPS   C11 8155   4.107   5.580  11.098  0.1736  0.8574 -0.2366
   86SAPS  H11A 8156   4.011   5.548  11.143  0.1160 -0.4713 -1.2966
   86SAPS  H11B 8157   4.141   5.503  11.026 -0.3685  0.1771  0.2268
   86SAPS     P 8158   3.996   5.738  10.924  0.1029 -0.0437  0.4933
   86SAPS   O13 8159   3.856   5.713  10.973 -0.0082 -0.6843  0.0442
   86SAPS   O14 8160   4.026   5.872  10.871  0.1159 -1.0590  0.1606
   86SAPS   O12 8161   4.097   5.707  11.042  0.4791 -0.6129 -0.2502
   86SAPS   O11 8162   4.030   5.627  10.818 -0.1101  0.6749 -0.2056
   86SAPS    C1 8163   4.153   5.626  10.748 -0.2590  0.6931  0.1313
   86SAPS    HA 8164   4.224   5.705  10.781 -2.8706  3.7262 -1.1623
   86SAPS    HB 8165   4.202   5.529  10.769  0.1768  1.0331  0.7065
   86SAPS    C2 8166   4.132   5.658  10.596  0.3285 -0.2372  0.1930
   86SAPS    HS 8167   4.098   5.764  10.586 -0.6122 -0.6260 -0.8460
   86SAPS   O21 8168   4.032   5.565  10.549 -0.6055  0.2189  0.1652
   86SAPS   C21 8169   3.952   5.617  10.452  0.0514 -0.7903 -0.6227
   86SAPS   O22 8170   3.948   5.738  10.432  0.4239  0.0142 -0.2105
   86SAPS   C22 8171   3.853   5.517  10.394  0.2739 -0.2905 -0.0240
   86SAPS   H2R 8172   3.911   5.431  10.354 -0.1945  0.0673 -1.4946
   86SAPS   H2S 8173   3.782   5.482  10.472  1.5078 -0.0104  1.2403
   86SAPS    C3 8174   4.267   5.646  10.528  0.0418 -0.0141 -0.1813
   86SAPS    HX 8175   4.298   5.540  10.543  0.0811 -0.2057 -1.6265
   86SAPS    HY 8176   4.343   5.708  10.580  2.3662 -0.7637 -2.5943
   86SAPS   O31 8177   4.247   5.672  10.387 -0.0611  0.5997  0.2410
   86SAPS   C31 8178   4.266   5.799  10.344 -0.3620 -0.9805  0.3943
   86SAPS   O32 8179   4.291   5.891  10.423  0.1198  0.3733  0.6626
   86SAPS   C32 8180   4.253   5.818  10.191 -0.0994 -0.7047  0.6189
   86SAPS   H2X 8181   4.318   5.903  10.164  0.1245 -1.0879 -0.0567
   86SAPS   H2Y 8182   4.149   5.855  10.179 -0.0019 -0.4405  0.5751
   86SAPS   C23 8183   3.765   5.582  10.280  0.3036 -0.0969  0.9275
   86SAPS   H3R 8184   3.711   5.663  10.334  1.2163  1.4451 -0.4315
   86SAPS   H3S 8185   3.686   5.520  10.231  0.5382 -0.0026  0.4193
   86SAPS   C24 8186   3.833   5.658  10.166 -0.2011 -0.4133 -0.0156
   86SAPS   H4R 8187   3.922   5.718  10.195 -0.7679  1.5466 -2.0928
   86SAPS   H4S 8188   3.766   5.741  10.134 -0.1273  0.1329  1.2392
   86SAPS   C25 8189   3.873   5.567  10.055  1.0167  0.1906 -0.0889
   86SAPS   H5R 8190   3.934   5.482  10.088 -0.5560 -0.9875 -0.1127
   86SAPS   C26 8191   3.853   5.584   9.925  0.0604 -0.1969  0.8228
   86SAPS   H6R 8192   3.889   5.497   9.868  0.0467 -1.4231  2.6410
   86SAPS   C27 8193   3.772   5.688   9.851  0.7019 -0.3652 -0.2404
   86SAPS   H7R 8194   3.835   5.773   9.816  0.3857  0.9852  2.3282
   86SAPS   H7S 8195   3.704   5.743   9.920  0.4459 -1.7901  0.6571
   86SAPS   C28 8196   3.693   5.640   9.734 -0.1815  0.3202 -0.5985
   86SAPS   H8R 8197   3.589   5.611   9.752 -0.1742  0.7648  0.2038
   86SAPS   C29 8198   3.739   5.605   9.618 -0.4446 -0.7082  0.9419
   86SAPS   H9R 8199   3.663   5.570   9.548 -1.5904  0.5030  1.5666
   86SAPS  C210 8200   3.876   5.617   9.558  0.4922 -1.0355 -0.4876
   86SAPS  H10R 8201   3.954   5.606   9.636  1.3010 -1.2710 -1.3253
   86SAPS  H10S 8202   3.887   5.720   9.518 -1.4992  0.1113  1.8031
   86SAPS  C211 8203   3.895   5.526   9.442 -0.3509  0.4252  0.6115
   86SAPS  H11R 8204   3.951   5.437   9.475 -3.8013 -1.1510  2.4752
   86SAPS  C212 8205   3.869   5.548   9.312  0.2226  0.0243 -0.2707
   86SAPS  H12R 8206   3.910   5.473   9.242  2.4319  1.7482 -0.8998
   86SAPS  C213 8207   3.802   5.673   9.252 -0.1433 -0.4562  0.3036
   86SAPS  H13R 8208   3.880   5.740   9.211 -0.5068 -0.0787  0.2254
   86SAPS  H13S 8209   3.737   5.728   9.324  0.6765  2.3489 -1.0305
   86SAPS  C214 8210   3.699   5.620   9.152 -0.1076  0.1340  0.3802
   86SAPS  H14R 8211   3.639   5.534   9.185 -1.0331 -0.1658 -2.0400
   86SAPS  C215 8212   3.679   5.687   9.036  1.0406  0.5373  0.8594
   86SAPS  H15R 8213   3.589   5.659   8.979  2.7283 -1.9346 -0.7028
   86SAPS  C216 8214   3.748   5.813   8.980 -0.5184 -0.4992 -0.7778
   86SAPS  H16R 8215   3.827   5.781   8.909  0.1786 -0.5572  0.0260
   86SAPS  H16S 8216   3.806   5.869   9.057  0.1868 -0.7447 -1.1288
   86SAPS  C217 8217   3.664   5.915   8.904 -0.2284  0.0638 -0.3643
   86SAPS  H17R 8218   3.597   5.971   8.972 -1.3601 -1.7723  0.0708
   86SAPS  H17S 8219   3.591   5.865   8.837 -0.3314 -1.1906  0.6743
   86SAPS  C218 8220   3.742   6.003   8.805 -0.5285 -0.5375 -0.2906
   86SAPS  H18R 8221   3.666   6.060   8.746 -0.5556  1.6448  1.7625
   86SAPS  H18S 8222   3.808   5.950   8.733 -0.8900  0.5124 -1.4125
   86SAPS  C219 8223   3.838   6.107   8.870 -0.6889 -0.3738  0.0918
   86SAPS  H19R 8224   3.931   6.056   8.904 -1.3254 -1.0441  0.8711
   86SAPS  H19S 8225   3.791   6.141   8.964  1.4563 -0.6049  1.2806
   86SAPS  C220 8226   3.867   6.232   8.781 -0.2708 -0.1519 -0.9154
   86SAPS  H20R 8227   3.935   6.309   8.821 -3.0871  2.4870 -1.0018
   86SAPS  H20S 8228   3.773   6.282   8.747 -1.1278 -1.3243 -0.3038
   86SAPS  H20T 8229   3.905   6.193   8.684  0.7501 -0.5837 -0.3436
   86SAPS   C33 8230   4.306   5.707  10.099  0.5125 -0.0068 -0.2713
   86SAPS   H3X 8231   4.281   5.604  10.132  2.2955 -0.7857 -1.2220
   86SAPS   H3Y 8232   4.417   5.704  10.096  0.6463 -0.3325  3.0827
   86SAPS   C34 8233   4.242   5.727   9.964 -0.8018 -0.1598  0.0919
   86SAPS   H4X 8234   4.139   5.689   9.974 -0.6146 -0.5076  0.7727
   86SAPS   H4Y 8235   4.296   5.660   9.893  2.2991 -1.4375  3.4696
   86SAPS   C35 8236   4.251   5.873   9.897 -0.1921 -0.5943 -0.1971
   86SAPS   H5X 8237   4.359   5.895   9.882 -0.3259  0.6776  0.6236
   86SAPS   H5Y 8238   4.191   5.950   9.950 -1.5678 -0.9855 -1.1626
   86SAPS   C36 8239   4.190   5.866   9.757  0.2355 -0.2767 -0.9077
   86SAPS   H6X 8240   4.150   5.961   9.714 -1.3777 -0.1050  0.9052
   86SAPS   H6Y 8241   4.107   5.793   9.770 -1.7466  1.8551 -1.2389
   86SAPS   C37 8242   4.286   5.832   9.643 -0.2373 -0.0168  0.5767
   86SAPS   H7X 8243   4.360   5.752   9.664 -0.5500 -0.2400  0.8186
   86SAPS   H7Y 8244   4.348   5.923   9.629  2.1123 -1.8565 -1.5693
   86SAPS   C38 8245   4.210   5.809   9.509  0.3526 -0.2280  0.0148
   86SAPS   H8X 8246   4.135   5.889   9.491  1.8016  1.4428  1.2953
   86SAPS   H8Y 8247   4.162   5.709   9.509  1.1474 -0.6176  0.1923
   86SAPS   C39 8248   4.301   5.805   9.384  0.1002  0.6805 -0.4248
   86SAPS   H9X 8249   4.347   5.704   9.388  0.0429  0.7064  1.0684
   86SAPS   H9Y 8250   4.367   5.894   9.387 -0.3444  0.9480  1.7465
   86SAPS  C310 8251   4.225   5.806   9.254 -0.5221 -0.3028  0.0126
   86SAPS  H10X 8252   4.140   5.876   9.244 -0.3245 -0.1101 -0.3234
   86SAPS  H10Y 8253   4.187   5.703   9.236 -0.2780 -0.2018 -1.1039
   86SAPS  C311 8254   4.309   5.862   9.139 -0.0113  0.1064  0.0251
   86SAPS  H11X 8255   4.407   5.810   9.148 -0.2369 -0.9323 -2.8819
   86SAPS  H11Y 8256   4.323   5.968   9.167 -0.7090 -0.5462  2.9798
   86SAPS  C312 8257   4.242   5.861   9.001 -0.6026 -0.4033 -0.3488
   86SAPS  H12X 8258   4.285   5.945   8.942  0.2229  0.1105  0.9572
   86SAPS  H12Y 8259   4.133   5.882   9.002 -0.1970  1.9043 -1.8133
   86SAPS  C313 8260   4.273   5.729   8.915 -0.4035  0.2711  0.5043
   86SAPS  H13X 8261   4.220   5.645   8.966  0.8143  1.3341  3.5815
   86SAPS  H13Y 8262   4.378   5.696   8.930 -0.8175 -1.1730  0.2858
   86SAPS  C314 8263   4.241   5.734   8.764 -0.1829  0.2672 -0.0567
   86SAPS  H14X 8264   4.327   5.775   8.706  0.6778  1.1880  1.8176
   86SAPS  H14Y 8265   4.155   5.798   8.738 -0.5870 -0.5337 -0.7170
   86SAPS  C315 8266   4.212   5.588   8.729  0.6481  0.1313  0.3570
   86SAPS  H15X 8267   4.141   5.538   8.798 -1.6261  0.2313 -1.8451
   86SAPS  H15Y 8268   4.303   5.524   8.727  0.5425  0.0144 -0.8080
   86SAPS  C316 8269   4.139   5.577   8.600 -0.2441  1.0094  0.2591
   86SAPS  H16X 8270   4.040   5.628   8.600 -0.5532  0.5885 -3.5622
   86SAPS  H16Y 8271   4.122   5.468   8.585  1.7539 -0.1103  5.1864
   86SAPS  C317 8272   4.218   5.640   8.483  0.1743  0.3260  0.1173
   86SAPS  H17X 8273   4.219   5.751   8.491  0.6873  0.4907 -1.9410
   86SAPS  H17Y 8274   4.153   5.626   8.394 -0.0278  0.6179  0.2168
   86SAPS  C318 8275   4.358   5.585   8.461 -0.0284 -0.0216 -0.0913
   86SAPS  H18X 8276   4.396   5.631   8.367 -3.7721  2.7045 -0.3987
   86SAPS  H18Y 8277   4.356   5.474   8.456  1.9112 -0.0960  0.2164
   86SAPS  H18Z 8278   4.417   5.610   8.552 -2.3463 -2.9301  2.2916
   87SAPS     N 8279   4.221   6.066  10.876 -0.5116 -0.3762  0.1876
   87SAPS   HN1 8280   4.142   5.998  10.888 -0.7473 -0.2108 -0.3685
   87SAPS   HN2 8281   4.210   6.138  10.802  0.3361  2.0099  2.3548
   87SAPS   HN3 8282   4.297   6.002  10.844 -1.0401 -1.6225  1.3976
   87SAPS   C12 8283   4.257   6.125  11.005  0.2179 -0.2179  0.0743
   87SAPS  H12A 8284   4.162   6.162  11.041 -1.6395 -2.3700 -2.3656
   87SAPS   C13 8285   4.315   6.029  11.108  0.2154  0.0022  0.1878
   87SAPS  O13A 8286   4.332   5.909  11.081  0.2651  0.0905  0.3801
   87SAPS  O13B 8287   4.366   6.074  11.210  0.0383  0.0755  0.6594
   87SAPS   C11 8288   4.361   6.244  10.966  0.4429 -0.3086  0.1273
   87SAPS  H11A 8289   4.460   6.210  10.927  0.7721  1.3665 -0.5187
   87SAPS  H11B 8290   4.375   6.294  11.064  0.5775  0.5670 -0.3407
   87SAPS     P 8291   4.371   6.490  10.862  0.1423 -0.1258 -0.0850
   87SAPS   O13 8292   4.288   6.580  10.788  0.1912  0.2648 -0.1253
   87SAPS   O14 8293   4.415   6.534  10.992 -0.0199  0.4167 -0.2713
   87SAPS   O12 8294   4.304   6.345  10.883 -0.0688  0.1539  0.3084
   87SAPS   O11 8295   4.501   6.453  10.777  0.0989  0.6219  0.7418
   87SAPS    C1 8296   4.561   6.552  10.691 -0.1420  0.3486 -0.7609
   87SAPS    HA 8297   4.541   6.656  10.724  1.7023  1.0571 -1.7799
   87SAPS    HB 8298   4.671   6.542  10.696 -0.3448 -1.9173 -0.5441
   87SAPS    C2 8299   4.514   6.532  10.547  0.2843 -0.1397  0.2234
   87SAPS    HS 8300   4.404   6.539  10.553  0.2653 -0.0934 -0.1803
   87SAPS   O21 8301   4.568   6.400  10.513  0.1438  0.8227  0.1110
   87SAPS   C21 8302   4.485   6.321  10.449 -0.0594 -0.0281  0.7366
   87SAPS   O22 8303   4.364   6.334  10.432 -0.3369  0.0145  0.1387
   87SAPS   C22 8304   4.564   6.214  10.375 -0.3282 -0.9216 -0.1304
   87SAPS   H2R 8305   4.672   6.239  10.366 -0.5692  0.0250 -0.4641
   87SAPS   H2S 8306   4.559   6.123  10.438  0.4889 -1.3413 -0.6500
   87SAPS    C3 8307   4.576   6.637  10.453  0.6944  0.1470 -0.4327
   87SAPS    HX 8308   4.684   6.611  10.456  1.0641  1.6275 -0.5279
   87SAPS    HY 8309   4.556   6.739  10.493  2.4185  0.4146 -0.2387
   87SAPS   O31 8310   4.520   6.618  10.324  0.2077 -0.3879 -0.4791
   87SAPS   C31 8311   4.416   6.682  10.286  0.3490  0.5076 -0.1397
   87SAPS   O32 8312   4.345   6.757  10.355  0.1249  0.3062  0.9255
   87SAPS   C32 8313   4.415   6.671  10.134  1.0305 -0.0392 -0.5418
   87SAPS   H2X 8314   4.378   6.570  10.104 -0.4581  0.1456  0.5896
   87SAPS   H2Y 8315   4.520   6.663  10.101  0.1796  0.6112 -3.5238
   87SAPS   C23 8316   4.509   6.159  10.243 -0.3044 -0.1867  0.8978
   87SAPS   H3R 8317   4.412   6.107  10.250  1.4035 -3.4857  1.0221
   87SAPS   H3S 8318   4.579   6.075  10.225 -1.7582 -0.8425 -1.9754
   87SAPS   C24 8319   4.510   6.269  10.133 -0.1814  0.0412  0.1273
   87SAPS   H4R 8320   4.613   6.308  10.120  0.6751 -1.8886  0.8471
   87SAPS   H4S 8321   4.431   6.339  10.167 -1.1111 -1.0515  0.2509
   87SAPS   C25 8322   4.484   6.178  10.011 -0.2051 -0.5528 -0.2671
   87SAPS   H5R 8323   4.402   6.105  10.021 -0.1181 -0.5616  0.3960
   87SAPS   C26 8324   4.541   6.183   9.885  0.6194 -0.6546 -0.2780
   87SAPS   H6R 8325   4.510   6.103   9.816 -1.4976  0.5140 -0.7362
   87SAPS   C27 8326   4.651   6.272   9.836  0.0262  0.6337  0.4377
   87SAPS   H7R 8327   4.698   6.313   9.927  1.8204  2.0679 -1.1023
   87SAPS   H7S 8328   4.603   6.363   9.793  0.6530  1.1478  0.8259
   87SAPS   C28 8329   4.749   6.204   9.736 -0.9793 -0.7424  0.1735
   87SAPS   H8R 8330   4.844   6.177   9.784 -1.2382 -1.8662  0.0628
   87SAPS   C29 8331   4.721   6.175   9.610 -0.5385 -0.1339 -0.3919
   87SAPS   H9R 8332   4.791   6.132   9.537 -1.2907 -2.2118  0.0803
   87SAPS  C210 8333   4.592   6.206   9.532 -0.2562 -0.2541 -0.4541
   87SAPS  H10R 8334   4.591   6.307   9.485 -0.5470  1.2272  2.5833
   87SAPS  H10S 8335   4.510   6.194   9.606 -0.4921 -2.5621 -1.0503
   87SAPS  C211 8336   4.563   6.097   9.439 -0.4052 -0.4008  0.4107
   87SAPS  H11R 8337   4.524   6.009   9.491 -3.2551  1.3567  1.3541
   87SAPS  C212 8338   4.576   6.099   9.306 -0.2951  0.0322 -0.1595
   87SAPS  H12R 8339   4.566   6.000   9.258  3.0827 -1.4795  2.1009
   87SAPS  C213 8340   4.617   6.212   9.213 -0.0083 -0.7490 -0.0636
   87SAPS  H13R 8341   4.652   6.303   9.267 -2.0380  0.1815 -0.2760
   87SAPS  H13S 8342   4.522   6.245   9.165 -1.0950 -1.6286  1.4155
   87SAPS  C214 8343   4.722   6.160   9.111  0.2690 -0.3631  0.1209
   87SAPS  H14R 8344   4.825   6.194   9.129  0.2820 -0.1000 -0.4443
   87SAPS  C215 8345   4.696   6.082   9.005  0.3344 -0.4752 -0.4413
   87SAPS  H15R 8346   4.781   6.031   8.956  0.7426 -1.3575  1.1767
   87SAPS  C216 8347   4.564   6.027   8.962  0.5337 -0.0811  0.6439
   87SAPS  H16R 8348   4.488   6.085   9.019 -0.1656 -0.8784  0.5283
   87SAPS  H16S 8349   4.547   5.918   8.978 -3.1588 -0.0860 -2.7588
   87SAPS  C217 8350   4.542   6.054   8.813 -0.0854  0.3165 -0.7191
   87SAPS  H17R 8351   4.565   6.162   8.801 -2.5632  1.1176  0.9883
   87SAPS  H17S 8352   4.432   6.040   8.800 -0.1435  0.2174 -0.1625
   87SAPS  C218 8353   4.629   5.976   8.711 -0.3624  0.2797 -0.1843
   87SAPS  H18R 8354   4.614   5.866   8.724 -1.5915  0.5247  0.5583
   87SAPS  H18S 8355   4.735   6.005   8.723 -0.3556  0.3825 -0.4765
   87SAPS  C219 8356   4.597   5.999   8.563  0.6034  0.4969  0.4357
   87SAPS  H19R 8357   4.670   5.941   8.502  1.7629 -0.4572  2.7064
   87SAPS  H19S 8358   4.616   6.107   8.544 -0.2169  0.6425  0.4224
   87SAPS  C220 8359   4.460   5.957   8.509  0.3498  0.0102  0.1023
   87SAPS  H20R 8360   4.445   5.998   8.407 -2.0092 -0.2540  0.3104
   87SAPS  H20S 8361   4.379   5.987   8.580 -0.8436 -2.3252 -0.2261
   87SAPS  H20T 8362   4.459   5.846   8.507  0.4817 -0.0120  1.3096
   87SAPS   C33 8363   4.351   6.790  10.060 -0.0059 -0.2655  0.0983
   87SAPS   H3X 8364   4.390   6.883  10.106 -1.4305  1.2302 -1.6359
   87SAPS   H3Y 8365   4.244   6.802  10.087 -0.0462 -0.5823  0.0820
   87SAPS   C34 8366   4.382   6.804   9.914 -0.2251  0.2577  0.4418
   87SAPS   H4X 8367   4.491   6.820   9.908 -0.4799  1.6768 -0.7793
   87SAPS   H4Y 8368   4.345   6.905   9.885  1.6853  0.7986 -0.1945
   87SAPS   C35 8369   4.328   6.692   9.820 -0.5312 -0.1329 -0.3143
   87SAPS   H5X 8370   4.221   6.671   9.838 -0.3643 -0.9094 -0.2079
   87SAPS   H5Y 8371   4.383   6.598   9.844  1.0601  0.9585  0.4310
   87SAPS   C36 8372   4.359   6.732   9.672  0.4349  0.3191 -0.2468
   87SAPS   H6X 8373   4.464   6.767   9.665  0.1707  0.7616 -2.3223
   87SAPS   H6Y 8374   4.296   6.823   9.665  0.6577  0.5066  0.1807
   87SAPS   C37 8375   4.331   6.625   9.566  0.2331  0.1294  0.7139
   87SAPS   H7X 8376   4.235   6.571   9.584  0.8457 -0.4753  2.2694
   87SAPS   H7Y 8377   4.407   6.544   9.561 -1.1805 -1.1386 -1.0576
   87SAPS   C38 8378   4.306   6.685   9.429 -0.0131  0.2804  0.1269
   87SAPS   H8X 8379   4.251   6.780   9.444  0.1483  0.7372 -2.0521
   87SAPS   H8Y 8380   4.246   6.606   9.379 -1.8773  1.7392  0.0269
   87SAPS   C39 8381   4.429   6.712   9.351 -1.3073 -0.2204  0.4376
   87SAPS   H9X 8382   4.504   6.630   9.354 -0.8263  0.2091  0.0672
   87SAPS   H9Y 8383   4.477   6.804   9.389 -3.3697  1.0182  0.0848
   87SAPS  C310 8384   4.387   6.734   9.200  0.0637  0.7577  0.4451
   87SAPS  H10X 8385   4.315   6.818   9.196 -1.0188 -0.2324 -1.3857
   87SAPS  H10Y 8386   4.339   6.643   9.159  3.1267 -0.0651 -1.5215
   87SAPS  C311 8387   4.525   6.754   9.129  0.3869  0.6285  0.2579
   87SAPS  H11X 8388   4.588   6.665   9.155 -0.4702  0.5680  2.2536
   87SAPS  H11Y 8389   4.576   6.838   9.180  0.9154  1.3113 -1.3801
   87SAPS  C312 8390   4.532   6.772   8.981  0.5909  1.6067 -0.1701
   87SAPS  H12X 8391   4.636   6.762   8.945 -0.1012  1.7594 -2.3086
   87SAPS  H12Y 8392   4.478   6.865   8.954 -0.9081  0.4088 -1.4365
   87SAPS  C313 8393   4.460   6.648   8.912 -0.3619 -0.7829  0.4258
   87SAPS  H13X 8394   4.355   6.632   8.944 -0.2498 -1.8350  0.2963
   87SAPS  H13Y 8395   4.509   6.553   8.944 -0.1437 -0.3238  1.4795
   87SAPS  C314 8396   4.459   6.656   8.759 -0.0888  1.1730 -0.8550
   87SAPS  H14X 8397   4.565   6.658   8.728 -0.2220  0.7342 -1.3247
   87SAPS  H14Y 8398   4.410   6.750   8.727  1.6038  2.4986  0.3633
   87SAPS  C315 8399   4.413   6.522   8.693  0.0697  0.1597 -0.4136
   87SAPS  H15X 8400   4.313   6.490   8.729  0.8622  0.3028  2.0033
   87SAPS  H15Y 8401   4.484   6.440   8.719  0.8099  1.4012  1.6249
   87SAPS  C316 8402   4.386   6.520   8.542  0.2287 -0.3045  0.0988
   87SAPS  H16X 8403   4.470   6.585   8.509 -0.4096  0.3268 -0.3054
   87SAPS  H16Y 8404   4.290   6.570   8.518  1.7176  2.6089  0.0579
   87SAPS  C317 8405   4.399   6.373   8.472 -0.0503  0.3248 -0.5435
   87SAPS  H17X 8406   4.309   6.318   8.506 -1.0632  1.9971 -0.4202
   87SAPS  H17Y 8407   4.488   6.319   8.511 -1.1834 -1.0303  0.2259
   87SAPS  C318 8408   4.393   6.371   8.321 -0.2135  0.2685 -0.3585
   87SAPS  H18X 8409   4.489   6.415   8.285  0.8411 -0.5952  1.3018
   87SAPS  H18Y 8410   4.295   6.418   8.297 -0.1572  0.8629  0.5337
   87SAPS  H18Z 8411   4.398   6.267   8.283 -0.1006  0.9085 -2.1143
   88SAPS     N 8412   6.339   4.484  10.944 -0.0391  0.4163  0.2560
   88SAPS   HN1 8413   6.265   4.552  10.969 -0.1102  0.2263  0.5569
   88SAPS   HN2 8414   6.300   4.391  10.969  1.1888 -0.0709  0.4086
   88SAPS   HN3 8415   6.436   4.501  10.978  0.5833  0.5470 -1.5011
   88SAPS   C12 8416   6.343   4.503  10.792 -0.1506  0.4915 -0.1599
   88SAPS  H12A 8417   6.340   4.404  10.748  1.1977  0.7030 -0.7619
   88SAPS   C13 8418   6.223   4.590  10.731 -0.1247 -0.7719  0.1262
   88SAPS  O13A 8419   6.126   4.612  10.809 -0.6118  0.1767  0.1713
   88SAPS  O13B 8420   6.238   4.652  10.625 -0.0775  0.3595 -0.8599
   88SAPS   C11 8421   6.489   4.564  10.770  0.3924 -0.0572 -0.0258
   88SAPS  H11A 8422   6.485   4.664  10.819  0.9283 -0.4781  0.8923
   88SAPS  H11B 8423   6.502   4.581  10.661  0.1829 -2.0919 -0.3801
   88SAPS     P 8424   6.691   4.407  10.735  0.3050 -0.3476  0.1731
   88SAPS   O13 8425   6.802   4.359  10.815  0.3563 -0.1307 -0.3194
   88SAPS   O14 8426   6.605   4.298  10.680 -0.0994 -0.0107 -0.3997
   88SAPS   O12 8427   6.601   4.500  10.835 -0.0755 -0.0637  0.5630
   88SAPS   O11 8428   6.742   4.502  10.621 -0.2507 -0.3490 -0.5181
   88SAPS    C1 8429   6.693   4.473  10.487 -0.1028 -0.0979 -0.3309
   88SAPS    HA 8430   6.682   4.364  10.469 -0.9167 -0.1961  0.7242
   88SAPS    HB 8431   6.592   4.517  10.477 -0.6724 -1.3239 -0.0108
   88SAPS    C2 8432   6.777   4.545  10.373 -0.7196 -0.4065  0.3187
   88SAPS    HS 8433   6.762   4.655  10.366  2.5569 -0.0404 -1.9734
   88SAPS   O21 8434   6.734   4.480  10.249  0.0909  0.1537  0.1810
   88SAPS   C21 8435   6.637   4.536  10.188 -1.1037 -0.4342 -0.8274
   88SAPS   O22 8436   6.569   4.629  10.226  0.0232  0.6130 -0.9684
   88SAPS   C22 8437   6.601   4.451  10.061 -0.3945 -0.3727 -0.0245
   88SAPS   H2R 8438   6.690   4.453   9.994 -1.0296 -1.3035 -0.9202
   88SAPS   H2S 8439   6.588   4.347  10.098 -0.0240 -0.1688  0.6857
   88SAPS    C3 8440   6.927   4.504  10.402  0.0644 -0.4187  0.4220
   88SAPS    HX 8441   6.925   4.396  10.428  1.7801 -1.1779 -2.3568
   88SAPS    HY 8442   6.970   4.554  10.491  0.8166 -1.1340  0.4601
   88SAPS   O31 8443   7.006   4.531  10.289 -0.2359 -0.5653 -0.1129
   88SAPS   C31 8444   7.126   4.464  10.282  0.6161  0.5185 -0.2100
   88SAPS   O32 8445   7.170   4.393  10.367  0.0187  0.1685 -0.8920
   88SAPS   C32 8446   7.185   4.483  10.138  0.1064  1.2507 -0.3163
   88SAPS   H2X 8447   7.232   4.584  10.146  1.2629  0.6340  0.7504
   88SAPS   H2Y 8448   7.099   4.473  10.068 -0.6272  3.5499  0.1876
   88SAPS   C23 8449   6.486   4.510   9.986 -0.9094 -0.1024 -0.8067
   88SAPS   H3R 8450   6.523   4.613   9.964  0.8589  0.3571  3.8200
   88SAPS   H3S 8451   6.397   4.522  10.052 -0.8341  0.7726 -0.8578
   88SAPS   C24 8452   6.440   4.435   9.863  0.0080 -0.2647  0.0151
   88SAPS   H4R 8453   6.353   4.490   9.820  1.3892  1.1660 -1.0343
   88SAPS   H4S 8454   6.412   4.332   9.894  0.1653  0.1241  1.4791
   88SAPS   C25 8455   6.539   4.418   9.751 -0.5162  0.0363 -0.2018
   88SAPS   H5R 8456   6.616   4.495   9.738 -1.1081  0.9090  1.3136
   88SAPS   C26 8457   6.519   4.325   9.657 -0.2037  0.2200  0.1317
   88SAPS   H6R 8458   6.594   4.311   9.579 -2.4186 -1.6568 -1.7456
   88SAPS   C27 8459   6.408   4.225   9.643 -0.1613  0.4242  0.6726
   88SAPS   H7R 8460   6.360   4.197   9.739  1.2687 -0.8256  1.0479
   88SAPS   H7S 8461   6.458   4.130   9.613 -0.6903  0.9563 -1.9508
   88SAPS   C28 8462   6.301   4.248   9.540 -0.1395 -0.2037 -0.2356
   88SAPS   H8R 8463   6.228   4.323   9.573  0.3029  0.0354  0.2028
   88SAPS   C29 8464   6.300   4.223   9.407  0.0429 -0.0036  0.1732
   88SAPS   H9R 8465   6.203   4.233   9.356  0.8702 -0.0488 -1.4445
   88SAPS  C210 8466   6.414   4.140   9.343  0.5602  0.6639 -0.0546
   88SAPS  H10R 8467   6.413   4.039   9.390 -0.6570  0.2945 -0.8431
   88SAPS  H10S 8468   6.507   4.179   9.388  1.3539 -1.9118  0.6721
   88SAPS  C211 8469   6.417   4.135   9.190 -0.2421  0.2746  0.5696
   88SAPS  H11R 8470   6.507   4.178   9.144  0.5487 -1.6896  0.2338
   88SAPS  C212 8471   6.320   4.087   9.105 -0.5108 -0.1671 -0.1056
   88SAPS  H12R 8472   6.337   4.106   8.998  0.1916  1.1633  0.2282
   88SAPS  C213 8473   6.187   4.019   9.144  0.3246  1.1449  0.7724
   88SAPS  H13R 8474   6.110   4.081   9.093  0.2439 -0.2586 -0.8440
   88SAPS  H13S 8475   6.173   4.029   9.254 -0.5972 -2.1113  1.0038
   88SAPS  C214 8476   6.183   3.878   9.094  0.3393 -0.1157  0.2197
   88SAPS  H14R 8477   6.279   3.823   9.090  0.0160 -0.6988  0.4472
   88SAPS  C215 8478   6.070   3.815   9.053 -0.0529  0.3837  0.0392
   88SAPS  H15R 8479   6.080   3.720   8.998  3.0453  0.2816  0.6790
   88SAPS  C216 8480   5.931   3.879   9.039 -0.0771  0.1722 -0.1661
   88SAPS  H16R 8481   5.927   3.976   9.094  0.4918 -0.9333  1.9183
   88SAPS  H16S 8482   5.858   3.821   9.099 -0.5045  0.7881 -0.0917
   88SAPS  C217 8483   5.885   3.893   8.890  1.0827  0.2332  0.0810
   88SAPS  H17R 8484   5.892   3.794   8.840 -0.4160  0.5444 -0.7824
   88SAPS  H17S 8485   5.964   3.954   8.842  1.7761  0.2770  1.2464
   88SAPS  C218 8486   5.742   3.951   8.870 -1.0559 -0.1299 -0.4430
   88SAPS  H18R 8487   5.742   4.032   8.947  2.7487 -1.6770  1.3319
   88SAPS  H18S 8488   5.666   3.874   8.897  0.5098 -1.3290  0.6819
   88SAPS  C219 8489   5.715   4.009   8.732  0.2012  0.7301 -0.2113
   88SAPS  H19R 8490   5.641   3.937   8.690  1.1700 -0.5307  0.2168
   88SAPS  H19S 8491   5.815   4.004   8.684  0.5709  2.1215  0.3771
   88SAPS  C220 8492   5.652   4.145   8.727  0.3338 -0.5027  0.4992
   88SAPS  H20R 8493   5.727   4.227   8.738  1.2183 -1.2006 -0.2966
   88SAPS  H20S 8494   5.580   4.162   8.810  2.2263  0.2324  2.0307
   88SAPS  H20T 8495   5.596   4.158   8.632 -1.8037  2.9440  2.1162
   88SAPS   C33 8496   7.301   4.384  10.090  0.0154 -0.5121  0.3387
   88SAPS   H3X 8497   7.256   4.282  10.089 -0.9059 -0.1278 -3.2965
   88SAPS   H3Y 8498   7.384   4.381  10.164  0.4284 -0.8141 -0.1351
   88SAPS   C34 8499   7.349   4.424   9.948 -0.3612 -0.3374 -0.6775
   88SAPS   H4X 8500   7.438   4.360   9.931 -1.1055 -1.4115 -0.5675
   88SAPS   H4Y 8501   7.376   4.532   9.949  0.7499 -0.5371 -4.0820
   88SAPS   C35 8502   7.253   4.396   9.834 -0.5524 -0.6274  0.1946
   88SAPS   H5X 8503   7.165   4.464   9.828  0.3439  0.2971 -3.5134
   88SAPS   H5Y 8504   7.222   4.290   9.847  0.4332 -0.9342  0.0624
   88SAPS   C36 8505   7.319   4.397   9.690  0.2362  0.5321 -0.1123
   88SAPS   H6X 8506   7.405   4.326   9.689  0.0813  0.3343  0.2432
   88SAPS   H6Y 8507   7.362   4.496   9.665  1.8601 -0.2114 -0.3071
   88SAPS   C37 8508   7.220   4.359   9.580 -0.3318 -0.0684  0.0643
   88SAPS   H7X 8509   7.153   4.441   9.549 -1.3244 -0.4832  1.0975
   88SAPS   H7Y 8510   7.166   4.266   9.610 -1.6824  1.3660  2.1533
   88SAPS   C38 8511   7.306   4.307   9.459  0.6503  0.2975  0.0571
   88SAPS   H8X 8512   7.374   4.225   9.489 -0.4900 -0.4968  0.5205
   88SAPS   H8Y 8513   7.364   4.395   9.425 -0.0795  0.4738 -0.7608
   88SAPS   C39 8514   7.221   4.270   9.343  0.2694  0.5516  0.4396
   88SAPS   H9X 8515   7.165   4.362   9.317  1.5192  0.5852 -2.2438
   88SAPS   H9Y 8516   7.155   4.181   9.349  1.7905 -0.5791  0.7303
   88SAPS  C310 8517   7.304   4.237   9.218  0.1062 -0.8583  1.2073
   88SAPS  H10X 8518   7.382   4.164   9.246  0.2362 -1.2053 -0.0126
   88SAPS  H10Y 8519   7.354   4.332   9.189 -1.4735 -1.0654 -2.5291
   88SAPS  C311 8520   7.218   4.178   9.105 -0.3981  0.2963  0.3287
   88SAPS  H11X 8521   7.197   4.075   9.141  2.0994 -0.2225  0.4190
   88SAPS  H11Y 8522   7.276   4.176   9.010 -2.4582 -1.5912 -0.9276
   88SAPS  C312 8523   7.080   4.242   9.082  0.1613 -0.1618  0.1260
   88SAPS  H12X 8524   7.091   4.348   9.052  2.8289 -1.4251 -3.7578
   88SAPS  H12Y 8525   7.027   4.229   9.179  0.3701  0.3602  0.3146
   88SAPS  C313 8526   6.993   4.174   8.971 -0.7522 -0.4715 -0.0865
   88SAPS  H13X 8527   7.009   4.065   8.984 -3.0825 -0.9130 -0.7301
   88SAPS  H13Y 8528   7.016   4.195   8.864  0.0372 -0.2518  0.1258
   88SAPS  C314 8529   6.846   4.208   9.001 -0.4467 -1.2701 -0.0223
   88SAPS  H14X 8530   6.836   4.222   9.111  2.0708  3.9984 -0.3185
   88SAPS  H14Y 8531   6.782   4.123   8.970 -1.6186 -0.3327 -0.1608
   88SAPS  C315 8532   6.799   4.339   8.936  0.1705 -0.8459 -0.0208
   88SAPS  H15X 8533   6.804   4.330   8.826  2.2105 -1.4629  0.1008
   88SAPS  H15Y 8534   6.865   4.424   8.961  2.9802 -2.7230 -0.8107
   88SAPS  C316 8535   6.664   4.383   8.981  0.0727  0.2828  0.2535
   88SAPS  H16X 8536   6.661   4.421   9.086  1.6100  0.1276  0.3562
   88SAPS  H16Y 8537   6.590   4.300   8.977  0.7492 -0.4107  1.5691
   88SAPS  C317 8538   6.613   4.490   8.886 -0.9377 -0.0759  0.0926
   88SAPS  H17X 8539   6.591   4.444   8.787 -1.6054 -1.4404  0.8529
   88SAPS  H17Y 8540   6.696   4.564   8.894 -0.2480 -1.0573  2.4468
   88SAPS  C318 8541   6.477   4.555   8.937  0.4717 -0.1705  0.1677
   88SAPS  H18X 8542   6.482   4.575   9.046 -1.1243 -1.8280  0.5497
   88SAPS  H18Y 8543   6.400   4.478   8.919  2.6672 -2.5186  0.5536
   88SAPS  H18Z 8544   6.439   4.642   8.879 -1.5401 -1.8793 -1.1174
   89SAPS     N 8545   5.732   6.722  10.565 -0.1252 -0.4368  0.1237
   89SAPS   HN1 8546   5.629   6.733  10.565 -0.1639 -0.8145 -0.2100
   89SAPS   HN2 8547   5.768   6.734  10.468 -0.7216 -3.1746 -0.4878
   89SAPS   HN3 8548   5.753   6.625  10.597  1.2100 -1.1601 -2.7708
   89SAPS   C12 8549   5.807   6.813  10.650  0.2246  0.2651 -0.2147
   89SAPS  H12A 8550   5.798   6.914  10.612 -1.1759  1.3667  2.9002
   89SAPS   C13 8551   5.763   6.812  10.797 -0.7342 -0.5247 -0.5533
   89SAPS  O13A 8552   5.651   6.760  10.834 -0.5272 -0.1730  0.1779
   89SAPS  O13B 8553   5.819   6.898  10.875 -0.8715  0.1294 -0.2522
   89SAPS   C11 8554   5.956   6.769  10.654 -0.6455 -0.2805 -1.1631
   89SAPS  H11A 8555   5.950   6.662  10.683  0.3333 -0.5245 -1.8487
   89SAPS  H11B 8556   6.013   6.829  10.728 -0.6542 -1.6404 -0.0225
   89SAPS     P 8557   6.169   6.781  10.517 -0.2349  0.0752  0.0490
   89SAPS   O13 8558   6.235   6.819  10.644 -0.0549 -0.0129  0.3186
   89SAPS   O14 8559   6.211   6.650  10.461  0.6925  0.5155  0.6555
   89SAPS   O12 8560   6.014   6.784  10.526 -0.6304 -0.3740  0.1206
   89SAPS   O11 8561   6.197   6.891  10.401  0.8185  0.7109 -0.6504
   89SAPS    C1 8562   6.135   7.020  10.421  0.7929 -0.0563  0.8285
   89SAPS    HA 8563   6.029   7.022  10.388  1.3066  0.1528 -0.8645
   89SAPS    HB 8564   6.137   7.056  10.525 -0.6874 -1.4818  1.3771
   89SAPS    C2 8565   6.205   7.133  10.330  0.0497  0.3709 -0.1332
   89SAPS    HS 8566   6.136   7.220  10.329 -1.6595 -0.8863  2.8822
   89SAPS   O21 8567   6.246   7.089  10.203  0.5065 -0.2049  0.0211
   89SAPS   C21 8568   6.145   7.046  10.126  0.0086 -0.3044  0.3487
   89SAPS   O22 8569   6.028   7.064  10.145  0.5901 -0.0273 -0.4589
   89SAPS   C22 8570   6.198   6.957  10.012 -0.1037  0.7897 -0.0043
   89SAPS   H2R 8571   6.264   6.885  10.063  0.6759  1.1442 -0.5055
   89SAPS   H2S 8572   6.116   6.893   9.973 -0.2908  0.0760  1.5330
   89SAPS    C3 8573   6.326   7.189  10.404 -0.2984  1.0509  0.4370
   89SAPS    HX 8574   6.406   7.113  10.414  0.4714  2.0316  1.7787
   89SAPS    HY 8575   6.281   7.202  10.505 -0.9379 -0.7639  0.4053
   89SAPS   O31 8576   6.374   7.316  10.358 -0.0596  0.0146  0.7692
   89SAPS   C31 8577   6.433   7.394  10.451  0.6463 -0.5162  0.4968
   89SAPS   O32 8578   6.457   7.367  10.567 -0.4559  0.2020  0.0341
   89SAPS   C32 8579   6.442   7.528  10.381  0.4242 -0.0177  0.2676
   89SAPS   H2X 8580   6.538   7.524  10.327 -0.7191 -0.1022 -1.8047
   89SAPS   H2Y 8581   6.461   7.605  10.459  0.3236 -0.7519  1.0225
   89SAPS   C23 8582   6.268   7.042   9.904  0.7905  0.0050  0.7868
   89SAPS   H3R 8583   6.347   7.101   9.956  2.6991 -0.5990 -1.3414
   89SAPS   H3S 8584   6.189   7.111   9.866 -0.0207 -1.6280 -0.5380
   89SAPS   C24 8585   6.333   6.965   9.789  0.0236  0.2043 -0.8518
   89SAPS   H4R 8586   6.256   6.900   9.742 -0.7515  1.9252 -1.9705
   89SAPS   H4S 8587   6.428   6.916   9.820 -0.7106 -0.3275  0.6218
   89SAPS   C25 8588   6.384   7.049   9.675 -0.5337 -0.7603 -0.0742
   89SAPS   H5R 8589   6.383   7.159   9.685 -1.0222 -0.6456 -1.3440
   89SAPS   C26 8590   6.425   7.005   9.555 -0.4978 -0.9063 -0.2679
   89SAPS   H6R 8591   6.456   7.073   9.474  0.1909  1.5864  2.0115
   89SAPS   C27 8592   6.419   6.862   9.508  0.1319  0.2343  0.8903
   89SAPS   H7R 8593   6.335   6.848   9.436  2.1434 -0.0195 -1.4961
   89SAPS   H7S 8594   6.406   6.788   9.589  0.6536 -0.5141  0.2937
   89SAPS   C28 8595   6.546   6.827   9.436 -0.4093 -0.2527 -0.2499
   89SAPS   H8R 8596   6.641   6.872   9.469  1.0994 -2.4824 -1.3954
   89SAPS   C29 8597   6.555   6.750   9.329 -0.2249 -0.0853  0.3796
   89SAPS   H9R 8598   6.654   6.718   9.293 -1.0406 -0.9436 -1.1901
   89SAPS  C210 8599   6.445   6.679   9.263  0.1219  0.1565  0.5623
   89SAPS  H10R 8600   6.365   6.742   9.218 -0.3653 -1.5415 -1.0248
   89SAPS  H10S 8601   6.399   6.610   9.337 -0.7370  0.3077  0.1825
   89SAPS  C211 8602   6.486   6.591   9.146 -0.0989 -0.3869  0.4978
   89SAPS  H11R 8603   6.593   6.566   9.144  0.1033  0.5198 -0.2096
   89SAPS  C212 8604   6.419   6.571   9.035  0.5599 -0.5888  0.4250
   89SAPS  H12R 8605   6.463   6.494   8.970  1.0857 -0.0241  0.1076
   89SAPS  C213 8606   6.281   6.618   8.984 -0.1988 -0.2232 -0.5387
   89SAPS  H13R 8607   6.224   6.656   9.072  2.0524  0.0124  0.8561
   89SAPS  H13S 8608   6.221   6.531   8.950  1.6219 -2.4533  1.8026
   89SAPS  C214 8609   6.284   6.727   8.882  0.6387  0.6759 -0.8295
   89SAPS  H14R 8610   6.366   6.800   8.889  2.5016 -1.4108 -0.4212
   89SAPS  C215 8611   6.205   6.748   8.773  0.2859  1.1596  0.0840
   89SAPS  H15R 8612   6.226   6.826   8.698 -1.5516  2.1183  0.5322
   89SAPS  C216 8613   6.091   6.654   8.736  0.2143  0.2677  0.4290
   89SAPS  H16R 8614   5.993   6.686   8.778  0.4767  2.0171 -0.2382
   89SAPS  H16S 8615   6.111   6.548   8.763 -0.1635  0.1454  0.2279
   89SAPS  C217 8616   6.075   6.655   8.581 -0.3014 -0.7497 -0.8621
   89SAPS  H17R 8617   6.155   6.585   8.550 -1.9460 -2.5502 -1.1499
   89SAPS  H17S 8618   6.086   6.752   8.527  1.2764 -0.1337  0.5091
   89SAPS  C218 8619   5.954   6.579   8.541 -0.0698 -0.3413 -0.0955
   89SAPS  H18R 8620   5.868   6.647   8.562 -0.5186 -0.0307 -2.8288
   89SAPS  H18S 8621   5.936   6.492   8.607  1.7189 -0.0843  0.7683
   89SAPS  C219 8622   5.959   6.518   8.401 -0.1830 -0.0304 -0.7270
   89SAPS  H19R 8623   6.037   6.439   8.394  1.5197  1.6516 -1.0272
   89SAPS  H19S 8624   5.990   6.594   8.327  0.1785  0.5113 -0.0267
   89SAPS  C220 8625   5.825   6.459   8.365 -0.1576 -0.0600  0.2363
   89SAPS  H20R 8626   5.786   6.399   8.451  2.2370 -0.8745  0.8008
   89SAPS  H20S 8627   5.824   6.409   8.266  2.4872  0.6561 -0.1751
   89SAPS  H20T 8628   5.755   6.544   8.353  3.0723  2.7711  0.8043
   89SAPS   C33 8629   6.326   7.570  10.283 -0.1036 -0.3329 -0.0408
   89SAPS   H3X 8630   6.337   7.680  10.273  1.9603 -0.3806  1.4764
   89SAPS   H3Y 8631   6.228   7.548  10.331  0.5426 -1.2484  0.8824
   89SAPS   C34 8632   6.328   7.515  10.140 -0.5354  0.1958 -0.0404
   89SAPS   H4X 8633   6.242   7.554  10.083 -0.9049  0.7739  0.9001
   89SAPS   H4Y 8634   6.322   7.404  10.147  0.5736  0.1293  0.0524
   89SAPS   C35 8635   6.456   7.540  10.053  0.4355  0.0197 -0.4740
   89SAPS   H5X 8636   6.555   7.513  10.095 -0.2576 -1.7354  0.0518
   89SAPS   H5Y 8637   6.470   7.646  10.023  1.7629  0.5536  1.9446
   89SAPS   C36 8638   6.442   7.459   9.918 -1.2937 -0.1816  0.1256
   89SAPS   H6X 8639   6.340   7.468   9.875 -1.7234 -2.4011  0.5885
   89SAPS   H6Y 8640   6.444   7.350   9.940 -1.0441  0.1548  1.7820
   89SAPS   C37 8641   6.536   7.508   9.810  0.0567 -0.2779 -0.0530
   89SAPS   H7X 8642   6.640   7.514   9.849  0.0459 -1.2526  0.1558
   89SAPS   H7Y 8643   6.508   7.610   9.776 -1.2536 -0.3186  0.8546
   89SAPS   C38 8644   6.537   7.412   9.693  0.1199 -0.0154  0.0402
   89SAPS   H8X 8645   6.432   7.382   9.674 -0.3452  1.9014 -0.4754
   89SAPS   H8Y 8646   6.584   7.317   9.726  0.3156  0.8829  2.4703
   89SAPS   C39 8647   6.591   7.466   9.561  0.4496  0.6340 -0.2318
   89SAPS   H9X 8648   6.682   7.407   9.540 -1.2883 -1.8324 -1.0741
   89SAPS   H9Y 8649   6.606   7.575   9.574 -0.2480  0.8077 -0.8721
   89SAPS  C310 8650   6.493   7.445   9.440  0.0186  0.2245 -0.2381
   89SAPS  H10X 8651   6.409   7.514   9.461  0.1241  0.3533 -0.2446
   89SAPS  H10Y 8652   6.458   7.339   9.434  0.7329  0.0307 -1.2852
   89SAPS  C311 8653   6.558   7.472   9.304 -0.8296  0.8711 -0.7935
   89SAPS  H11X 8654   6.648   7.409   9.285 -2.1150 -0.0352 -4.0686
   89SAPS  H11Y 8655   6.605   7.572   9.288  0.4114  0.3353 -0.6049
   89SAPS  C312 8656   6.460   7.437   9.196 -0.6087 -0.1885  0.4424
   89SAPS  H12X 8657   6.370   7.499   9.215 -0.3060  0.7957 -1.2700
   89SAPS  H12Y 8658   6.432   7.330   9.199  2.1310 -0.9709 -0.1146
   89SAPS  C313 8659   6.500   7.468   9.050  0.0394  0.6506  0.3805
   89SAPS  H13X 8660   6.575   7.396   9.011  0.9765  2.3207 -0.9774
   89SAPS  H13Y 8661   6.547   7.569   9.046  1.1690  0.0864 -1.2390
   89SAPS  C314 8662   6.382   7.464   8.952  0.1729 -0.0032 -1.0830
   89SAPS  H14X 8663   6.318   7.552   8.973 -1.1724 -0.7957 -1.7606
   89SAPS  H14Y 8664   6.314   7.379   8.977  0.7230  0.2029  1.2455
   89SAPS  C315 8665   6.404   7.473   8.802 -0.2299 -0.1868 -0.2595
   89SAPS  H15X 8666   6.308   7.464   8.747  0.4659  1.5733 -1.7884
   89SAPS  H15Y 8667   6.462   7.382   8.776  1.6970  0.1009  2.7709
   89SAPS  C316 8668   6.472   7.600   8.749  0.2032  0.3054 -0.2668
   89SAPS  H16X 8669   6.580   7.598   8.777  0.5135  0.4757 -1.4421
   89SAPS  H16Y 8670   6.418   7.688   8.789  0.3414  1.3018 -2.2045
   89SAPS  C317 8671   6.466   7.602   8.594 -0.4652 -0.3303  0.1722
   89SAPS  H17X 8672   6.543   7.672   8.555  0.2354 -1.5086 -0.5611
   89SAPS  H17Y 8673   6.365   7.640   8.567  0.0445 -0.0270 -1.3759
   89SAPS  C318 8674   6.492   7.471   8.522  0.3406  0.4108  0.7790
   89SAPS  H18X 8675   6.406   7.402   8.537 -0.0036  0.6929  0.1242
   89SAPS  H18Y 8676   6.593   7.435   8.551  0.5230  0.3041  0.0182
   89SAPS  H18Z 8677   6.497   7.498   8.414 -0.7860 -1.3090  0.2775
   90SAPS     N 8678   1.528   0.602  10.719  0.4824  0.0841  0.4792
   90SAPS   HN1 8679   1.540   0.502  10.692  0.7463  0.8506 -2.3270
   90SAPS   HN2 8680   1.433   0.606  10.762  0.6542  1.1599  0.7666
   90SAPS   HN3 8681   1.525   0.662  10.634  0.2224 -0.5356  0.0444
   90SAPS   C12 8682   1.617   0.649  10.827  0.5534  1.0348  0.0986
   90SAPS  H12A 8683   1.603   0.756  10.820  1.9759  1.1566 -1.2309
   90SAPS   C13 8684   1.599   0.592  10.970 -0.5817 -0.3691  0.0750
   90SAPS  O13A 8685   1.509   0.500  10.991  0.2555 -0.2753 -0.1007
   90SAPS  O13B 8686   1.666   0.653  11.061  0.0906  0.3094 -0.3081
   90SAPS   C11 8687   1.764   0.635  10.785 -0.4226  0.1589 -0.8174
   90SAPS  H11A 8688   1.797   0.532  10.810  1.3167  0.4236 -1.9417
   90SAPS  H11B 8689   1.830   0.700  10.846  1.3623 -1.2552 -1.1871
   90SAPS     P 8690   1.929   0.630  10.577  0.2085  0.2514 -0.2606
   90SAPS   O13 8691   2.036   0.720  10.622  0.4283 -0.3098 -1.0925
   90SAPS   O14 8692   1.960   0.488  10.604 -0.0510  0.5086 -0.2885
   90SAPS   O12 8693   1.787   0.663  10.646  0.0296  0.4647  0.3442
   90SAPS   O11 8694   1.899   0.656  10.428  0.0540  0.7263  0.3499
   90SAPS    C1 8695   1.779   0.622  10.369 -0.6578 -0.0442 -0.1349
   90SAPS    HA 8696   1.690   0.639  10.433 -1.3183 -2.3364 -0.3783
   90SAPS    HB 8697   1.769   0.676  10.272 -2.1783  0.6058  0.3628
   90SAPS    C2 8698   1.779   0.471  10.342 -0.6338 -0.2113 -0.6950
   90SAPS    HS 8699   1.779   0.427  10.443  1.2487 -0.7314 -0.8994
   90SAPS   O21 8700   1.887   0.436  10.260 -0.1716 -0.0631  0.5363
   90SAPS   C21 8701   1.905   0.305  10.268 -0.6151 -0.2914 -0.0490
   90SAPS   O22 8702   1.839   0.230  10.335  0.2982  0.0184  0.2944
   90SAPS   C22 8703   2.032   0.275  10.183  1.1950  0.0373  0.3177
   90SAPS   H2R 8704   2.110   0.350  10.209  0.1383  0.5412  2.0870
   90SAPS   H2S 8705   2.074   0.177  10.214 -0.3511 -0.2706  1.5069
   90SAPS    C3 8706   1.641   0.434  10.270  0.1145 -0.2893 -0.2695
   90SAPS    HX 8707   1.553   0.457  10.334  2.4901 -0.5832  3.2880
   90SAPS    HY 8708   1.639   0.323  10.274  1.9693 -0.3330  0.3080
   90SAPS   O31 8709   1.645   0.480  10.131 -0.2023 -0.4081 -0.4334
   90SAPS   C31 8710   1.574   0.591  10.114  0.7891  0.0584 -0.1889
   90SAPS   O32 8711   1.494   0.631  10.200  0.2406  0.0090 -0.6217
   90SAPS   C32 8712   1.606   0.657   9.981  0.7604 -1.0972  0.0360
   90SAPS   H2X 8713   1.666   0.588   9.919 -0.9395 -1.1436 -1.5866
   90SAPS   H2Y 8714   1.652   0.753  10.014 -0.2488 -1.0059  1.2539
   90SAPS   C23 8715   2.011   0.274  10.030  0.0562  0.0853  0.1260
   90SAPS   H3R 8716   2.105   0.301   9.977  0.3361 -0.8801  0.1273
   90SAPS   H3S 8717   1.933   0.352  10.015 -0.6970  0.1224  3.7385
   90SAPS   C24 8718   1.964   0.144   9.981  0.0581 -0.0299  0.4604
   90SAPS   H4R 8719   1.880   0.121  10.050  0.9514 -0.3232  1.4640
   90SAPS   H4S 8720   2.042   0.066   9.996  1.1099  1.3334  2.2990
   90SAPS   C25 8721   1.916   0.120   9.841  0.3350 -0.5226 -0.3027
   90SAPS   H5R 8722   1.963   0.028   9.805  2.0731 -0.5911  2.0247
   90SAPS   C26 8723   1.810   0.170   9.784  0.3012  0.2154  0.2126
   90SAPS   H6R 8724   1.790   0.142   9.679  3.4662  1.1363 -0.6875
   90SAPS   C27 8725   1.715   0.286   9.823  0.0328 -0.4201 -1.2117
   90SAPS   H7R 8726   1.715   0.360   9.740  0.2316  0.4327 -0.4506
   90SAPS   H7S 8727   1.756   0.344   9.908  0.3357  0.0378 -1.6722
   90SAPS   C28 8728   1.572   0.248   9.868  0.1225  0.5283 -0.8911
   90SAPS   H8R 8729   1.562   0.247   9.977  0.8323 -1.5372 -0.8295
   90SAPS   C29 8730   1.468   0.210   9.792  0.0467  0.7551  0.8174
   90SAPS   H9R 8731   1.373   0.173   9.835 -1.1588  1.8148 -0.8834
   90SAPS  C210 8732   1.471   0.211   9.640  0.4525 -1.0922  0.9462
   90SAPS  H10R 8733   1.561   0.152   9.611  1.3871  0.4045  0.7541
   90SAPS  H10S 8734   1.481   0.316   9.605 -3.7330 -0.9699 -0.2312
   90SAPS  C211 8735   1.341   0.151   9.583 -0.0453  0.6143 -0.4318
   90SAPS  H11R 8736   1.332   0.045   9.613 -1.4811  1.4916  2.4109
   90SAPS  C212 8737   1.253   0.195   9.488  0.0365 -0.0397 -0.6839
   90SAPS  H12R 8738   1.167   0.129   9.468  0.1216  0.6885 -3.5800
   90SAPS  C213 8739   1.264   0.332   9.413 -0.0267  0.5132  0.3777
   90SAPS  H13R 8740   1.305   0.412   9.479  1.0631  1.0185 -0.9080
   90SAPS  H13S 8741   1.161   0.359   9.379 -1.2649 -0.1463  3.3503
   90SAPS  C214 8742   1.356   0.349   9.299 -0.6768 -0.3855  0.1860
   90SAPS  H14R 8743   1.459   0.375   9.328 -0.1009 -1.9659 -0.3956
   90SAPS  C215 8744   1.335   0.326   9.169  0.1256 -0.6338 -0.0763
   90SAPS  H15R 8745   1.412   0.352   9.095 -0.5287  1.7690  0.0312
   90SAPS  C216 8746   1.218   0.258   9.103 -0.1796 -0.8127  0.8175
   90SAPS  H16R 8747   1.147   0.339   9.074  0.4443 -0.3420  0.5967
   90SAPS  H16S 8748   1.170   0.183   9.169 -0.7861 -0.7852  0.4099
   90SAPS  C217 8749   1.244   0.192   8.964  0.0328  0.0690 -0.3683
   90SAPS  H17R 8750   1.310   0.103   8.970  0.3736  0.0606 -3.6109
   90SAPS  H17S 8751   1.292   0.275   8.908 -1.9424  0.5395 -1.4454
   90SAPS  C218 8752   1.118   0.155   8.877  0.5543  0.2588 -0.1846
   90SAPS  H18R 8753   1.047   0.240   8.866 -1.1324 -1.2050 -0.9670
   90SAPS  H18S 8754   1.051   0.082   8.928 -0.2798  1.5843  0.6592
   90SAPS  C219 8755   1.154   0.106   8.733  0.1850 -0.0310 -0.2671
   90SAPS  H19R 8756   1.222   0.019   8.745  0.9998  0.5264 -0.8488
   90SAPS  H19S 8757   1.205   0.179   8.668  1.6610  1.7482  2.8019
   90SAPS  C220 8758   1.028   0.064   8.656 -0.1708  0.1643 -0.9792
   90SAPS  H20R 8759   0.962   0.148   8.626 -0.6274  0.2735  0.2884
   90SAPS  H20S 8760   0.964  -0.009   8.710 -0.7657 -0.3156 -2.3041
   90SAPS  H20T 8761   1.066   0.013   8.565  0.2418  1.4065 -1.5081
   90SAPS   C33 8762   1.467   0.680   9.906 -0.0115 -0.5988  0.1237
   90SAPS   H3X 8763   1.398   0.743   9.967  0.6363 -0.2193  0.4732
   90SAPS   H3Y 8764   1.420   0.580   9.892 -3.2122  0.7287  1.1256
   90SAPS   C34 8765   1.486   0.745   9.770  0.2789 -0.4211 -0.0536
   90SAPS   H4X 8766   1.547   0.837   9.779 -1.2578  0.7503 -1.2294
   90SAPS   H4Y 8767   1.390   0.783   9.730  0.3568 -2.3561 -2.2118
   90SAPS   C35 8768   1.557   0.649   9.674 -0.0808 -0.1457 -0.0102
   90SAPS   H5X 8769   1.523   0.544   9.686 -0.1057  0.1770  3.4092
   90SAPS   H5Y 8770   1.666   0.663   9.695  0.0547 -0.1942 -0.6569
   90SAPS   C36 8771   1.548   0.689   9.529  0.0816 -0.9492 -0.0150
   90SAPS   H6X 8772   1.574   0.796   9.517  2.1834 -1.2091  1.7333
   90SAPS   H6Y 8773   1.446   0.674   9.488  0.3985 -1.0684 -0.7716
   90SAPS   C37 8774   1.645   0.605   9.431 -0.3187  0.4057 -0.3937
   90SAPS   H7X 8775   1.636   0.499   9.464 -0.5171  0.6336  0.2856
   90SAPS   H7Y 8776   1.748   0.628   9.466 -0.8472  1.1216  0.7245
   90SAPS   C38 8777   1.615   0.643   9.280 -0.1897 -0.3668  0.5532
   90SAPS   H8X 8778   1.627   0.753   9.268  0.5191 -0.3013  1.8527
   90SAPS   H8Y 8779   1.506   0.627   9.263 -0.4734  2.9612 -1.1217
   90SAPS   C39 8780   1.711   0.571   9.181  0.4646  0.4188 -0.1231
   90SAPS   H9X 8781   1.679   0.597   9.078  0.9082 -0.7038 -0.5476
   90SAPS   H9Y 8782   1.702   0.460   9.188  0.9607  0.4169  0.4676
   90SAPS  C310 8783   1.867   0.580   9.184  0.1923 -0.3401 -0.0070
   90SAPS  H10X 8784   1.910   0.555   9.283  0.7030  0.1801 -0.0939
   90SAPS  H10Y 8785   1.897   0.686   9.174  0.6734 -0.2341  2.2234
   90SAPS  C311 8786   1.937   0.493   9.082 -0.5182  0.6132 -0.2275
   90SAPS  H11X 8787   1.909   0.385   9.082 -1.9662  0.9717 -0.8540
   90SAPS  H11Y 8788   2.044   0.488   9.112 -0.8353  0.3305  0.8872
   90SAPS  C312 8789   1.929   0.556   8.943 -0.5445 -0.0592 -0.3793
   90SAPS  H12X 8790   1.954   0.664   8.952 -1.8259  0.2603 -0.6333
   90SAPS  H12Y 8791   1.833   0.544   8.888  0.4357 -0.5430 -2.0513
   90SAPS  C313 8792   2.035   0.490   8.850 -0.1271 -0.6879  0.1804
   90SAPS  H13X 8793   2.007   0.389   8.814 -2.3398 -0.3320  0.7951
   90SAPS  H13Y 8794   2.131   0.492   8.906 -0.1021  0.8751  0.1206
   90SAPS  C314 8795   2.053   0.580   8.727  0.2747  0.1039  0.5199
   90SAPS  H14X 8796   2.082   0.683   8.757  1.1830  0.5691 -1.8341
   90SAPS  H14Y 8797   1.949   0.578   8.687 -0.3878 -0.3690  2.2375
   90SAPS  C315 8798   2.158   0.527   8.632 -0.4857  0.2312 -0.2134
   90SAPS  H15X 8799   2.131   0.432   8.582 -0.7188 -0.1365  0.6033
   90SAPS  H15Y 8800   2.255   0.521   8.686  0.0242 -0.2323 -1.1905
   90SAPS  C316 8801   2.183   0.632   8.512 -0.0236 -0.2649 -0.0626
   90SAPS  H16X 8802   2.207   0.732   8.555  1.6480 -1.5039  2.0329
   90SAPS  H16Y 8803   2.091   0.640   8.451 -0.0202 -1.1533 -0.1854
   90SAPS  C317 8804   2.307   0.597   8.433  0.0197 -0.5363  0.4563
   90SAPS  H17X 8805   2.318   0.487   8.423  0.0479 -0.6054  1.1944
   90SAPS  H17Y 8806   2.394   0.623   8.498  0.5482 -0.2995 -0.3399
   90SAPS  C318 8807   2.312   0.671   8.299 -0.0264 -0.2441 -0.2070
   90SAPS  H18X 8808   2.249   0.632   8.215  0.0640  2.2888 -1.4804
   90SAPS  H18Y 8809   2.418   0.689   8.274 -0.0208 -1.0848 -0.8102
   90SAPS  H18Z 8810   2.278   0.776   8.309 -1.8094 -0.8783  0.6820
   91SAPS     N 8811   6.184   3.787   6.099 -0.4128  0.0476  0.0429
   91SAPS   HN1 8812   6.232   3.733   6.173 -0.6193  0.4099  0.4427
   91SAPS   HN2 8813   6.133   3.872   6.131  0.1675  0.5643 -0.3843
   91SAPS   HN3 8814   6.129   3.720   6.041 -1.2347  1.0004 -0.2991
   91SAPS   C12 8815   6.292   3.832   6.017  0.1208 -0.2139  0.4755
   91SAPS  H12A 8816   6.360   3.749   6.006  1.7187  0.6227  3.5389
   91SAPS   C13 8817   6.244   3.880   5.881 -0.8266  0.1682  0.0906
   91SAPS  O13A 8818   6.123   3.900   5.860  0.3427 -0.2324 -0.4905
   91SAPS  O13B 8819   6.332   3.924   5.802  0.1679 -0.0491  1.0741
   91SAPS   C11 8820   6.376   3.944   6.079 -0.0749  0.3226 -0.5664
   91SAPS  H11A 8821   6.312   4.034   6.088  2.4047  2.0466  0.1812
   91SAPS  H11B 8822   6.459   3.961   6.008 -0.7209 -0.2188 -1.4752
   91SAPS     P 8823   6.526   3.973   6.296  0.0414  0.1120  0.0412
   91SAPS   O13 8824   6.609   3.885   6.377 -0.3193  0.6692  0.0188
   91SAPS   O14 8825   6.601   4.068   6.215  0.1523 -0.0831  0.2925
   91SAPS   O12 8826   6.417   3.892   6.206 -0.3732 -0.1798  0.0419
   91SAPS   O11 8827   6.445   4.062   6.402 -0.5732  0.6789 -0.0996
   91SAPS    C1 8828   6.375   3.995   6.504  0.2865  0.0219 -0.2575
   91SAPS    HA 8829   6.298   3.930   6.457 -1.0349  1.6578 -0.4254
   91SAPS    HB 8830   6.447   3.940   6.568  0.7023  0.7132 -0.1215
   91SAPS    C2 8831   6.293   4.095   6.595 -0.1516  0.5467 -0.1686
   91SAPS    HS 8832   6.360   4.170   6.643  0.6691 -0.4745  0.2886
   91SAPS   O21 8833   6.233   4.012   6.695 -0.5272 -0.3495  0.4904
   91SAPS   C21 8834   6.190   4.078   6.802 -0.6221  0.0116  0.6434
   91SAPS   O22 8835   6.201   4.198   6.825 -0.0130  0.0158 -0.6104
   91SAPS   C22 8836   6.122   3.978   6.896  0.2789 -0.0769 -0.3435
   91SAPS   H2R 8837   6.025   3.960   6.845 -0.2421 -0.9041  0.9225
   91SAPS   H2S 8838   6.171   3.879   6.888  0.9403  0.2955 -0.9613
   91SAPS    C3 8839   6.191   4.175   6.512  0.3060 -0.2770 -0.0888
   91SAPS    HX 8840   6.122   4.100   6.469  1.8537 -1.6812 -0.1692
   91SAPS    HY 8841   6.236   4.222   6.422 -0.5759 -0.0555 -0.4153
   91SAPS   O31 8842   6.117   4.268   6.591  0.3378 -0.0386 -0.3749
   91SAPS   C31 8843   6.190   4.380   6.606  0.2126  0.1992  0.1744
   91SAPS   O32 8844   6.292   4.404   6.543 -0.0562 -0.6369  0.1103
   91SAPS   C32 8845   6.109   4.466   6.701 -0.0922 -0.1673 -0.5049
   91SAPS   H2X 8846   6.054   4.402   6.774  1.5157 -2.4729 -1.2395
   91SAPS   H2Y 8847   6.034   4.519   6.640 -0.2992  1.6896  1.3098
   91SAPS   C23 8848   6.100   4.029   7.042  0.1260  0.0504 -0.1505
   91SAPS   H3R 8849   6.020   3.975   7.096  1.2851 -2.0910 -0.5230
   91SAPS   H3S 8850   6.069   4.136   7.033 -1.2070 -0.3468 -0.3264
   91SAPS   C24 8851   6.232   4.028   7.129  0.4391  0.6493 -0.3189
   91SAPS   H4R 8852   6.209   4.095   7.215  0.2538 -1.3665  1.2549
   91SAPS   H4S 8853   6.327   4.068   7.089  1.9239 -1.6234  0.7986
   91SAPS   C25 8854   6.265   3.885   7.171  0.5645 -0.2513  0.3765
   91SAPS   H5R 8855   6.276   3.825   7.079 -1.6737 -0.5968  0.3110
   91SAPS   C26 8856   6.285   3.835   7.298 -0.2187  0.0254 -0.1610
   91SAPS   H6R 8857   6.318   3.730   7.304  2.2932  0.7904  0.2430
   91SAPS   C27 8858   6.274   3.902   7.428 -0.2078 -0.8135  0.2068
   91SAPS   H7R 8859   6.229   3.831   7.501  1.2618 -1.5447  0.4352
   91SAPS   H7S 8860   6.198   3.982   7.415  0.9563  0.2403 -0.2135
   91SAPS   C28 8861   6.398   3.969   7.482 -0.0507  0.0612  0.1993
   91SAPS   H8R 8862   6.463   4.006   7.402 -1.7710  0.7201 -0.9144
   91SAPS   C29 8863   6.429   3.978   7.613  0.9300  0.7527  0.3083
   91SAPS   H9R 8864   6.522   4.027   7.646  0.6489 -0.1589  2.4862
   91SAPS  C210 8865   6.346   3.932   7.729 -0.5713 -0.1007 -0.5684
   91SAPS  H10R 8866   6.273   3.851   7.710 -0.9185 -0.5736  2.5089
   91SAPS  H10S 8867   6.282   4.015   7.765  0.1845 -0.3125  1.3563
   91SAPS  C211 8868   6.437   3.873   7.831 -0.2440  0.7508  0.0013
   91SAPS  H11R 8869   6.490   3.785   7.792 -2.3449 -0.4298 -0.2836
   91SAPS  C212 8870   6.446   3.907   7.963  0.4397 -0.0962 -0.0180
   91SAPS  H12R 8871   6.520   3.854   8.024  0.0662 -0.4796  0.1114
   91SAPS  C213 8872   6.369   4.003   8.041  0.0344 -0.3894  0.5735
   91SAPS  H13R 8873   6.310   3.952   8.119 -2.7569  0.9338 -0.6050
   91SAPS  H13S 8874   6.287   4.053   7.985 -1.3446 -0.5070  2.4669
   91SAPS  C214 8875   6.468   4.096   8.109 -0.4473  0.3678 -0.3102
   91SAPS  H14R 8876   6.560   4.122   8.055 -0.8246 -0.8904 -1.6009
   91SAPS  C215 8877   6.465   4.134   8.242  0.3517 -0.3748  0.2690
   91SAPS  H15R 8878   6.545   4.200   8.278  1.2613  0.3495 -2.9174
   91SAPS  C216 8879   6.366   4.100   8.350 -0.4913 -0.7775  0.0488
   91SAPS  H16R 8880   6.330   3.997   8.332 -0.5992 -0.3242 -2.4440
   91SAPS  H16S 8881   6.280   4.172   8.351  0.2612  0.1299 -0.0276
   91SAPS  C217 8882   6.409   4.118   8.500  0.0998  0.1237  0.4814
   91SAPS  H17R 8883   6.320   4.097   8.563 -0.2144  0.8502  0.2810
   91SAPS  H17S 8884   6.443   4.221   8.521  1.8523  0.1368 -2.2083
   91SAPS  C218 8885   6.530   4.024   8.543  0.1241 -0.4409  0.5031
   91SAPS  H18R 8886   6.610   4.041   8.468 -1.2345  2.3917 -0.3816
   91SAPS  H18S 8887   6.509   3.916   8.549  0.5462 -0.7289 -2.3937
   91SAPS  C219 8888   6.605   4.056   8.678  0.9445  0.3478  0.5306
   91SAPS  H19R 8889   6.623   4.166   8.673  1.0814  0.3012 -0.0213
   91SAPS  H19S 8890   6.704   4.008   8.686  0.4718 -0.3425  2.8650
   91SAPS  C220 8891   6.531   4.012   8.805  0.1431 -0.1557 -0.0692
   91SAPS  H20R 8892   6.443   4.079   8.819  0.0950 -0.5178  1.4311
   91SAPS  H20S 8893   6.586   4.031   8.900 -3.2278  0.3077  1.8700
   91SAPS  H20T 8894   6.496   3.908   8.795  0.2291 -0.1007 -1.0746
   91SAPS   C33 8895   6.204   4.570   6.758  0.4182  0.0413  0.4898
   91SAPS   H3X 8896   6.220   4.626   6.663 -1.2234 -2.5025 -1.3613
   91SAPS   H3Y 8897   6.298   4.531   6.803  0.3149  0.5283  1.1269
   91SAPS   C34 8898   6.136   4.670   6.854 -0.5141  0.0296  0.2427
   91SAPS   H4X 8899   6.036   4.695   6.811 -0.7632  0.3473  1.0118
   91SAPS   H4Y 8900   6.193   4.764   6.861  1.1837 -0.8045 -1.7536
   91SAPS   C35 8901   6.104   4.626   7.003 -0.5599  0.6499 -0.0297
   91SAPS   H5X 8902   6.189   4.656   7.067 -0.9583  1.4570  0.1217
   91SAPS   H5Y 8903   6.114   4.515   7.009  1.4898  0.7009 -1.8159
   91SAPS   C36 8904   5.969   4.673   7.049  0.3613  0.1255  0.0342
   91SAPS   H6X 8905   5.891   4.620   6.991 -0.9412 -0.1940  2.0152
   91SAPS   H6Y 8906   5.958   4.783   7.033  0.2751  0.3208  1.3136
   91SAPS   C37 8907   5.962   4.635   7.198  0.3293 -0.0065  0.1300
   91SAPS   H7X 8908   6.010   4.535   7.203 -0.6801 -0.6195 -1.8474
   91SAPS   H7Y 8909   5.858   4.630   7.237  0.1066 -1.8075 -0.6411
   91SAPS   C38 8910   6.033   4.736   7.296 -0.6679 -0.1333  0.2453
   91SAPS   H8X 8911   6.004   4.840   7.268 -0.9668  1.0623  4.5770
   91SAPS   H8Y 8912   6.143   4.719   7.295 -0.8879 -1.5674 -0.7409
   91SAPS   C39 8913   5.988   4.708   7.437 -0.5772 -0.5989  0.1921
   91SAPS   H9X 8914   6.015   4.604   7.463 -0.8562 -0.0870  2.6186
   91SAPS   H9Y 8915   5.877   4.702   7.440 -0.6076  0.3299  1.8592
   91SAPS  C310 8916   6.044   4.792   7.551 -0.4356 -0.6624 -0.0551
   91SAPS  H10X 8917   5.986   4.886   7.538 -0.3923 -0.6654 -0.2712
   91SAPS  H10Y 8918   6.152   4.810   7.531 -0.7043  1.0696 -0.0263
   91SAPS  C311 8919   6.021   4.717   7.679 -1.1111  0.1476  0.8328
   91SAPS  H11X 8920   6.097   4.637   7.690 -2.6448 -1.2628  1.2547
   91SAPS  H11Y 8921   5.921   4.671   7.675 -0.3600 -1.3226 -1.8796
   91SAPS  C312 8922   6.030   4.811   7.804  0.7937 -0.0139  0.1988
   91SAPS  H12X 8923   5.950   4.888   7.796  0.8530 -0.0920 -1.2861
   91SAPS  H12Y 8924   6.124   4.869   7.817 -0.0765  1.6239 -0.5752
   91SAPS  C313 8925   5.994   4.747   7.943  0.1882  0.7038 -0.5922
   91SAPS  H13X 8926   6.068   4.666   7.962  0.7855  1.2368 -0.6598
   91SAPS  H13Y 8927   5.898   4.697   7.916  0.7006 -0.7726  0.2803
   91SAPS  C314 8928   5.970   4.835   8.070 -0.1048  0.2459 -0.3262
   91SAPS  H14X 8929   5.886   4.907   8.056  1.6177  2.0257 -1.7525
   91SAPS  H14Y 8930   6.067   4.880   8.100 -0.1668 -1.1657  2.1087
   91SAPS  C315 8931   5.930   4.748   8.200  0.6741 -0.1721 -0.0407
   91SAPS  H15X 8932   6.014   4.678   8.220 -1.6573 -2.2743  2.7663
   91SAPS  H15Y 8933   5.836   4.693   8.179  0.2000 -0.0502  1.6695
   91SAPS  C316 8934   5.902   4.848   8.320 -0.0811  0.6120  0.2322
   91SAPS  H16X 8935   5.826   4.921   8.283  2.3061  1.6151 -2.8278
   91SAPS  H16Y 8936   5.991   4.913   8.334  0.1416 -0.0618  2.2096
   91SAPS  C317 8937   5.856   4.778   8.446 -0.2670  0.0998  0.1686
   91SAPS  H17X 8938   5.754   4.736   8.431 -1.4065  2.8592 -0.2117
   91SAPS  H17Y 8939   5.838   4.853   8.526 -1.2407  0.2563 -0.1931
   91SAPS  C318 8940   5.958   4.671   8.492 -0.3084  0.9898  0.4410
   91SAPS  H18X 8941   5.974   4.596   8.412  2.5908  2.4556 -0.4183
   91SAPS  H18Y 8942   5.916   4.597   8.563 -0.3345  1.7276  1.2091
   91SAPS  H18Z 8943   6.055   4.719   8.516 -0.0422  1.1096 -0.8255
   92SAPS     N 8944   6.514   2.000   6.397  0.2445 -0.0436 -0.5662
   92SAPS   HN1 8945   6.463   1.909   6.396  0.7450 -0.3266 -0.5353
   92SAPS   HN2 8946   6.617   1.991   6.384  0.4278  0.5386  0.3660
   92SAPS   HN3 8947   6.501   2.032   6.495  0.0383 -0.8650 -0.3249
   92SAPS   C12 8948   6.461   2.094   6.300  0.2442 -0.1234 -0.5650
   92SAPS  H12A 8949   6.496   2.193   6.323  0.9421 -0.8982  1.8652
   92SAPS   C13 8950   6.498   2.048   6.157  0.0857 -0.2081  0.9518
   92SAPS  O13A 8951   6.556   1.937   6.136 -0.0266  0.3861 -0.1773
   92SAPS  O13B 8952   6.455   2.122   6.061  0.3942 -0.6905 -0.2126
   92SAPS   C11 8953   6.308   2.109   6.314  0.3443  0.3642 -0.2120
   92SAPS  H11A 8954   6.252   2.013   6.319  0.1031  0.5290  0.2102
   92SAPS  H11B 8955   6.266   2.149   6.219 -1.6122 -1.3364 -0.1098
   92SAPS     P 8956   6.248   2.347   6.397  0.3080 -0.4932 -0.0570
   92SAPS   O13 8957   6.320   2.395   6.278  0.1031 -0.1156 -0.4606
   92SAPS   O14 8958   6.099   2.358   6.402  0.0249  0.0821 -0.2880
   92SAPS   O12 8959   6.282   2.197   6.423  0.4178  0.3923  0.2881
   92SAPS   O11 8960   6.308   2.424   6.525  0.3804  0.4084 -0.4412
   92SAPS    C1 8961   6.419   2.383   6.610 -0.0522 -0.3906 -0.4181
   92SAPS    HA 8962   6.478   2.314   6.546 -1.4577  0.5044 -2.7261
   92SAPS    HB 8963   6.480   2.471   6.638  0.2059 -1.1004  1.3267
   92SAPS    C2 8964   6.376   2.320   6.744 -0.2118 -0.4227 -0.0584
   92SAPS    HS 8965   6.468   2.274   6.786 -0.3346  0.5212  1.2749
   92SAPS   O21 8966   6.268   2.216   6.727 -0.6421  0.2280 -0.1254
   92SAPS   C21 8967   6.318   2.098   6.692  1.0104 -0.4783 -0.1993
   92SAPS   O22 8968   6.431   2.068   6.662 -0.2824 -0.0027 -0.0060
   92SAPS   C22 8969   6.197   1.998   6.698  0.1448  0.5192 -0.0725
   92SAPS   H2R 8970   6.122   2.032   6.773 -1.3502 -1.0562 -0.8256
   92SAPS   H2S 8971   6.156   1.997   6.595  0.2961 -1.6530 -0.1354
   92SAPS    C3 8972   6.326   2.423   6.843  0.5912 -0.0709 -0.2929
   92SAPS    HX 8973   6.280   2.369   6.928 -2.3342  1.5619 -0.7968
   92SAPS    HY 8974   6.242   2.482   6.800  0.4789  0.5541  0.7525
   92SAPS   O31 8975   6.439   2.507   6.879  0.5872  0.0284  0.1559
   92SAPS   C31 8976   6.414   2.624   6.940 -0.0189 -0.2569  0.2498
   92SAPS   O32 8977   6.303   2.676   6.945  0.1418 -1.2659 -0.0085
   92SAPS   C32 8978   6.541   2.694   6.991 -0.2460 -0.2390 -0.5431
   92SAPS   H2X 8979   6.547   2.792   6.940  0.1565 -1.0942 -2.1504
   92SAPS   H2Y 8980   6.631   2.637   6.960 -1.1575 -1.9319 -0.1638
   92SAPS   C23 8981   6.232   1.849   6.727  0.2987 -0.1687  0.2037
   92SAPS   H3R 8982   6.293   1.801   6.647  1.5041  2.6907 -0.6350
   92SAPS   H3S 8983   6.145   1.781   6.740 -0.2460  0.2782 -1.0420
   92SAPS   C24 8984   6.333   1.823   6.840  0.2659 -0.0465 -0.9660
   92SAPS   H4R 8985   6.416   1.896   6.825  0.7457 -0.6861 -1.4279
   92SAPS   H4S 8986   6.371   1.719   6.844 -0.6095 -0.2887  1.9662
   92SAPS   C25 8987   6.281   1.851   6.976 -0.3549  0.7080 -0.7474
   92SAPS   H5R 8988   6.176   1.817   6.978 -0.6616  1.6642  0.3900
   92SAPS   C26 8989   6.334   1.928   7.074 -0.5134  0.4104  0.0076
   92SAPS   H6R 8990   6.283   1.928   7.171  1.4713  2.1937  1.0889
   92SAPS   C27 8991   6.464   2.008   7.077 -0.2544  0.5041 -0.5448
   92SAPS   H7R 8992   6.510   2.006   6.976 -1.7609 -1.9320 -1.2232
   92SAPS   H7S 8993   6.538   1.954   7.140 -1.7157 -0.0891  0.6919
   92SAPS   C28 8994   6.456   2.152   7.121 -0.7225 -0.2014  0.1854
   92SAPS   H8R 8995   6.416   2.218   7.042 -1.2573 -0.8189 -0.0620
   92SAPS   C29 8996   6.472   2.206   7.245  0.9468  0.0006 -0.0597
   92SAPS   H9R 8997   6.482   2.316   7.251  0.9687 -0.0301  0.4932
   92SAPS  C210 8998   6.498   2.125   7.369  0.9412 -0.1745  0.2287
   92SAPS  H10R 8999   6.606   2.104   7.358  1.1126  1.9410 -2.7885
   92SAPS  H10S 9000   6.439   2.031   7.378 -0.7036  0.7820 -0.2598
   92SAPS  C211 9001   6.483   2.208   7.496 -0.2840  0.4416 -0.3592
   92SAPS  H11R 9002   6.390   2.264   7.514 -1.6982 -2.1668  0.7930
   92SAPS  C212 9003   6.565   2.198   7.601 -0.6777  0.2391 -0.5433
   92SAPS  H12R 9004   6.555   2.271   7.684  0.5742  0.6667 -0.7621
   92SAPS  C213 9005   6.685   2.108   7.616  0.2159 -0.1876  0.5455
   92SAPS  H13R 9006   6.774   2.159   7.660 -0.4309 -0.2886  1.9915
   92SAPS  H13S 9007   6.732   2.073   7.522  1.2918  3.7555 -0.4864
   92SAPS  C214 9008   6.653   1.982   7.698  0.0699  0.8829 -1.1952
   92SAPS  H14R 9009   6.642   1.896   7.630 -2.1999 -1.3753  1.8925
   92SAPS  C215 9010   6.649   1.976   7.833  0.6248  0.2161  0.0161
   92SAPS  H15R 9011   6.617   1.883   7.883 -1.1992  1.2617  0.8493
   92SAPS  C216 9012   6.676   2.091   7.924 -0.5879 -0.6476 -0.1161
   92SAPS  H16R 9013   6.734   2.173   7.877  1.4165 -0.2371  2.9235
   92SAPS  H16S 9014   6.746   2.059   8.005  1.5047  5.3419  0.6982
   92SAPS  C217 9015   6.559   2.164   7.977 -0.3050 -0.1348 -0.0553
   92SAPS  H17R 9016   6.500   2.198   7.889  1.6057  1.2393 -0.8209
   92SAPS  H17S 9017   6.592   2.258   8.025 -2.7450 -0.4429  2.3810
   92SAPS  C218 9018   6.479   2.094   8.084  0.2081  0.1555 -0.1943
   92SAPS  H18R 9019   6.547   2.072   8.170  3.8571  3.3610 -2.1153
   92SAPS  H18S 9020   6.448   1.999   8.035  0.3125 -0.9734  1.8236
   92SAPS  C219 9021   6.359   2.172   8.127 -0.0442 -0.7431 -0.1119
   92SAPS  H19R 9022   6.300   2.098   8.184 -1.1321  0.4106  0.2871
   92SAPS  H19S 9023   6.301   2.191   8.033 -0.6808  1.7259  0.7354
   92SAPS  C220 9024   6.378   2.299   8.212  0.0907 -0.4820  0.0382
   92SAPS  H20R 9025   6.280   2.348   8.230  0.5007  0.5463 -0.5276
   92SAPS  H20S 9026   6.439   2.381   8.170  1.8034 -0.2531  2.8535
   92SAPS  H20T 9027   6.414   2.268   8.312  0.7314  0.7757  0.1944
   92SAPS   C33 9028   6.546   2.712   7.149  0.0087 -0.0454  0.3899
   92SAPS   H3X 9029   6.592   2.621   7.192  1.9387  1.1837  0.9751
   92SAPS   H3Y 9030   6.437   2.710   7.170 -0.5571 -1.3307 -2.4628
   92SAPS   C34 9031   6.628   2.834   7.186 -0.2588 -0.2489 -0.1986
   92SAPS   H4X 9032   6.572   2.920   7.143 -0.2698  0.4647  1.2050
   92SAPS   H4Y 9033   6.728   2.838   7.139 -0.2867 -1.0077 -0.3383
   92SAPS   C35 9034   6.638   2.854   7.344 -0.0731 -0.0282  0.1739
   92SAPS   H5X 9035   6.697   2.766   7.380  0.0802  0.2605  0.6244
   92SAPS   H5Y 9036   6.540   2.839   7.393  0.6443  0.0974  1.6821
   92SAPS   C36 9037   6.719   2.983   7.378  0.8050  0.3454 -0.7601
   92SAPS   H6X 9038   6.668   3.078   7.351 -3.2367 -1.9927 -1.7301
   92SAPS   H6Y 9039   6.812   2.983   7.318  1.3062  1.2955 -0.0015
   92SAPS   C37 9040   6.748   2.980   7.526  1.1830 -0.1677  0.0981
   92SAPS   H7X 9041   6.656   2.955   7.583 -0.4666  2.6758 -1.2473
   92SAPS   H7Y 9042   6.788   3.081   7.548  0.3386  0.2279 -0.2139
   92SAPS   C38 9043   6.865   2.887   7.563  0.3729  0.5888  0.5617
   92SAPS   H8X 9044   6.949   2.905   7.492  1.9820  1.9717  2.7258
   92SAPS   H8Y 9045   6.840   2.779   7.556 -0.5941  0.6398  2.7691
   92SAPS   C39 9046   6.922   2.918   7.709 -0.5800  0.9102  0.2237
   92SAPS   H9X 9047   6.835   2.912   7.778 -0.6088 -0.2711  0.1050
   92SAPS   H9Y 9048   6.971   3.016   7.722  1.0285 -0.0813  1.8361
   92SAPS  C310 9049   7.022   2.811   7.748  0.1454  0.4406  0.2453
   92SAPS  H10X 9050   7.084   2.782   7.660 -0.6645 -1.1366  0.1738
   92SAPS  H10Y 9051   6.965   2.717   7.755 -0.6611  0.9397  0.4777
   92SAPS  C311 9052   7.093   2.830   7.877 -0.7745  0.5113  0.2981
   92SAPS  H11X 9053   7.172   2.908   7.869 -0.1199  0.0380  1.9887
   92SAPS  H11Y 9054   7.149   2.741   7.913 -0.1626  0.2371 -1.2910
   92SAPS  C312 9055   6.996   2.879   7.988 -0.3021  0.3448  0.2591
   92SAPS  H12X 9056   6.928   2.792   8.001 -0.9970  0.9562  0.7920
   92SAPS  H12Y 9057   6.938   2.970   7.961 -0.3044 -0.0651 -1.1618
   92SAPS  C313 9058   7.066   2.900   8.121 -0.2041 -0.0431  0.5434
   92SAPS  H13X 9059   7.145   2.978   8.123  0.2661 -0.3408 -3.4730
   92SAPS  H13Y 9060   7.106   2.800   8.146 -0.5950 -0.2768  0.2300
   92SAPS  C314 9061   6.963   2.932   8.232 -0.6267 -0.7674  0.2440
   92SAPS  H14X 9062   6.882   2.855   8.232 -1.7604  0.4017 -0.1380
   92SAPS  H14Y 9063   6.920   3.027   8.194 -1.5477 -1.2882 -0.0594
   92SAPS  C315 9064   7.022   2.940   8.374  0.0988 -0.1688  0.4501
   92SAPS  H15X 9065   7.111   3.003   8.352  0.9334 -1.5838 -0.2953
   92SAPS  H15Y 9066   7.059   2.838   8.400 -2.5818 -1.1253  0.6308
   92SAPS  C316 9067   6.925   2.992   8.479  0.3348  0.0563 -0.1092
   92SAPS  H16X 9068   6.960   2.944   8.573 -0.1150  1.5533  0.8351
   92SAPS  H16Y 9069   6.822   2.953   8.462 -0.0347  0.8084  0.3715
   92SAPS  C317 9070   6.924   3.138   8.470 -0.8794  0.2358  0.2579
   92SAPS  H17X 9071   6.898   3.170   8.367 -0.3064  0.2595  0.1191
   92SAPS  H17Y 9072   7.028   3.174   8.484 -0.7496  0.4540 -1.1635
   92SAPS  C318 9073   6.833   3.210   8.574 -0.4860 -0.5443 -0.7591
   92SAPS  H18X 9074   6.829   3.318   8.550  1.9937  0.2010  1.8897
   92SAPS  H18Y 9075   6.854   3.192   8.681 -0.2751 -0.9336 -0.8640
   92SAPS  H18Z 9076   6.734   3.162   8.556 -2.2367  2.7535 -0.1882
   93SAPS     N 9077   0.572   2.933   6.330 -0.7288  0.2052  0.5259
   93SAPS   HN1 9078   0.661   2.886   6.305  0.5541  1.3791  2.7894
   93SAPS   HN2 9079   0.575   2.944   6.433  0.4615 -0.3873  0.5638
   93SAPS   HN3 9080   0.499   2.863   6.303  1.3661 -2.4598  1.6199
   93SAPS   C12 9081   0.566   3.061   6.256  0.1955  0.0607 -0.3201
   93SAPS  H12A 9082   0.638   3.134   6.291  0.2643 -0.0349 -0.2632
   93SAPS   C13 9083   0.586   3.059   6.104 -0.0936  0.6132 -0.8838
   93SAPS  O13A 9084   0.589   2.953   6.042  0.9942 -0.5076 -0.4107
   93SAPS  O13B 9085   0.567   3.169   6.048  0.6278 -0.0296  0.3223
   93SAPS   C11 9086   0.432   3.136   6.286  0.1634 -0.4980  0.6626
   93SAPS  H11A 9087   0.348   3.085   6.234  0.2742  1.6494 -1.7293
   93SAPS  H11B 9088   0.453   3.236   6.242  0.6314 -0.6465  0.5446
   93SAPS     P 9089   0.317   3.243   6.499 -0.3855 -0.2948  0.1125
   93SAPS   O13 9090   0.366   3.381   6.470 -0.0208 -0.0857 -0.5516
   93SAPS   O14 9091   0.180   3.221   6.459 -0.1151  0.5741 -0.3201
   93SAPS   O12 9092   0.412   3.142   6.422  0.1835  0.3765 -0.2822
   93SAPS   O11 9093   0.342   3.208   6.648  0.0956 -0.6031 -0.1443
   93SAPS    C1 9094   0.317   3.072   6.694  0.2074  0.1986  0.3480
   93SAPS    HA 9095   0.325   2.990   6.619 -0.5706 -1.4437  2.0070
   93SAPS    HB 9096   0.398   3.040   6.763 -1.3344 -3.0808  0.7566
   93SAPS    C2 9097   0.191   3.055   6.791 -0.3443  0.0358 -1.3369
   93SAPS    HS 9098   0.100   3.075   6.730 -0.6172 -0.5885 -1.1342
   93SAPS   O21 9099   0.205   3.144   6.904  1.2373  0.5110  0.1200
   93SAPS   C21 9100   0.100   3.178   6.972  0.2987  0.9057  0.4091
   93SAPS   O22 9101  -0.014   3.157   6.943 -0.0292  0.1617 -0.0196
   93SAPS   C22 9102   0.141   3.257   7.095  0.1849  0.2965 -0.4877
   93SAPS   H2R 9103   0.225   3.202   7.144 -0.1821  0.7730  0.7090
   93SAPS   H2S 9104   0.188   3.353   7.065 -0.1880  0.7487  0.3409
   93SAPS    C3 9105   0.190   2.915   6.853 -0.5142 -0.3684 -0.1346
   93SAPS    HX 9106   0.175   2.838   6.774  1.9384 -0.3725 -0.6110
   93SAPS    HY 9107   0.093   2.901   6.906  0.0767  0.6895  1.2504
   93SAPS   O31 9108   0.304   2.881   6.935 -0.5036  0.0581 -0.0552
   93SAPS   C31 9109   0.297   2.869   7.069  0.7356  0.1258 -0.0267
   93SAPS   O32 9110   0.200   2.896   7.138 -0.1906  0.0148  0.3150
   93SAPS   C32 9111   0.424   2.813   7.119  0.6751  0.1778 -0.0742
   93SAPS   H2X 9112   0.508   2.874   7.080  1.1924 -0.7368 -0.4027
   93SAPS   H2Y 9113   0.439   2.713   7.074 -0.9428  0.5789 -1.5332
   93SAPS   C23 9114   0.017   3.280   7.188 -0.1348 -0.2895  0.2388
   93SAPS   H3R 9115  -0.023   3.185   7.229  1.7779 -1.0295  0.4493
   93SAPS   H3S 9116  -0.053   3.327   7.115 -0.0700  0.6133  0.7568
   93SAPS   C24 9117   0.042   3.368   7.308 -0.3661  0.1127  0.1644
   93SAPS   H4R 9118  -0.055   3.406   7.345 -0.1628 -0.1543  0.9724
   93SAPS   H4S 9119   0.106   3.453   7.276  0.9627 -1.2300 -0.8856
   93SAPS   C25 9120   0.121   3.301   7.412  0.9031 -0.4158 -0.6654
   93SAPS   H5R 9121   0.187   3.218   7.381  1.3491 -0.7877  1.2149
   93SAPS   C26 9122   0.106   3.323   7.545 -0.6865  0.4393  0.0358
   93SAPS   H6R 9123   0.172   3.272   7.617  0.0786  0.2200 -0.7998
   93SAPS   C27 9124   0.017   3.422   7.610  0.7860  0.5011 -0.4460
   93SAPS   H7R 9125  -0.081   3.372   7.627  1.0187  0.8241  2.0487
   93SAPS   H7S 9126  -0.003   3.505   7.539 -1.7055  1.0709  0.8807
   93SAPS   C28 9127   0.078   3.478   7.736  0.8143 -0.2901 -0.1539
   93SAPS   H8R 9128   0.143   3.567   7.735 -2.0168  1.8275 -0.0176
   93SAPS   C29 9129   0.052   3.436   7.861 -0.2302 -0.2499  0.0999
   93SAPS   H9R 9130   0.092   3.488   7.950 -0.1604 -0.4976  0.2127
   93SAPS  C210 9131  -0.038   3.311   7.883 -0.0859 -0.0843  0.0186
   93SAPS  H10R 9132   0.029   3.225   7.860 -1.3013 -0.4834 -2.1622
   93SAPS  H10S 9133  -0.125   3.306   7.813 -1.2886  2.5589  1.2709
   93SAPS  C211 9134  -0.078   3.306   8.025  1.0671 -0.3095  0.6502
   93SAPS  H11R 9135  -0.074   3.404   8.075  1.3445 -0.8517  1.7048
   93SAPS  C212 9136  -0.123   3.200   8.103 -0.1071 -0.1508  0.0270
   93SAPS  H12R 9137  -0.156   3.222   8.205 -0.1455  0.9262 -0.2101
   93SAPS  C213 9138  -0.137   3.058   8.051  0.2338 -0.0814  0.7285
   93SAPS  H13R 9139  -0.077   2.984   8.108  0.6047  0.9321  1.6713
   93SAPS  H13S 9140  -0.084   3.051   7.953 -0.1975  2.5187  0.2789
   93SAPS  C214 9141  -0.282   3.026   8.039  0.6397  0.0363 -0.2498
   93SAPS  H14R 9142  -0.340   3.086   7.967  1.2778 -0.8645 -1.5291
   93SAPS  C215 9143  -0.344   2.932   8.109  0.3266  0.5797 -0.0780
   93SAPS  H15R 9144  -0.452   2.916   8.094 -0.0444  2.7760  0.0901
   93SAPS  C216 9145  -0.278   2.837   8.206  0.1083  0.3797 -0.3541
   93SAPS  H16R 9146  -0.170   2.819   8.188  1.0030  1.6011  3.3950
   93SAPS  H16S 9147  -0.308   2.730   8.194 -0.9256  0.7633 -1.2859
   93SAPS  C217 9148  -0.312   2.890   8.342 -0.1590  0.8788  0.1578
   93SAPS  H17R 9149  -0.421   2.912   8.344 -0.1850  0.7046  1.2338
   93SAPS  H17S 9150  -0.247   2.977   8.365 -0.0131  0.3551  1.8379
   93SAPS  C218 9151  -0.293   2.781   8.457 -0.0945 -0.2587 -0.0109
   93SAPS  H18R 9152  -0.186   2.761   8.480 -0.0354  1.4017  1.2276
   93SAPS  H18S 9153  -0.346   2.689   8.426 -1.3164  0.8209 -1.1980
   93SAPS  C219 9154  -0.355   2.833   8.585 -0.2540  0.0170  0.0086
   93SAPS  H19R 9155  -0.358   2.759   8.668 -0.8394  0.6411  0.5450
   93SAPS  H19S 9156  -0.460   2.855   8.554  0.2256  2.6730  0.1245
   93SAPS  C220 9157  -0.299   2.962   8.640  0.6784 -0.3070 -0.5786
   93SAPS  H20R 9158  -0.194   2.937   8.666  0.2874 -1.3687 -0.0082
   93SAPS  H20S 9159  -0.348   2.989   8.736  2.1403  1.1100 -0.2087
   93SAPS  H20T 9160  -0.293   3.052   8.575 -0.7166 -2.2264 -3.4619
   93SAPS   C33 9161   0.432   2.792   7.277  0.6179 -0.0805  0.0717
   93SAPS   H3X 9162   0.346   2.724   7.295 -0.4960  1.2713 -0.1091
   93SAPS   H3Y 9163   0.396   2.876   7.339 -1.1747 -0.3847 -0.5211
   93SAPS   C34 9164   0.565   2.742   7.326  0.3660 -0.1463 -0.0825
   93SAPS   H4X 9165   0.634   2.817   7.281  0.6138 -1.9546 -2.8173
   93SAPS   H4Y 9166   0.591   2.646   7.276  0.9880 -1.1227  2.0673
   93SAPS   C35 9167   0.575   2.736   7.476  0.8552  0.1210  0.0057
   93SAPS   H5X 9168   0.486   2.690   7.525  2.1817 -2.5987 -0.0604
   93SAPS   H5Y 9169   0.575   2.844   7.500  0.4566  0.1830 -0.2575
   93SAPS   C36 9170   0.688   2.659   7.541  0.1410 -0.1223  1.1994
   93SAPS   H6X 9171   0.790   2.701   7.527 -0.0846  0.6247  1.7615
   93SAPS   H6Y 9172   0.688   2.557   7.499 -3.8878 -0.0611  0.8891
   93SAPS   C37 9173   0.655   2.653   7.691  0.5531  0.5036  0.1309
   93SAPS   H7X 9174   0.732   2.580   7.725  0.2163 -0.1486 -0.5011
   93SAPS   H7Y 9175   0.553   2.610   7.702  0.7017 -0.3021 -1.5264
   93SAPS   C38 9176   0.670   2.784   7.769 -0.1541 -0.2275 -0.2068
   93SAPS   H8X 9177   0.588   2.854   7.742  0.3592  0.1674 -0.7533
   93SAPS   H8Y 9178   0.769   2.825   7.738 -1.1631  1.8105 -0.8682
   93SAPS   C39 9179   0.680   2.767   7.924 -0.2165  0.2545 -0.2409
   93SAPS   H9X 9180   0.758   2.692   7.949  0.0307  0.7979  0.6487
   93SAPS   H9Y 9181   0.582   2.742   7.969  0.6803 -2.6417  0.2247
   93SAPS  C310 9182   0.728   2.901   7.986  0.6127 -0.1436  0.3982
   93SAPS  H10X 9183   0.666   2.982   7.943 -1.5601 -2.1798 -0.4164
   93SAPS  H10Y 9184   0.832   2.926   7.956  0.9166 -1.0106  0.6881
   93SAPS  C311 9185   0.725   2.895   8.139 -0.1563 -0.7659 -0.5684
   93SAPS  H11X 9186   0.807   2.825   8.165  0.9556  0.7833  0.1537
   93SAPS  H11Y 9187   0.631   2.845   8.169  0.9030 -1.5558  1.5671
   93SAPS  C312 9188   0.742   3.038   8.199  0.0439  0.2343 -0.0814
   93SAPS  H12X 9189   0.664   3.104   8.155 -0.6086  0.8308  1.9560
   93SAPS  H12Y 9190   0.834   3.087   8.160 -0.9554  2.3352  0.1602
   93SAPS  C313 9191   0.754   3.033   8.352  0.0545  0.5816  0.0831
   93SAPS  H13X 9192   0.784   3.133   8.391 -2.6056  1.1365  0.8145
   93SAPS  H13Y 9193   0.828   2.958   8.384 -0.7203 -0.5422 -0.7230
   93SAPS  C314 9194   0.618   3.008   8.422  0.6691 -0.3475  0.2646
   93SAPS  H14X 9195   0.594   2.900   8.422 -1.0393  0.0057  1.8930
   93SAPS  H14Y 9196   0.536   3.065   8.373 -1.2634 -2.6587  0.7348
   93SAPS  C315 9197   0.633   3.040   8.571 -0.9900 -0.2064  0.7251
   93SAPS  H15X 9198   0.663   3.147   8.571  0.0884 -0.4993  1.4120
   93SAPS  H15Y 9199   0.724   2.985   8.604  0.5367  2.2968  0.8619
   93SAPS  C316 9200   0.512   3.003   8.648  0.2442 -0.4241  0.1080
   93SAPS  H16X 9201   0.504   2.893   8.657  0.7171 -0.4567  0.1613
   93SAPS  H16Y 9202   0.428   3.035   8.582  0.6092 -1.2052 -0.7346
   93SAPS  C317 9203   0.493   3.073   8.783  0.1123  0.6885 -0.3356
   93SAPS  H17X 9204   0.475   3.181   8.766  0.3735  0.6830 -0.6564
   93SAPS  H17Y 9205   0.584   3.065   8.847 -0.1440  0.0811 -0.0461
   93SAPS  C318 9206   0.369   3.015   8.847  0.8456  0.6032  0.6586
   93SAPS  H18X 9207   0.277   3.057   8.803  1.5666  2.7259  1.1165
   93SAPS  H18Y 9208   0.371   3.040   8.955 -0.6968  2.1539  0.3460
   93SAPS  H18Z 9209   0.378   2.905   8.831 -1.1242  0.4203  0.6838
   94SAPS     N 9210   6.610   4.353   5.716  0.1355 -0.3393 -0.0368
   94SAPS   HN1 9211   6.630   4.274   5.651  0.1500 -0.0775 -0.3490
   94SAPS   HN2 9212   6.610   4.320   5.814  1.5342  1.5557  0.6281
   94SAPS   HN3 9213   6.514   4.389   5.701 -0.2102  0.2618  3.3076
   94SAPS   C12 9214   6.708   4.467   5.703  0.2841  1.0804 -0.8187
   94SAPS  H12A 9215   6.803   4.419   5.688  0.3961  1.3142 -0.8528
   94SAPS   C13 9216   6.672   4.540   5.572 -0.9327 -0.1699 -0.1652
   94SAPS  O13A 9217   6.562   4.541   5.520  0.5516 -0.1915 -0.4722
   94SAPS  O13B 9218   6.778   4.580   5.513  0.0418  0.0929  0.2737
   94SAPS   C11 9219   6.694   4.561   5.820  0.3654 -0.5837 -0.1248
   94SAPS  H11A 9220   6.595   4.611   5.827 -0.3410 -1.9326 -0.3474
   94SAPS  H11B 9221   6.755   4.651   5.796  0.9662 -0.6478  1.1207
   94SAPS     P 9222   6.773   4.540   6.080  0.2008 -0.3344  0.1057
   94SAPS   O13 9223   6.800   4.416   6.164 -0.1593  0.2006  0.7765
   94SAPS   O14 9224   6.878   4.643   6.082  0.5312  0.1306  0.2074
   94SAPS   O12 9225   6.728   4.494   5.941 -0.0905  0.5330  0.3454
   94SAPS   O11 9226   6.646   4.610   6.140 -0.6390  0.1612  0.8725
   94SAPS    C1 9227   6.628   4.756   6.117 -0.4365  0.8732 -0.5435
   94SAPS    HA 9228   6.726   4.806   6.128 -1.4996  3.1632 -1.0396
   94SAPS    HB 9229   6.596   4.766   6.011 -2.0262  2.0019  0.0208
   94SAPS    C2 9230   6.521   4.823   6.204 -0.1231 -0.5591 -0.1324
   94SAPS    HS 9231   6.532   4.933   6.210 -2.1114 -0.3584  0.1105
   94SAPS   O21 9232   6.520   4.762   6.334 -0.5525 -0.0254 -0.3641
   94SAPS   C21 9233   6.622   4.813   6.408 -0.8661  0.9308 -0.2130
   94SAPS   O22 9234   6.720   4.878   6.373 -0.2911 -0.2559  0.2664
   94SAPS   C22 9235   6.608   4.762   6.542 -0.2571  0.0370 -0.2444
   94SAPS   H2R 9236   6.585   4.653   6.540 -1.2103  0.2001  1.2593
   94SAPS   H2S 9237   6.704   4.785   6.593 -0.6624  2.0114 -0.3337
   94SAPS    C3 9238   6.373   4.802   6.143  0.4450  0.2741  0.1534
   94SAPS    HX 9239   6.359   4.692   6.137  1.2095  0.2266 -0.9578
   94SAPS    HY 9240   6.363   4.842   6.040  1.2530  1.4872  0.5345
   94SAPS   O31 9241   6.268   4.860   6.220 -0.0782  0.0745 -0.3993
   94SAPS   C31 9242   6.222   4.787   6.323 -0.6491 -0.1731 -0.3026
   94SAPS   O32 9243   6.243   4.669   6.340  0.3600 -0.5491 -0.0759
   94SAPS   C32 9244   6.144   4.883   6.426 -0.4793 -0.1069 -0.0683
   94SAPS   H2X 9245   6.200   4.877   6.522 -1.3255 -2.0854  0.3140
   94SAPS   H2Y 9246   6.040   4.848   6.437 -0.5257  0.0213 -0.0965
   94SAPS   C23 9247   6.486   4.836   6.612  0.6583  0.3077  0.4356
   94SAPS   H3R 9248   6.489   4.797   6.716 -3.2720  1.3016  0.9603
   94SAPS   H3S 9249   6.388   4.806   6.569  2.1146 -0.2468 -2.6285
   94SAPS   C24 9250   6.506   4.987   6.626  0.7295 -0.3483  0.0773
   94SAPS   H4R 9251   6.496   5.027   6.523 -0.1193 -1.2828 -0.2094
   94SAPS   H4S 9252   6.605   5.009   6.672 -0.1036 -0.3787  1.9269
   94SAPS   C25 9253   6.396   5.041   6.711  0.3355 -0.2516 -0.1546
   94SAPS   H5R 9254   6.314   5.087   6.654 -0.3815  0.7345  1.6222
   94SAPS   C26 9255   6.388   5.048   6.849 -0.3879  0.4027 -0.2049
   94SAPS   H6R 9256   6.288   5.073   6.888 -1.2349 -0.1552 -1.9498
   94SAPS   C27 9257   6.478   4.991   6.953 -0.6270  0.3937  0.0047
   94SAPS   H7R 9258   6.557   5.065   6.977 -0.1389  0.0440 -0.4881
   94SAPS   H7S 9259   6.532   4.900   6.919 -0.5719 -0.0950  1.3751
   94SAPS   C28 9260   6.395   4.953   7.078  0.0524  0.1257 -0.6751
   94SAPS   H8R 9261   6.317   4.880   7.052  2.4945 -2.4530 -0.9867
   94SAPS   C29 9262   6.394   4.994   7.206  0.1210  0.3072 -1.3278
   94SAPS   H9R 9263   6.317   4.955   7.274 -0.2997 -0.0200 -1.9796
   94SAPS  C210 9264   6.487   5.097   7.264  0.2962  0.3870 -0.1990
   94SAPS  H10R 9265   6.523   5.170   7.189  0.7261 -1.7864 -2.1365
   94SAPS  H10S 9266   6.583   5.049   7.292  0.5982  1.3891  0.5449
   94SAPS  C211 9267   6.439   5.168   7.386 -1.0344  0.0207 -0.0653
   94SAPS  H11R 9268   6.381   5.259   7.368 -0.5297  0.7783  2.0478
   94SAPS  C212 9269   6.471   5.136   7.512  0.3343 -0.0267 -0.3925
   94SAPS  H12R 9270   6.416   5.192   7.589  0.7114  0.4662 -0.4786
   94SAPS  C213 9271   6.552   5.011   7.568  0.5873  0.1588 -0.3700
   94SAPS  H13R 9272   6.648   5.041   7.616  0.8694  0.4415 -1.0948
   94SAPS  H13S 9273   6.585   4.957   7.476  0.4561  1.5910 -1.2696
   94SAPS  C214 9274   6.472   4.905   7.649 -0.4549 -0.3517 -0.6195
   94SAPS  H14R 9275   6.439   4.812   7.602 -0.1262 -1.2728  0.9264
   94SAPS  C215 9276   6.464   4.919   7.782 -0.1408  0.1375  0.1269
   94SAPS  H15R 9277   6.413   4.840   7.839  1.3703 -0.4547  0.7052
   94SAPS  C216 9278   6.519   5.028   7.862 -0.3611 -0.0634  0.4175
   94SAPS  H16R 9279   6.437   5.068   7.926 -0.2153 -0.0675  0.6069
   94SAPS  H16S 9280   6.545   5.114   7.796 -0.1100 -0.9584 -0.6612
   94SAPS  C217 9281   6.638   4.980   7.943  0.0543 -0.0231 -0.0514
   94SAPS  H17R 9282   6.724   4.977   7.873  1.0207  0.3530  1.1085
   94SAPS  H17S 9283   6.627   4.876   7.981  0.2064  0.4832  1.4238
   94SAPS  C218 9284   6.671   5.071   8.060  0.3595 -0.2024 -0.2437
   94SAPS  H18R 9285   6.673   5.179   8.032 -0.0065  0.1200  0.9174
   94SAPS  H18S 9286   6.776   5.048   8.090 -0.8543 -1.7620  3.0170
   94SAPS  C219 9287   6.588   5.051   8.190  0.2797  0.3660  0.2115
   94SAPS  H19R 9288   6.630   4.960   8.239 -2.1636  0.5839  2.8014
   94SAPS  H19S 9289   6.478   5.046   8.179  0.0837  1.6017  1.5386
   94SAPS  C220 9290   6.613   5.162   8.294 -1.0553  0.2447  0.1512
   94SAPS  H20R 9291   6.597   5.263   8.250 -2.2169 -0.5959 -1.3747
   94SAPS  H20S 9292   6.718   5.148   8.328 -0.1447  0.2264 -2.5360
   94SAPS  H20T 9293   6.549   5.149   8.384 -3.1210  0.0943 -1.3034
   94SAPS   C33 9294   6.149   5.031   6.377  0.2511  0.1533 -0.0103
   94SAPS   H3X 9295   6.097   5.046   6.280 -1.5651  1.7446  1.1792
   94SAPS   H3Y 9296   6.255   5.064   6.372 -0.2753  1.8592 -0.1224
   94SAPS   C34 9297   6.069   5.130   6.469 -0.3449 -0.5902  0.0452
   94SAPS   H4X 9298   6.079   5.233   6.430  0.1215 -1.8322 -3.2441
   94SAPS   H4Y 9299   6.111   5.126   6.572 -0.4306  1.9995  0.2062
   94SAPS   C35 9300   5.914   5.099   6.475 -0.4128 -0.1252 -0.1829
   94SAPS   H5X 9301   5.909   4.990   6.494  2.2662 -0.1360  0.6141
   94SAPS   H5Y 9302   5.878   5.112   6.371  0.6415  0.9452 -0.4231
   94SAPS   C36 9303   5.830   5.190   6.568 -0.6699  0.2261 -0.2848
   94SAPS   H6X 9304   5.725   5.156   6.581 -1.7902  2.2289 -3.5680
   94SAPS   H6Y 9305   5.814   5.289   6.520 -1.2245 -0.5261 -1.6535
   94SAPS   C37 9306   5.881   5.207   6.714 -0.4399 -0.9386  0.1766
   94SAPS   H7X 9307   5.804   5.273   6.760  1.0616  0.0963  1.2245
   94SAPS   H7Y 9308   5.986   5.241   6.706 -0.7559 -0.4004 -2.0500
   94SAPS   C38 9309   5.882   5.072   6.790  0.0967  0.2507 -0.8833
   94SAPS   H8X 9310   5.925   4.993   6.724 -1.7346 -1.5816  0.0478
   94SAPS   H8Y 9311   5.778   5.040   6.812  0.5864  0.1476  1.3531
   94SAPS   C39 9312   5.961   5.074   6.923  0.0981  0.0791  0.6311
   94SAPS   H9X 9313   6.037   5.154   6.911 -1.7672  1.9988  1.2180
   94SAPS   H9Y 9314   6.015   4.979   6.942  1.3466  0.6223 -0.1490
   94SAPS  C310 9315   5.880   5.126   7.041  0.1121  0.7784  0.3428
   94SAPS  H10X 9316   5.806   5.053   7.080  0.4099 -0.2095 -0.9301
   94SAPS  H10Y 9317   5.833   5.223   7.012  1.2273  0.9450 -0.9274
   94SAPS  C311 9318   5.967   5.150   7.170 -0.7364  0.1557 -0.3700
   94SAPS  H11X 9319   6.036   5.231   7.138  0.4665 -0.6969  0.0269
   94SAPS  H11Y 9320   6.037   5.067   7.193  0.2008  0.9671 -0.2666
   94SAPS  C312 9321   5.878   5.195   7.286 -0.0146  0.3923 -0.0449
   94SAPS  H12X 9322   5.793   5.124   7.300  1.4015 -1.0063  1.6307
   94SAPS  H12Y 9323   5.844   5.297   7.258  3.0745  1.2640 -0.8137
   94SAPS  C313 9324   5.958   5.217   7.412  0.0130  1.0772  1.1733
   94SAPS  H13X 9325   6.014   5.311   7.391 -1.0819  0.9530 -2.7826
   94SAPS  H13Y 9326   6.030   5.132   7.416 -1.8334 -0.5176  1.1384
   94SAPS  C314 9327   5.884   5.235   7.542  0.1618  0.1068 -0.3826
   94SAPS  H14X 9328   5.832   5.138   7.558 -1.4919  1.0168 -0.1302
   94SAPS  H14Y 9329   5.818   5.323   7.525  0.0234  0.1594  0.4108
   94SAPS  C315 9330   5.981   5.258   7.649 -0.0996 -0.2664 -0.8254
   94SAPS  H15X 9331   6.058   5.336   7.631 -0.9698  0.4525 -1.4953
   94SAPS  H15Y 9332   6.041   5.169   7.676 -0.6285 -0.9881 -2.0072
   94SAPS  C316 9333   5.916   5.300   7.788 -0.5061 -0.3312  0.4875
   94SAPS  H16X 9334   5.995   5.315   7.865 -0.3633 -0.5675  0.3885
   94SAPS  H16Y 9335   5.873   5.207   7.832 -2.4719 -0.4172 -1.5676
   94SAPS  C317 9336   5.818   5.413   7.778 -0.3817  0.2256 -0.5403
   94SAPS  H17X 9337   5.736   5.388   7.708 -0.6515 -1.0456  0.2158
   94SAPS  H17Y 9338   5.871   5.500   7.733 -0.8418  0.3912 -0.7683
   94SAPS  C318 9339   5.738   5.458   7.902  0.2496  0.6225 -0.1972
   94SAPS  H18X 9340   5.683   5.368   7.939  0.1818  0.2843 -1.1068
   94SAPS  H18Y 9341   5.661   5.533   7.875 -0.4677 -0.0079  0.0654
   94SAPS  H18Z 9342   5.811   5.493   7.978 -1.7425  0.6882  1.7389
   95SAPS     N 9343   2.699   2.862   6.012  0.4745 -0.6521 -0.2657
   95SAPS   HN1 9344   2.629   2.809   5.956 -1.6238  1.7910 -0.0429
   95SAPS   HN2 9345   2.725   2.811   6.098  0.8593  0.9025  0.5668
   95SAPS   HN3 9346   2.656   2.954   6.036 -0.6596 -1.0247 -0.8253
   95SAPS   C12 9347   2.817   2.882   5.936  0.3188 -0.1207  0.3345
   95SAPS  H12A 9348   2.872   2.791   5.955 -1.8266 -1.0305  2.4843
   95SAPS   C13 9349   2.822   2.901   5.783 -0.0630 -0.5165  0.1652
   95SAPS  O13A 9350   2.717   2.892   5.711  0.4320 -0.0631 -0.0803
   95SAPS  O13B 9351   2.937   2.911   5.733  0.1406 -0.0780  0.4019
   95SAPS   C11 9352   2.905   2.992   6.000  0.8571  0.5448  0.1073
   95SAPS  H11A 9353   2.859   3.093   6.005  2.2505  1.2678 -1.3884
   95SAPS  H11B 9354   2.989   3.006   5.929 -0.2733 -2.2073 -1.8779
   95SAPS     P 9355   3.087   2.944   6.198 -0.6247 -0.1544 -0.0661
   95SAPS   O13 9356   3.164   2.839   6.130 -0.1674  0.1985 -0.6916
   95SAPS   O14 9357   3.147   3.079   6.203 -0.1575  0.4982 -0.2037
   95SAPS   O12 9358   2.943   2.956   6.134  0.2175  0.0352 -0.0755
   95SAPS   O11 9359   3.047   2.907   6.341 -0.2470 -0.8010  0.6340
   95SAPS    C1 9360   2.974   3.012   6.414  0.0836 -0.0054  0.4169
   95SAPS    HA 9361   3.045   3.093   6.440  0.6589 -0.3531 -0.0547
   95SAPS    HB 9362   2.881   3.043   6.361 -1.1344 -0.1506  2.4085
   95SAPS    C2 9363   2.920   2.964   6.557 -0.1111  0.4967  0.0087
   95SAPS    HS 9364   2.855   3.045   6.596  2.1162  2.5112 -0.3158
   95SAPS   O21 9365   3.036   2.940   6.635 -0.2550  0.1287  0.1113
   95SAPS   C21 9366   3.024   2.937   6.765  0.0962 -0.4774 -0.2500
   95SAPS   O22 9367   2.924   2.976   6.821  0.3016 -0.0710 -0.0675
   95SAPS   C22 9368   3.156   2.875   6.816 -0.3068  0.1792  0.4562
   95SAPS   H2R 9369   3.171   2.767   6.792 -1.6000 -0.2858  1.6416
   95SAPS   H2S 9370   3.242   2.930   6.773  0.4677 -1.2173  0.1614
   95SAPS    C3 9371   2.830   2.842   6.531 -0.2651  0.3588 -0.0981
   95SAPS    HX 9372   2.905   2.761   6.521  0.4657  0.9035  0.9122
   95SAPS    HY 9373   2.770   2.857   6.438 -0.8280  0.0910  0.2150
   95SAPS   O31 9374   2.749   2.803   6.643 -0.5927 -0.4561 -0.1406
   95SAPS   C31 9375   2.629   2.876   6.659 -0.4297  0.7996  0.6553
   95SAPS   O32 9376   2.598   2.962   6.580  0.6653  0.4214 -0.6890
   95SAPS   C32 9377   2.563   2.837   6.793 -0.0449  0.3653  0.2803
   95SAPS   H2X 9378   2.558   2.925   6.860 -0.3602 -0.0529  0.8033
   95SAPS   H2Y 9379   2.639   2.769   6.837 -0.4655  0.3438  0.9782
   95SAPS   C23 9380   3.162   2.896   6.969 -0.3464  0.2287  0.8418
   95SAPS   H3R 9381   3.062   2.882   7.016  0.3599  0.8480  2.5839
   95SAPS   H3S 9382   3.185   3.002   6.992 -0.6830  0.5308 -0.2047
   95SAPS   C24 9383   3.262   2.803   7.035 -0.4343  0.0304  0.9929
   95SAPS   H4R 9384   3.361   2.834   6.994  0.6453 -1.2275  2.5791
   95SAPS   H4S 9385   3.236   2.701   7.001 -2.0044  0.8652 -0.3449
   95SAPS   C25 9386   3.265   2.808   7.180  0.3789  0.2588 -0.0932
   95SAPS   H5R 9387   3.165   2.792   7.223  1.1685 -3.1146  0.5901
   95SAPS   C26 9388   3.367   2.827   7.264 -0.2502  0.3728 -0.2138
   95SAPS   H6R 9389   3.356   2.838   7.373  0.5848 -0.6116 -0.0298
   95SAPS   C27 9390   3.511   2.838   7.218  0.8299 -0.1762  0.3190
   95SAPS   H7R 9391   3.507   2.829   7.108 -2.7928  0.7023  0.3224
   95SAPS   H7S 9392   3.566   2.758   7.273  2.8950  1.7883  1.1937
   95SAPS   C28 9393   3.585   2.966   7.247 -0.7819 -0.9975  0.1035
   95SAPS   H8R 9394   3.634   2.999   7.155 -2.6988 -1.1875 -1.0117
   95SAPS   C29 9395   3.596   3.027   7.366 -0.3077  0.1188 -0.0003
   95SAPS   H9R 9396   3.657   3.119   7.372  0.9350 -0.7909  1.4603
   95SAPS  C210 9397   3.532   2.983   7.497 -0.5203 -0.2690  0.7233
   95SAPS  H10R 9398   3.601   3.015   7.578  1.1771  1.0371 -1.1787
   95SAPS  H10S 9399   3.533   2.874   7.514 -0.2308 -0.1734  1.3349
   95SAPS  C211 9400   3.386   3.033   7.519 -0.2637 -0.6638  0.3698
   95SAPS  H11R 9401   3.320   3.031   7.431 -0.1675 -2.4372  0.3324
   95SAPS  C212 9402   3.328   3.084   7.633  0.4007 -0.5775  0.2566
   95SAPS  H12R 9403   3.220   3.104   7.639  0.3441  0.0124 -2.1473
   95SAPS  C213 9404   3.410   3.102   7.758  0.2739 -0.5658 -0.3171
   95SAPS  H13R 9405   3.463   3.199   7.754  1.0810 -0.8233  3.0168
   95SAPS  H13S 9406   3.489   3.024   7.768  1.1669  0.3779  0.0133
   95SAPS  C214 9407   3.308   3.109   7.867  0.0511  0.3181 -0.0517
   95SAPS  H14R 9408   3.220   3.044   7.860 -0.0051  0.3354  0.5415
   95SAPS  C215 9409   3.296   3.201   7.965  0.0432  0.5269 -0.6435
   95SAPS  H15R 9410   3.222   3.195   8.046  1.5387 -0.6832  0.6719
   95SAPS  C216 9411   3.393   3.309   8.002  0.3973  0.1130 -0.4026
   95SAPS  H16R 9412   3.337   3.403   8.020  1.9533  0.7393  1.3329
   95SAPS  H16S 9413   3.468   3.326   7.922  0.6691 -1.1372 -0.4309
   95SAPS  C217 9414   3.475   3.283   8.135  0.3820 -0.5984  0.4996
   95SAPS  H17R 9415   3.524   3.186   8.111  0.6557 -0.4873  0.6070
   95SAPS  H17S 9416   3.416   3.278   8.229 -1.0443  0.0751 -0.3424
   95SAPS  C218 9417   3.571   3.398   8.145 -0.2600 -0.5050 -0.9630
   95SAPS  H18R 9418   3.541   3.502   8.120 -0.4291 -0.9707 -2.7519
   95SAPS  H18S 9419   3.659   3.386   8.078  0.2487  0.9412 -0.5796
   95SAPS  C219 9420   3.627   3.394   8.287 -0.1079  0.4901 -0.0462
   95SAPS  H19R 9421   3.546   3.409   8.361 -0.0797 -0.5229  0.1893
   95SAPS  H19S 9422   3.713   3.464   8.299 -0.1252  0.4178  0.5146
   95SAPS  C220 9423   3.689   3.259   8.324  0.2446 -0.1727 -0.7466
   95SAPS  H20R 9424   3.776   3.276   8.391  1.5368  0.8548 -2.6139
   95SAPS  H20S 9425   3.735   3.209   8.235 -0.2070  0.1506 -1.1662
   95SAPS  H20T 9426   3.620   3.195   8.382  0.0808  0.0017 -0.7481
   95SAPS   C33 9427   2.426   2.768   6.774  0.5907 -0.7625  0.0527
   95SAPS   H3X 9428   2.423   2.680   6.842  0.6436 -0.7472  0.0742
   95SAPS   H3Y 9429   2.406   2.744   6.667  2.6367 -0.2384 -0.4840
   95SAPS   C34 9430   2.307   2.861   6.813  0.9163 -0.4018 -0.7484
   95SAPS   H4X 9431   2.216   2.798   6.801  0.1338  0.6137 -0.2817
   95SAPS   H4Y 9432   2.295   2.945   6.740 -0.8583  0.2815  0.2842
   95SAPS   C35 9433   2.320   2.908   6.958  0.2375  0.1527 -0.2121
   95SAPS   H5X 9434   2.398   2.986   6.971 -0.5904  1.5074 -3.0288
   95SAPS   H5Y 9435   2.361   2.817   7.007  0.1988 -0.8959 -2.0934
   95SAPS   C36 9436   2.188   2.950   7.018 -1.2857  0.2516 -0.5474
   95SAPS   H6X 9437   2.108   2.876   6.996 -0.7548 -0.1602 -1.0855
   95SAPS   H6Y 9438   2.156   3.051   6.985 -2.3077  0.3004  0.5454
   95SAPS   C37 9439   2.202   2.966   7.177 -0.3505 -0.1865 -0.5807
   95SAPS   H7X 9440   2.229   2.871   7.228  1.4542  0.6787  0.0851
   95SAPS   H7Y 9441   2.105   3.008   7.211  0.1529  1.5755 -1.2906
   95SAPS   C38 9442   2.305   3.078   7.211  0.2799 -0.0408  0.2900
   95SAPS   H8X 9443   2.282   3.160   7.140  1.9558  0.9588  0.8715
   95SAPS   H8Y 9444   2.405   3.034   7.187  0.2036 -0.5180  0.8260
   95SAPS   C39 9445   2.298   3.132   7.354  0.1345  0.3005 -0.0062
   95SAPS   H9X 9446   2.208   3.190   7.380  1.9463  3.1646  0.0462
   95SAPS   H9Y 9447   2.389   3.194   7.372  0.2263  0.5916 -1.3982
   95SAPS  C310 9448   2.316   3.015   7.459 -0.2811 -0.2733  0.0791
   95SAPS  H10X 9449   2.417   2.971   7.442 -0.7089 -0.7076 -1.3505
   95SAPS  H10Y 9450   2.239   2.936   7.449  0.4536 -1.1168  1.0145
   95SAPS  C311 9451   2.328   3.069   7.607  0.7335 -0.2202 -0.6039
   95SAPS  H11X 9452   2.239   3.132   7.622  0.4936 -1.4267  4.0072
   95SAPS  H11Y 9453   2.417   3.135   7.604  1.1457 -0.7287  0.2192
   95SAPS  C312 9454   2.340   2.959   7.717 -0.4341 -0.6141 -0.9379
   95SAPS  H12X 9455   2.435   2.902   7.707 -1.2652 -2.4134  1.2602
   95SAPS  H12Y 9456   2.251   2.893   7.718 -0.0417 -1.1357 -0.5139
   95SAPS  C313 9457   2.343   3.028   7.856 -0.8292 -0.1638 -0.7069
   95SAPS  H13X 9458   2.265   3.107   7.853 -1.7800 -0.9276  2.7377
   95SAPS  H13Y 9459   2.445   3.071   7.869 -0.2944 -1.5672 -0.1345
   95SAPS  C314 9460   2.313   2.948   7.985 -0.1114 -0.6096 -0.0905
   95SAPS  H14X 9461   2.382   2.862   8.000 -0.1330 -0.3731  1.4145
   95SAPS  H14Y 9462   2.211   2.904   7.991 -0.4538  0.3305  1.2719
   95SAPS  C315 9463   2.343   3.036   8.108 -0.1297  0.2505  0.0239
   95SAPS  H15X 9464   2.274   3.123   8.108 -0.7799 -0.2110  2.6833
   95SAPS  H15Y 9465   2.451   3.059   8.097 -0.3567  2.1435  1.5479
   95SAPS  C316 9466   2.324   2.952   8.236  0.1143 -0.9361 -0.1201
   95SAPS  H16X 9467   2.338   2.842   8.225 -1.5632 -0.9391 -2.7255
   95SAPS  H16Y 9468   2.222   2.966   8.278  0.5841  1.2463  0.3507
   95SAPS  C317 9469   2.426   3.001   8.341 -0.3613 -0.3280 -0.5296
   95SAPS  H17X 9470   2.393   3.098   8.384 -2.4447 -0.9751 -0.6144
   95SAPS  H17Y 9471   2.521   3.019   8.286 -0.2436  0.1680 -0.1671
   95SAPS  C318 9472   2.453   2.900   8.451 -0.0791 -0.0470 -1.1009
   95SAPS  H18X 9473   2.542   2.924   8.513 -1.2904 -1.5433  1.2534
   95SAPS  H18Y 9474   2.468   2.814   8.383 -1.8917 -1.1115 -0.1776
   95SAPS  H18Z 9475   2.366   2.873   8.515 -0.4520 -0.1823 -1.6564
   96SAPS     N 9476   3.934   5.024   6.249  0.1237  0.2512  0.2498
   96SAPS   HN1 9477   3.916   4.971   6.337  0.6172  1.4368  1.0893
   96SAPS   HN2 9478   3.966   5.121   6.272  6.0010 -1.2188 -1.0710
   96SAPS   HN3 9479   3.846   5.026   6.193  0.6758  0.8243 -0.6089
   96SAPS   C12 9480   4.046   4.962   6.179 -0.2762 -0.2393  0.3771
   96SAPS  H12A 9481   4.030   4.987   6.075  1.1693  2.0704  0.6800
   96SAPS   C13 9482   4.183   5.018   6.194 -0.0272 -0.1614  0.3075
   96SAPS  O13A 9483   4.206   5.113   6.272 -0.2978 -0.4969 -0.2166
   96SAPS  O13B 9484   4.276   4.965   6.124  0.4032  0.2937 -0.3548
   96SAPS   C11 9485   4.055   4.813   6.222  0.5525  0.7744  0.2533
   96SAPS  H11A 9486   4.093   4.804   6.326  0.7621 -1.9471 -0.0284
   96SAPS  H11B 9487   4.131   4.753   6.169 -1.1512 -2.5508  1.4486
   96SAPS     P 9488   3.895   4.602   6.269 -0.4499 -0.2959 -0.0194
   96SAPS   O13 9489   3.782   4.540   6.189  0.4145  1.1978 -0.4321
   96SAPS   O14 9490   4.019   4.513   6.280  0.0352  0.3542  0.1521
   96SAPS   O12 9491   3.929   4.747   6.210 -0.1134  0.3211  0.2302
   96SAPS   O11 9492   3.839   4.632   6.412  0.2356  0.1535 -0.3997
   96SAPS    C1 9493   3.935   4.644   6.520  0.0411 -1.5616  0.3033
   96SAPS    HA 9494   4.036   4.685   6.501  0.9024 -2.7769  2.1726
   96SAPS    HB 9495   3.881   4.719   6.583 -1.5617 -0.7438 -1.9805
   96SAPS    C2 9496   3.946   4.519   6.607 -0.2130  0.3454  0.2572
   96SAPS    HS 9497   3.997   4.439   6.550 -1.5220 -0.6817  0.4910
   96SAPS   O21 9498   3.804   4.470   6.636 -0.3006  0.2556  0.5967
   96SAPS   C21 9499   3.790   4.339   6.624 -0.4698 -0.4356 -0.3665
   96SAPS   O22 9500   3.872   4.264   6.577  0.2141  0.5212  0.0273
   96SAPS   C22 9501   3.657   4.301   6.680 -1.2349  0.6791  0.7881
   96SAPS   H2R 9502   3.590   4.386   6.656  0.9878  1.8486 -1.4297
   96SAPS   H2S 9503   3.631   4.203   6.634 -0.2291 -0.9687  3.5292
   96SAPS    C3 9504   4.020   4.539   6.745 -0.0824  0.1684  0.1411
   96SAPS    HX 9505   3.973   4.628   6.791  1.2267  1.7503 -1.5031
   96SAPS    HY 9506   4.125   4.568   6.721 -0.1662 -0.3730 -0.8959
   96SAPS   O31 9507   4.022   4.426   6.834  0.1930 -0.1366 -0.1083
   96SAPS   C31 9508   4.102   4.327   6.802 -0.2695 -0.2274 -0.4893
   96SAPS   O32 9509   4.176   4.327   6.709  0.0093  0.4270 -0.2388
   96SAPS   C32 9510   4.082   4.225   6.910  0.1949  0.6738 -0.6629
   96SAPS   H2X 9511   4.150   4.141   6.885 -1.0659 -0.5670  0.0441
   96SAPS   H2Y 9512   3.973   4.203   6.907 -0.1247  1.9594  0.7366
   96SAPS   C23 9513   3.664   4.293   6.830  0.2139 -0.4629 -0.0547
   96SAPS   H3R 9514   3.717   4.381   6.872  0.6882 -1.3466  1.2395
   96SAPS   H3S 9515   3.718   4.197   6.845 -0.7553 -1.0711 -0.3988
   96SAPS   C24 9516   3.535   4.291   6.901  0.0542  0.1475 -0.0764
   96SAPS   H4R 9517   3.484   4.388   6.882 -0.7114  0.2084  2.1772
   96SAPS   H4S 9518   3.553   4.283   7.011  1.3581  0.7092 -0.2343
   96SAPS   C25 9519   3.442   4.188   6.844 -0.0519 -0.0436  0.5364
   96SAPS   H5R 9520   3.371   4.216   6.765  0.8114  0.8637  0.0777
   96SAPS   C26 9521   3.419   4.061   6.879 -0.6134  0.1041 -0.2979
   96SAPS   H6R 9522   3.370   4.001   6.801  1.7473  0.5501 -2.1964
   96SAPS   C27 9523   3.497   3.996   6.989  0.7817  0.7546  0.6331
   96SAPS   H7R 9524   3.496   4.055   7.082 -0.2242  0.3423  0.9010
   96SAPS   H7S 9525   3.602   3.985   6.954  0.5476  0.7891 -0.0911
   96SAPS   C28 9526   3.464   3.846   7.031 -0.6342  0.2303 -0.0707
   96SAPS   H8R 9527   3.527   3.773   6.978 -1.7844 -2.6110  2.3354
   96SAPS   C29 9528   3.384   3.792   7.126 -0.1074  0.3144  0.2583
   96SAPS   H9R 9529   3.378   3.683   7.142 -0.9898  0.3335  0.0766
   96SAPS  C210 9530   3.301   3.881   7.217  0.0829  1.0438  0.8149
   96SAPS  H10R 9531   3.339   3.984   7.233  0.8624  0.6265  1.6846
   96SAPS  H10S 9532   3.323   3.846   7.320  2.7646 -3.2826 -1.0376
   96SAPS  C211 9533   3.153   3.884   7.181 -1.2195 -0.0433 -0.6372
   96SAPS  H11R 9534   3.128   3.830   7.088 -0.2614  2.0261 -2.1316
   96SAPS  C212 9535   3.070   3.941   7.265 -0.3051 -0.1264 -0.2953
   96SAPS  H12R 9536   2.969   3.951   7.223 -0.8859 -2.2758  0.5463
   96SAPS  C213 9537   3.089   4.012   7.399 -0.2639 -0.2834  0.0544
   96SAPS  H13R 9538   3.132   4.111   7.371 -1.9915  0.3322 -0.4564
   96SAPS  H13S 9539   3.160   3.959   7.466  0.6559  0.6566 -0.1445
   96SAPS  C214 9540   2.958   4.052   7.464  0.0494 -0.4814  0.2477
   96SAPS  H14R 9541   2.880   4.082   7.392  1.5771  0.4645 -1.0191
   96SAPS  C215 9542   2.915   4.060   7.594 -0.1084  1.0215 -0.0460
   96SAPS  H15R 9543   2.819   4.108   7.618 -0.6672 -0.8958  1.7071
   96SAPS  C216 9544   2.999   4.018   7.711  0.6399 -0.1139 -0.0448
   96SAPS  H16R 9545   3.104   4.004   7.679  0.1939  0.6006 -1.8654
   96SAPS  H16S 9546   2.971   3.919   7.755 -1.7762  0.6322  0.2050
   96SAPS  C217 9547   2.994   4.114   7.840  0.2527  0.4276 -0.2805
   96SAPS  H17R 9548   3.035   4.212   7.808  1.2148 -0.3986 -1.6468
   96SAPS  H17S 9549   3.061   4.076   7.920  0.4877 -1.8851 -1.5304
   96SAPS  C218 9550   2.856   4.126   7.901  0.4877  0.2052 -0.6619
   96SAPS  H18R 9551   2.829   4.031   7.952  1.8067 -0.5218 -1.3008
   96SAPS  H18S 9552   2.773   4.143   7.828  0.3012  2.5754  0.0652
   96SAPS  C219 9553   2.849   4.227   8.022  0.2053 -0.1695  0.1470
   96SAPS  H19R 9554   2.895   4.323   7.990  0.3731 -0.3437 -0.1337
   96SAPS  H19S 9555   2.902   4.179   8.107 -0.0026  0.5583  0.7027
   96SAPS  C220 9556   2.706   4.261   8.071  0.1994 -0.5542  0.0348
   96SAPS  H20R 9557   2.663   4.165   8.107  0.9967 -0.5855  0.9399
   96SAPS  H20S 9558   2.636   4.298   7.994 -0.2027  0.8272  1.0481
   96SAPS  H20T 9559   2.722   4.331   8.155  1.3431 -0.8982  0.1213
   96SAPS   C33 9560   4.120   4.271   7.055  0.5759  0.0206  0.0816
   96SAPS   H3X 9561   4.088   4.188   7.122 -0.0346 -0.4227 -0.7489
   96SAPS   H3Y 9562   4.057   4.361   7.073  0.6984  0.1236 -0.0099
   96SAPS   C34 9563   4.267   4.307   7.079  0.1766  0.4187 -0.6245
   96SAPS   H4X 9564   4.267   4.414   7.049 -0.6166  0.3740 -0.7723
   96SAPS   H4Y 9565   4.327   4.242   7.011  0.6109  0.4208 -0.2486
   96SAPS   C35 9566   4.308   4.305   7.229  0.4566  0.6169  0.0403
   96SAPS   H5X 9567   4.222   4.334   7.292 -1.5924 -1.2657 -1.8249
   96SAPS   H5Y 9568   4.392   4.376   7.246  1.3873 -0.2667 -0.7949
   96SAPS   C36 9569   4.348   4.160   7.270 -0.4517 -0.4051  0.2715
   96SAPS   H6X 9570   4.448   4.131   7.233  1.1983  2.7392  2.0879
   96SAPS   H6Y 9571   4.289   4.085   7.214 -0.6804 -1.2128  1.5799
   96SAPS   C37 9572   4.346   4.116   7.419  0.3763 -0.1344 -0.1200
   96SAPS   H7X 9573   4.374   4.009   7.426  0.4541 -0.2569 -2.1081
   96SAPS   H7Y 9574   4.247   4.129   7.467  1.3643  1.5652  1.5283
   96SAPS   C38 9575   4.444   4.204   7.503  0.1618 -0.0010  0.6641
   96SAPS   H8X 9576   4.394   4.303   7.508 -2.2642 -1.1842  0.3505
   96SAPS   H8Y 9577   4.542   4.217   7.453  0.8342 -0.0075  1.9587
   96SAPS   C39 9578   4.467   4.147   7.645  0.2444 -0.5369 -0.0109
   96SAPS   H9X 9579   4.513   4.048   7.624 -0.8252 -0.5696 -2.4457
   96SAPS   H9Y 9580   4.362   4.128   7.675  0.8712  1.4978  3.7359
   96SAPS  C310 9581   4.556   4.240   7.739 -0.0552 -0.0388  0.0119
   96SAPS  H10X 9582   4.500   4.335   7.751  0.1374  0.0508  0.2062
   96SAPS  H10Y 9583   4.655   4.251   7.689 -0.2804  0.4642 -0.3243
   96SAPS  C311 9584   4.565   4.181   7.881 -0.4045 -0.1473  0.0627
   96SAPS  H11X 9585   4.624   4.088   7.875  0.5992  0.2388  3.0021
   96SAPS  H11Y 9586   4.462   4.152   7.910 -0.8539 -0.8363 -2.1757
   96SAPS  C312 9587   4.611   4.276   7.989  0.1728 -0.5572 -0.9139
   96SAPS  H12X 9588   4.538   4.358   8.006  4.0940  2.8637  0.1333
   96SAPS  H12Y 9589   4.711   4.320   7.971  0.3781 -0.0963  1.1446
   96SAPS  C313 9590   4.622   4.210   8.130 -0.0598  0.1014  0.8123
   96SAPS  H13X 9591   4.700   4.130   8.127 -0.0517  0.1830 -1.7747
   96SAPS  H13Y 9592   4.528   4.152   8.136 -0.7542  1.0825 -0.5282
   96SAPS  C314 9593   4.643   4.317   8.239 -0.0779  0.1725 -0.3942
   96SAPS  H14X 9594   4.570   4.400   8.227 -1.4269 -1.1710 -1.6586
   96SAPS  H14Y 9595   4.745   4.360   8.228 -0.3581  0.4073 -2.1434
   96SAPS  C315 9596   4.636   4.265   8.386  1.0525  0.0747 -0.4639
   96SAPS  H15X 9597   4.595   4.163   8.400 -0.6289  0.7434 -0.2908
   96SAPS  H15Y 9598   4.570   4.335   8.442  0.5155 -0.1959 -0.7481
   96SAPS  C316 9599   4.780   4.261   8.454  0.6665 -0.1577  0.2183
   96SAPS  H16X 9600   4.828   4.360   8.469 -1.8776  1.3728 -1.4272
   96SAPS  H16Y 9601   4.849   4.193   8.399  2.5771  2.1974 -0.3569
   96SAPS  C317 9602   4.762   4.201   8.591  0.5099 -0.2512 -0.2629
   96SAPS  H17X 9603   4.713   4.103   8.574  0.1722  0.3435 -2.8593
   96SAPS  H17Y 9604   4.685   4.255   8.651 -0.8532 -2.5151  0.0787
   96SAPS  C318 9605   4.889   4.198   8.665 -0.4770  0.5358  0.6319
   96SAPS  H18X 9606   4.928   4.302   8.669 -1.1682  0.8068  0.3483
   96SAPS  H18Y 9607   4.970   4.139   8.617 -0.2772  2.4331 -1.4545
   96SAPS  H18Z 9608   4.883   4.170   8.772  1.6160 -0.9663  0.3937
   97SAPS     N 9609   4.873   2.107   5.908 -0.0901  0.0373  0.6852
   97SAPS   HN1 9610   4.912   2.019   5.948  0.0677  0.0496  0.5562
   97SAPS   HN2 9611   4.849   2.102   5.807 -0.9195 -1.0608  0.9282
   97SAPS   HN3 9612   4.930   2.188   5.940 -1.7859  1.4302  0.1993
   97SAPS   C12 9613   4.740   2.137   5.968  0.0473 -0.0735  0.8321
   97SAPS  H12A 9614   4.740   2.241   5.995  3.2287  0.3246 -0.4534
   97SAPS   C13 9615   4.631   2.090   5.872 -0.0346 -0.5339  0.1143
   97SAPS  O13A 9616   4.665   2.045   5.757  0.4386 -0.6073 -0.2842
   97SAPS  O13B 9617   4.511   2.131   5.890 -0.3766  0.2815  0.0317
   97SAPS   C11 9618   4.720   2.056   6.094  0.2993 -0.0876  0.1750
   97SAPS  H11A 9619   4.724   1.947   6.073 -0.4827  0.0908 -0.9137
   97SAPS  H11B 9620   4.624   2.079   6.147  0.6325  1.6086  0.0540
   97SAPS     P 9621   4.864   1.980   6.300 -0.2311  0.1071 -0.0974
   97SAPS   O13 9622   4.853   1.851   6.236 -0.2305 -0.0020 -0.0892
   97SAPS   O14 9623   5.000   2.014   6.350 -0.1724 -0.1267 -0.6473
   97SAPS   O12 9624   4.817   2.093   6.193  0.4070  0.6189  0.1231
   97SAPS   O11 9625   4.745   1.992   6.403  0.2955 -0.8888 -0.1044
   97SAPS    C1 9626   4.723   2.124   6.460 -0.7098 -0.3257  0.4618
   97SAPS    HA 9627   4.811   2.177   6.501 -0.1316 -1.7847  1.1579
   97SAPS    HB 9628   4.678   2.189   6.382  0.8141 -0.3767 -0.4855
   97SAPS    C2 9629   4.610   2.120   6.565  0.3890 -0.7819  0.0837
   97SAPS    HS 9630   4.616   2.217   6.619  0.2594 -0.8965  0.3020
   97SAPS   O21 9631   4.622   2.005   6.649  0.8469 -0.3173  0.1568
   97SAPS   C21 9632   4.718   2.014   6.738  0.1686  0.3848  0.5005
   97SAPS   O22 9633   4.806   2.098   6.746  0.7730  0.2179  0.3946
   97SAPS   C22 9634   4.699   1.902   6.835  0.4343  0.6716  0.2416
   97SAPS   H2R 9635   4.767   1.917   6.921 -0.1599 -0.2815  0.8791
   97SAPS   H2S 9636   4.594   1.897   6.869  0.4506 -1.3895  0.0732
   97SAPS    C3 9637   4.464   2.114   6.503 -0.2197  0.2461 -0.4202
   97SAPS    HX 9638   4.422   2.011   6.503  0.2858 -0.0155 -3.5623
   97SAPS    HY 9639   4.475   2.137   6.395 -0.3195  0.1133 -0.4594
   97SAPS   O31 9640   4.387   2.206   6.570 -0.2509  0.2450 -0.3295
   97SAPS   C31 9641   4.251   2.184   6.579 -0.1323 -0.4268  0.6772
   97SAPS   O32 9642   4.199   2.082   6.529 -0.0407 -0.3641 -0.2485
   97SAPS   C32 9643   4.194   2.290   6.677 -0.2063  0.1908 -0.3148
   97SAPS   H2X 9644   4.086   2.317   6.670 -0.1703  0.9000  1.6439
   97SAPS   H2Y 9645   4.260   2.377   6.660 -0.1506  0.2163  0.0274
   97SAPS   C23 9646   4.732   1.765   6.761  0.3638 -0.0176  0.0957
   97SAPS   H3R 9647   4.699   1.758   6.656  0.8785  1.7830 -0.2063
   97SAPS   H3S 9648   4.667   1.698   6.821  0.4319 -0.8450 -0.7558
   97SAPS   C24 9649   4.873   1.703   6.793 -0.0954  0.0866 -0.0815
   97SAPS   H4R 9650   4.866   1.603   6.745  0.3550  0.7157 -1.5056
   97SAPS   H4S 9651   4.871   1.682   6.902 -0.4936  0.2032 -0.0647
   97SAPS   C25 9652   4.977   1.793   6.737  0.6285 -0.1247 -0.7034
   97SAPS   H5R 9653   4.970   1.814   6.629 -0.2946  1.5600 -0.3467
   97SAPS   C26 9654   5.060   1.870   6.811  0.1721  0.2967  0.5419
   97SAPS   H6R 9655   5.106   1.953   6.754  0.5194  0.6157  1.2852
   97SAPS   C27 9656   5.047   1.890   6.957  0.3895  0.0983  0.1958
   97SAPS   H7R 9657   5.041   1.789   7.004 -1.0066 -0.6907 -1.5892
   97SAPS   H7S 9658   4.955   1.947   6.980  0.7208  0.3566  0.8856
   97SAPS   C28 9659   5.153   1.972   7.025 -0.1728  0.7924 -0.6896
   97SAPS   H8R 9660   5.150   2.075   6.986 -2.5114  0.7336 -0.7410
   97SAPS   C29 9661   5.248   1.938   7.113 -0.2661 -0.5390 -0.8351
   97SAPS   H9R 9662   5.317   2.018   7.144 -0.6644 -0.8569  0.9272
   97SAPS  C210 9663   5.271   1.803   7.176 -0.3794 -0.7183  0.6877
   97SAPS  H10R 9664   5.349   1.745   7.122  0.8401  0.9986  0.5684
   97SAPS  H10S 9665   5.182   1.737   7.173 -1.2282  0.1456  4.6250
   97SAPS  C211 9666   5.316   1.814   7.322  0.3891  0.1617 -0.3951
   97SAPS  H11R 9667   5.235   1.839   7.392 -1.2557 -2.6278 -1.2344
   97SAPS  C212 9668   5.444   1.798   7.362 -0.2572 -0.6062  0.3297
   97SAPS  H12R 9669   5.471   1.801   7.469 -0.7584 -0.2458  0.4451
   97SAPS  C213 9670   5.563   1.764   7.269  0.3525 -0.9261 -0.3942
   97SAPS  H13R 9671   5.539   1.817   7.174 -1.1989  1.4385  1.2507
   97SAPS  H13S 9672   5.558   1.656   7.243 -0.0035 -1.1141  0.4413
   97SAPS  C214 9673   5.695   1.805   7.323 -0.5726  0.1130  0.1195
   97SAPS  H14R 9674   5.730   1.899   7.277  1.0498  1.3089  3.6345
   97SAPS  C215 9675   5.773   1.741   7.413  1.1572 -0.2955  0.1025
   97SAPS  H15R 9676   5.866   1.785   7.450  0.4781  0.2945  1.1370
   97SAPS  C216 9677   5.747   1.603   7.475 -0.8081 -0.1822  0.4769
   97SAPS  H16R 9678   5.844   1.569   7.515  0.5074 -0.8476 -3.1307
   97SAPS  H16S 9679   5.725   1.537   7.388  2.6564  1.0238 -1.4130
   97SAPS  C217 9680   5.637   1.595   7.583  0.6010 -0.2621 -0.0750
   97SAPS  H17R 9681   5.622   1.491   7.619 -0.1937  0.1703  0.8682
   97SAPS  H17S 9682   5.551   1.621   7.518  0.5874 -1.5182 -0.5787
   97SAPS  C218 9683   5.638   1.690   7.701 -0.6542 -0.2621 -0.0103
   97SAPS  H18R 9684   5.547   1.673   7.764 -0.1170  0.5843  1.0049
   97SAPS  H18S 9685   5.638   1.798   7.676  0.5095 -0.5470 -1.2983
   97SAPS  C219 9686   5.764   1.681   7.792 -0.7009  0.0061  0.3367
   97SAPS  H19R 9687   5.848   1.658   7.723  0.3205  1.0452  1.2358
   97SAPS  H19S 9688   5.754   1.590   7.855  1.9890  2.0220  3.7951
   97SAPS  C220 9689   5.804   1.796   7.887  0.0776 -0.2516  0.1003
   97SAPS  H20R 9690   5.877   1.765   7.965  1.3341  2.1089 -0.0941
   97SAPS  H20S 9691   5.721   1.844   7.944 -0.0894  1.4571 -1.5249
   97SAPS  H20T 9692   5.841   1.878   7.822 -0.4707 -0.0078  0.0906
   97SAPS   C33 9693   4.240   2.242   6.819 -0.3566  0.5055  0.1850
   97SAPS   H3X 9694   4.349   2.223   6.819  0.0049  2.0916  4.0020
   97SAPS   H3Y 9695   4.179   2.156   6.852 -0.3945  0.9819  1.3772
   97SAPS   C34 9696   4.209   2.361   6.911  0.0560  0.0249 -0.1949
   97SAPS   H4X 9697   4.100   2.361   6.931 -0.0372  0.1139 -0.7030
   97SAPS   H4Y 9698   4.247   2.450   6.858 -1.0559  0.6272  0.0036
   97SAPS   C35 9699   4.298   2.348   7.040  0.0260 -0.5682 -0.1198
   97SAPS   H5X 9700   4.406   2.355   7.015  0.3602 -0.6806  1.2807
   97SAPS   H5Y 9701   4.278   2.247   7.081 -1.3995  0.3086  1.4168
   97SAPS   C36 9702   4.270   2.449   7.155 -0.1167 -0.6812 -0.3725
   97SAPS   H6X 9703   4.172   2.501   7.153  0.5566  0.6009 -0.9054
   97SAPS   H6Y 9704   4.346   2.530   7.153  1.0087 -1.5842  2.5044
   97SAPS   C37 9705   4.285   2.387   7.297 -0.4758  0.4042  0.5740
   97SAPS   H7X 9706   4.385   2.338   7.308 -0.5890  0.4566  1.9941
   97SAPS   H7Y 9707   4.202   2.314   7.308 -1.2505  1.5246  2.4335
   97SAPS   C38 9708   4.277   2.486   7.417 -0.1605 -0.2080  0.2370
   97SAPS   H8X 9709   4.177   2.531   7.433  0.8726  1.8321  1.1062
   97SAPS   H8Y 9710   4.340   2.575   7.396  1.1248 -0.8967  1.1017
   97SAPS   C39 9711   4.335   2.430   7.550 -0.0751  0.3161  0.4368
   97SAPS   H9X 9712   4.443   2.416   7.527  0.0590  2.3924 -0.2623
   97SAPS   H9Y 9713   4.291   2.332   7.579  1.2814 -0.3316  0.3731
   97SAPS  C310 9714   4.322   2.520   7.665 -0.3719 -0.5845  0.5706
   97SAPS  H10X 9715   4.217   2.546   7.692 -0.2653 -0.0974  0.5223
   97SAPS  H10Y 9716   4.373   2.616   7.641 -0.2149 -0.5073  1.2026
   97SAPS  C311 9717   4.398   2.471   7.785 -0.0590 -0.3792  0.5604
   97SAPS  H11X 9718   4.506   2.464   7.760  0.0582 -0.5261  1.1180
   97SAPS  H11Y 9719   4.358   2.374   7.821  1.3763 -0.9065  0.7645
   97SAPS  C312 9720   4.392   2.579   7.884  0.3414 -0.2657  0.0022
   97SAPS  H12X 9721   4.285   2.603   7.900  0.5550  0.5764  0.1912
   97SAPS  H12Y 9722   4.429   2.676   7.843 -2.7669  0.1798 -1.9493
   97SAPS  C313 9723   4.450   2.550   8.022  0.8122  0.0745 -0.0049
   97SAPS  H13X 9724   4.561   2.541   8.022  0.8401  0.2357 -1.7422
   97SAPS  H13Y 9725   4.409   2.452   8.052 -4.3944  2.0952 -0.0285
   97SAPS  C314 9726   4.410   2.657   8.128  0.6288 -0.0819 -0.4341
   97SAPS  H14X 9727   4.304   2.654   8.161 -0.1057  2.1403 -2.3897
   97SAPS  H14Y 9728   4.435   2.755   8.081  1.8250  0.1610  0.6970
   97SAPS  C315 9729   4.490   2.668   8.260  0.2336  0.2583  0.7079
   97SAPS  H15X 9730   4.596   2.655   8.228  1.0036 -1.7032  3.8061
   97SAPS  H15Y 9731   4.452   2.581   8.318 -0.1248 -0.3602 -0.4504
   97SAPS  C316 9732   4.448   2.797   8.336  0.1341  0.1692 -0.1351
   97SAPS  H16X 9733   4.346   2.775   8.374  0.7278 -1.2638  0.6467
   97SAPS  H16Y 9734   4.454   2.892   8.278 -0.4751  0.1941 -0.1580
   97SAPS  C317 9735   4.543   2.830   8.451  0.1511  0.0338 -0.0471
   97SAPS  H17X 9736   4.638   2.865   8.407 -0.3452  1.9607  0.3450
   97SAPS  H17Y 9737   4.556   2.738   8.512  0.5522  0.8698  1.1361
   97SAPS  C318 9738   4.485   2.940   8.542  0.0484  0.7052 -0.1574
   97SAPS  H18X 9739   4.379   2.916   8.565  0.7636 -0.3284  2.2627
   97SAPS  H18Y 9740   4.486   3.031   8.478  0.9983  0.6605 -0.2089
   97SAPS  H18Z 9741   4.536   2.941   8.641  1.5824  1.9656 -0.9381
   98SAPS     N 9742   3.203   2.639   5.949 -1.0071 -0.3381 -0.6371
   98SAPS   HN1 9743   3.166   2.712   6.014 -0.3203 -0.1212 -0.4845
   98SAPS   HN2 9744   3.253   2.570   6.009 -1.0150 -0.8079 -1.1745
   98SAPS   HN3 9745   3.274   2.680   5.886 -0.4653  2.2678  1.5800
   98SAPS   C12 9746   3.093   2.574   5.876 -0.4371  0.0382 -0.2034
   98SAPS  H12A 9747   3.039   2.651   5.822  1.3258  1.3304 -0.1557
   98SAPS   C13 9748   3.145   2.479   5.765 -0.1223 -0.2892  0.6499
   98SAPS  O13A 9749   3.268   2.464   5.757  0.4234  0.3503 -0.5627
   98SAPS  O13B 9750   3.061   2.433   5.685  0.0173  0.0813 -0.9840
   98SAPS   C11 9751   3.009   2.493   5.977  0.2572  0.4766 -0.0282
   98SAPS  H11A 9752   3.070   2.425   6.040  0.1044  1.9090  1.7056
   98SAPS  H11B 9753   2.949   2.420   5.919  2.3178  0.3616 -2.1024
   98SAPS     P 9754   2.824   2.543   6.163 -0.0395 -0.2768  0.0713
   98SAPS   O13 9755   2.773   2.676   6.205  0.4172  0.5052  0.1494
   98SAPS   O14 9756   2.723   2.455   6.112  0.0883  0.6801 -0.7591
   98SAPS   O12 9757   2.925   2.581   6.049 -0.3148 -0.4861 -0.3634
   98SAPS   O11 9758   2.905   2.473   6.281 -0.7414 -0.1353  0.1499
   98SAPS    C1 9759   3.016   2.551   6.343  0.0274  0.1078  0.2914
   98SAPS    HA 9760   3.096   2.539   6.267 -1.1655  0.3801 -1.0215
   98SAPS    HB 9761   2.989   2.659   6.352 -3.2926 -0.5388 -0.9974
   98SAPS    C2 9762   3.056   2.497   6.482 -0.3433 -0.5212  0.5096
   98SAPS    HS 9763   3.066   2.388   6.464 -1.0492 -0.5792  0.4617
   98SAPS   O21 9764   2.950   2.529   6.571 -0.1014 -0.0586 -0.0266
   98SAPS   C21 9765   2.925   2.447   6.659  0.1962  0.6289 -0.4997
   98SAPS   O22 9766   2.970   2.331   6.668  0.0801 -0.4942  0.2296
   98SAPS   C22 9767   2.819   2.508   6.745  0.2276  0.3565  0.3733
   98SAPS   H2R 9768   2.746   2.556   6.676  0.4788  2.3184  1.4496
   98SAPS   H2S 9769   2.769   2.423   6.795  0.7932 -1.2686 -1.7360
   98SAPS    C3 9770   3.191   2.555   6.516  0.3039  0.0901 -0.1207
   98SAPS    HX 9771   3.187   2.665   6.531 -0.2680  0.0618 -0.0486
   98SAPS    HY 9772   3.261   2.541   6.431  1.2764 -0.3598  0.7463
   98SAPS   O31 9773   3.243   2.491   6.629 -0.0206  0.6303 -0.0203
   98SAPS   C31 9774   3.316   2.382   6.616  0.5840  0.2256 -0.2223
   98SAPS   O32 9775   3.320   2.311   6.517 -0.5654  0.6378  0.6582
   98SAPS   C32 9776   3.424   2.364   6.729 -0.8175 -0.0006  0.2785
   98SAPS   H2X 9777   3.520   2.404   6.688  0.5345 -1.5795  1.7990
   98SAPS   H2Y 9778   3.441   2.255   6.733 -0.2718  0.0492 -0.4319
   98SAPS   C23 9779   2.891   2.606   6.843  0.1257 -0.6112  0.5749
   98SAPS   H3R 9780   2.829   2.649   6.924  2.1755  0.1752  1.7732
   98SAPS   H3S 9781   2.943   2.685   6.785 -1.1803 -0.4312 -0.3665
   98SAPS   C24 9782   3.004   2.542   6.929 -0.3162  0.5408 -0.0985
   98SAPS   H4R 9783   3.033   2.625   6.998 -1.1324  0.9581 -0.2448
   98SAPS   H4S 9784   3.100   2.514   6.882  0.3621  1.0221  0.9700
   98SAPS   C25 9785   2.945   2.439   7.020 -0.1242 -0.1620 -0.4682
   98SAPS   H5R 9786   2.884   2.360   6.974 -2.3515  1.7120 -0.8445
   98SAPS   C26 9787   2.970   2.424   7.151  0.3991  0.3693  0.5564
   98SAPS   H6R 9788   2.911   2.348   7.204 -0.7491  1.6598  1.1544
   98SAPS   C27 9789   3.057   2.505   7.240  0.3968  0.6017  0.6789
   98SAPS   H7R 9790   3.135   2.552   7.175  0.5860  0.7095  0.9827
   98SAPS   H7S 9791   3.107   2.430   7.305 -0.2753 -2.2555 -1.9422
   98SAPS   C28 9792   2.993   2.614   7.322 -0.1749 -0.0221 -0.0297
   98SAPS   H8R 9793   2.921   2.677   7.268 -0.3298 -0.3376 -0.1952
   98SAPS   C29 9794   3.031   2.659   7.439  0.3082 -0.7205 -0.2597
   98SAPS   H9R 9795   2.975   2.739   7.490  1.1454 -0.6571  0.5608
   98SAPS  C210 9796   3.138   2.612   7.527  0.6714 -0.1959 -0.2073
   98SAPS  H10R 9797   3.228   2.588   7.468  0.5647 -0.9820 -0.0575
   98SAPS  H10S 9798   3.116   2.514   7.575  3.2414  0.3017  2.0992
   98SAPS  C211 9799   3.186   2.711   7.627 -0.4558 -0.2917  0.4820
   98SAPS  H11R 9800   3.268   2.774   7.590  0.2234 -1.2850  0.2927
   98SAPS  C212 9801   3.133   2.735   7.749  0.0561 -0.2633  0.4235
   98SAPS  H12R 9802   3.188   2.809   7.809  1.9216  1.2321 -2.9889
   98SAPS  C213 9803   3.011   2.658   7.798 -0.5133 -0.3831  0.0294
   98SAPS  H13R 9804   2.962   2.615   7.707  1.0197 -1.2187 -0.4136
   98SAPS  H13S 9805   2.943   2.722   7.858 -0.8179 -1.5917  0.9876
   98SAPS  C214 9806   3.064   2.549   7.888  0.3833 -0.0224  0.2033
   98SAPS  H14R 9807   3.094   2.455   7.840  0.0199 -1.2077  2.2447
   98SAPS  C215 9808   3.092   2.559   8.020 -0.4595 -0.5531 -0.4066
   98SAPS  H15R 9809   3.118   2.466   8.071  3.0577  0.4968 -0.1660
   98SAPS  C216 9810   3.071   2.680   8.107 -1.3550 -0.8941 -0.6492
   98SAPS  H16R 9811   3.051   2.641   8.210  3.3939 -2.0608 -0.0634
   98SAPS  H16S 9812   2.987   2.737   8.062  0.6831  1.8651 -1.0107
   98SAPS  C217 9813   3.196   2.763   8.109 -0.8312  0.0319 -0.4117
   98SAPS  H17R 9814   3.232   2.784   8.006  0.3014 -0.7196 -0.1847
   98SAPS  H17S 9815   3.272   2.694   8.153  0.2409 -0.1245 -2.4507
   98SAPS  C218 9816   3.176   2.897   8.187  0.1830 -0.1679 -0.6358
   98SAPS  H18R 9817   3.118   2.883   8.280 -0.0838  1.0866 -0.6119
   98SAPS  H18S 9818   3.119   2.960   8.116  1.5873  3.2687  1.1779
   98SAPS  C219 9819   3.312   2.958   8.218 -0.2530  0.0402  0.2422
   98SAPS  H19R 9820   3.288   3.061   8.254 -0.5246  0.4655 -1.1125
   98SAPS  H19S 9821   3.375   2.952   8.126  1.8308 -1.2597  1.7198
   98SAPS  C220 9822   3.386   2.888   8.332 -0.9705 -0.2838  0.7716
   98SAPS  H20R 9823   3.333   2.926   8.422  0.6183  1.2525  1.0821
   98SAPS  H20S 9824   3.494   2.915   8.332 -0.7229 -1.2433  0.6409
   98SAPS  H20T 9825   3.388   2.777   8.330 -0.3918 -0.2572 -0.0103
   98SAPS   C33 9826   3.393   2.423   6.860 -0.4650 -0.0364 -0.3414
   98SAPS   H3X 9827   3.293   2.381   6.887  0.0719 -0.2029  1.5093
   98SAPS   H3Y 9828   3.393   2.534   6.855  0.7735  0.0242  0.8678
   98SAPS   C34 9829   3.483   2.367   6.970  0.5924  0.3621  0.4730
   98SAPS   H4X 9830   3.592   2.388   6.959  0.6049 -0.7274 -1.8465
   98SAPS   H4Y 9831   3.494   2.256   6.971 -0.7561  0.1932 -1.5340
   98SAPS   C35 9832   3.435   2.430   7.103 -0.4921 -0.3564  0.8040
   98SAPS   H5X 9833   3.327   2.408   7.109 -0.3418 -0.9795  1.1987
   98SAPS   H5Y 9834   3.458   2.538   7.089  2.3425 -0.9608  0.4190
   98SAPS   C36 9835   3.510   2.365   7.223  0.3665 -0.5901  0.3418
   98SAPS   H6X 9836   3.619   2.388   7.223  0.2481  0.1524 -2.2621
   98SAPS   H6Y 9837   3.505   2.254   7.232  1.4182 -0.7245 -0.5715
   98SAPS   C37 9838   3.443   2.423   7.345 -0.1124 -0.4536  0.0658
   98SAPS   H7X 9839   3.345   2.374   7.367 -0.7485  0.9569  0.4291
   98SAPS   H7Y 9840   3.429   2.532   7.327 -1.2164 -0.4604  0.7962
   98SAPS   C38 9841   3.522   2.407   7.478 -0.6932  0.0862 -0.2664
   98SAPS   H8X 9842   3.622   2.455   7.463 -1.1356  0.3623 -2.5380
   98SAPS   H8Y 9843   3.519   2.299   7.501  0.1135  0.2214  0.4991
   98SAPS   C39 9844   3.459   2.476   7.601  0.0295  0.4667  0.0712
   98SAPS   H9X 9845   3.357   2.432   7.602  0.2239 -0.0374 -1.3496
   98SAPS   H9Y 9846   3.471   2.586   7.587  0.4602  0.7396  2.2955
   98SAPS  C310 9847   3.540   2.434   7.725  0.6233  1.0731 -0.1824
   98SAPS  H10X 9848   3.646   2.417   7.696  0.2797 -2.0030  0.1831
   98SAPS  H10Y 9849   3.492   2.335   7.743  0.2456  0.3294 -4.8016
   98SAPS  C311 9850   3.514   2.513   7.852  0.7440  0.9019  0.2383
   98SAPS  H11X 9851   3.411   2.553   7.853  0.3377 -0.1056  3.0761
   98SAPS  H11Y 9852   3.578   2.603   7.862  0.2518  1.2052  0.7092
   98SAPS  C312 9853   3.530   2.422   7.984  0.0898 -0.3396  0.6865
   98SAPS  H12X 9854   3.615   2.352   7.968 -0.8488 -1.2297 -0.4038
   98SAPS  H12Y 9855   3.441   2.361   8.007 -1.0916  1.4777  1.0461
   98SAPS  C313 9856   3.568   2.506   8.108  0.0548 -0.8609  0.7794
   98SAPS  H13X 9857   3.482   2.576   8.121  0.6465 -0.7047  4.5417
   98SAPS  H13Y 9858   3.660   2.568   8.097 -0.4571 -0.5040 -1.8335
   98SAPS  C314 9859   3.574   2.417   8.233  0.3324  0.4803  0.0769
   98SAPS  H14X 9860   3.677   2.376   8.220 -0.4028 -1.2327 -0.5249
   98SAPS  H14Y 9861   3.494   2.340   8.227 -0.3850  1.2139  0.1848
   98SAPS  C315 9862   3.556   2.496   8.363  0.7180  0.6792 -0.3970
   98SAPS  H15X 9863   3.451   2.534   8.358  0.6007  0.4382  0.1310
   98SAPS  H15Y 9864   3.623   2.582   8.342 -0.5842  1.6736 -0.5724
   98SAPS  C316 9865   3.569   2.404   8.480 -0.6620  0.1741 -1.3018
   98SAPS  H16X 9866   3.613   2.463   8.564  0.1830 -1.2727 -0.7022
   98SAPS  H16Y 9867   3.639   2.320   8.461 -2.5687 -1.7709 -0.0012
   98SAPS  C317 9868   3.442   2.340   8.522  0.1568  0.2632 -0.1838
   98SAPS  H17X 9869   3.396   2.281   8.439  0.0048 -1.2631  0.9541
   98SAPS  H17Y 9870   3.375   2.421   8.558 -0.0261  1.1826 -2.5410
   98SAPS  C318 9871   3.459   2.244   8.646  0.2348  0.5578 -0.2488
   98SAPS  H18X 9872   3.364   2.196   8.681  0.9414 -1.6732 -1.3153
   98SAPS  H18Y 9873   3.496   2.296   8.737 -0.6150 -2.2878  1.8124
   98SAPS  H18Z 9874   3.531   2.165   8.617 -0.1322  0.1259  0.0001
   99SAPS     N 9875   1.720   6.244   6.047  0.5468 -0.2700 -0.4261
   99SAPS   HN1 9876   1.666   6.167   6.004 -1.7773  0.8393  0.4488
   99SAPS   HN2 9877   1.814   6.207   6.070  0.0260 -1.0990  0.3828
   99SAPS   HN3 9878   1.663   6.249   6.134 -0.2124  1.0481 -0.9785
   99SAPS   C12 9879   1.728   6.380   5.984  0.5868  0.1197 -0.3488
   99SAPS  H12A 9880   1.795   6.362   5.902 -0.1815 -2.0228 -0.5449
   99SAPS   C13 9881   1.592   6.427   5.933  0.1922 -0.2779  0.6924
   99SAPS  O13A 9882   1.503   6.334   5.912  0.1146  0.1985 -0.0216
   99SAPS  O13B 9883   1.598   6.520   5.849  0.8000  0.3972 -0.5835
   99SAPS   C11 9884   1.773   6.474   6.101 -0.2657  0.0547 -0.7281
   99SAPS  H11A 9885   1.698   6.466   6.183 -0.6905  0.7942 -1.0350
   99SAPS  H11B 9886   1.780   6.575   6.054  0.0952 -1.4887 -4.1771
   99SAPS     P 9887   1.990   6.538   6.231  0.4382 -0.2305  0.1201
   99SAPS   O13 9888   2.129   6.498   6.212 -0.0298 -0.2359  0.0039
   99SAPS   O14 9889   1.955   6.678   6.198  0.4818  0.8264 -0.0094
   99SAPS   O12 9890   1.902   6.438   6.154  0.0378 -0.2531 -0.2225
   99SAPS   O11 9891   1.943   6.509   6.377  0.1246  0.0046 -0.0689
   99SAPS    C1 9892   1.881   6.389   6.414 -0.2236  0.3155 -0.4734
   99SAPS    HA 9893   1.793   6.364   6.351  0.5714 -0.7886 -1.1588
   99SAPS    HB 9894   1.951   6.303   6.405 -2.1648 -1.4403  0.6094
   99SAPS    C2 9895   1.863   6.385   6.569 -0.0064 -0.0613  0.0024
   99SAPS    HS 9896   1.831   6.284   6.603 -0.5653  0.3492  0.7115
   99SAPS   O21 9897   1.760   6.476   6.610 -0.7005  0.2475 -0.2039
   99SAPS   C21 9898   1.634   6.447   6.583 -0.8025 -0.6448 -0.1992
   99SAPS   O22 9899   1.594   6.354   6.516  0.5363 -0.0750 -0.0483
   99SAPS   C22 9900   1.552   6.555   6.655 -0.8801 -0.5846 -0.1839
   99SAPS   H2R 9901   1.510   6.620   6.575  0.2806  1.6843  1.0150
   99SAPS   H2S 9902   1.464   6.505   6.702  0.3497 -0.9710  1.7221
   99SAPS    C3 9903   1.994   6.421   6.645 -0.3584 -0.3367 -0.2898
   99SAPS    HX 9904   2.020   6.521   6.605 -0.4869 -0.1152  0.1773
   99SAPS    HY 9905   2.074   6.347   6.623  1.1749  0.9605  0.8198
   99SAPS   O31 9906   1.977   6.423   6.791  0.3564  0.2742  0.1700
   99SAPS   C31 9907   2.015   6.532   6.851  0.7237  0.0633 -0.7331
   99SAPS   O32 9908   2.049   6.638   6.800  0.3946  0.2345  0.3000
   99SAPS   C32 9909   1.990   6.515   7.000  0.4660  0.0216  0.1836
   99SAPS   H2X 9910   2.089   6.502   7.049  1.5296  1.8413 -1.4625
   99SAPS   H2Y 9911   1.938   6.418   7.018 -0.4684  0.6971  1.2270
   99SAPS   C23 9912   1.631   6.624   6.761  0.2615  0.2103 -0.4113
   99SAPS   H3R 9913   1.713   6.674   6.706 -1.1657  0.8336 -2.0172
   99SAPS   H3S 9914   1.685   6.555   6.830  1.1896  1.0124 -0.3267
   99SAPS   C24 9915   1.546   6.712   6.849  0.0095  0.1358  0.0767
   99SAPS   H4R 9916   1.477   6.774   6.787  0.0993 -1.5122 -1.7158
   99SAPS   H4S 9917   1.611   6.777   6.911  0.7961 -1.4422  0.9305
   99SAPS   C25 9918   1.454   6.630   6.939 -0.2046  0.2482 -0.4746
   99SAPS   H5R 9919   1.377   6.571   6.886  0.7850 -2.0590  0.5627
   99SAPS   C26 9920   1.444   6.637   7.077 -0.3425  0.1525  0.4817
   99SAPS   H6R 9921   1.360   6.582   7.120  0.2062 -1.8643 -0.9520
   99SAPS   C27 9922   1.533   6.724   7.164  0.1295  0.4539 -0.5114
   99SAPS   H7R 9923   1.517   6.833   7.150  1.1776  0.6031 -0.5878
   99SAPS   H7S 9924   1.634   6.708   7.122 -0.3469  0.6761 -1.7603
   99SAPS   C28 9925   1.535   6.679   7.303  0.0676  0.1454 -0.0847
   99SAPS   H8R 9926   1.582   6.581   7.322 -2.7614 -1.0709  0.9929
   99SAPS   C29 9927   1.464   6.740   7.406 -0.1508 -0.2227  0.7283
   99SAPS   H9R 9928   1.463   6.695   7.507  1.3441 -1.1004  0.3541
   99SAPS  C210 9929   1.366   6.858   7.390  0.1130 -0.6995  0.1740
   99SAPS  H10R 9930   1.340   6.869   7.282 -1.5543 -0.2599  0.6079
   99SAPS  H10S 9931   1.422   6.952   7.413 -0.1482 -1.0310  2.2125
   99SAPS  C211 9932   1.236   6.841   7.457  0.1058  0.0025  0.6514
   99SAPS  H11R 9933   1.177   6.757   7.417 -0.0856 -0.3594  1.6748
   99SAPS  C212 9934   1.198   6.914   7.567 -0.3762  0.0600  0.4854
   99SAPS  H12R 9935   1.096   6.891   7.601 -0.1191 -1.9397 -0.0160
   99SAPS  C213 9936   1.281   7.012   7.648 -0.2022  0.3875  0.2345
   99SAPS  H13R 9937   1.214   7.085   7.697  1.3971  2.5946 -0.7410
   99SAPS  H13S 9938   1.358   7.064   7.586  2.3665 -1.2062  2.0040
   99SAPS  C214 9939   1.352   6.924   7.744 -0.1338 -0.0622 -0.0353
   99SAPS  H14R 9940   1.459   6.922   7.720  0.1277 -0.8564  1.1155
   99SAPS  C215 9941   1.303   6.870   7.858 -0.0681 -0.7606  0.2492
   99SAPS  H15R 9942   1.369   6.817   7.928  0.7526  0.7345  0.6374
   99SAPS  C216 9943   1.153   6.875   7.893 -0.0437 -0.4209  0.3681
   99SAPS  H16R 9944   1.081   6.922   7.823  0.2627  2.1488  1.7071
   99SAPS  H16S 9945   1.131   6.947   7.975 -0.8392 -0.1749 -0.0596
   99SAPS  C217 9946   1.099   6.730   7.938  0.3833 -0.2814  0.4211
   99SAPS  H17R 9947   1.177   6.688   8.005 -0.0533 -1.1225  0.4127
   99SAPS  H17S 9948   1.100   6.668   7.846  2.2204 -2.9250  2.1565
   99SAPS  C218 9949   0.967   6.743   8.008  0.7058 -0.4837 -0.1123
   99SAPS  H18R 9950   0.893   6.792   7.941 -0.6546 -1.5175  0.6091
   99SAPS  H18S 9951   0.983   6.818   8.089  0.2078  0.5554 -0.9648
   99SAPS  C219 9952   0.909   6.610   8.053 -0.3351  0.7162 -0.3634
   99SAPS  H19R 9953   0.974   6.557   8.126 -0.4470  1.5711  0.3628
   99SAPS  H19S 9954   0.895   6.549   7.961  2.1662  0.4286 -0.5635
   99SAPS  C220 9955   0.781   6.633   8.137 -0.2691  0.0793  0.5147
   99SAPS  H20R 9956   0.792   6.672   8.240  1.7601 -0.9030  0.6892
   99SAPS  H20S 9957   0.723   6.539   8.156  1.5803 -0.4735  3.7102
   99SAPS  H20T 9958   0.708   6.700   8.087  0.6189  0.1786 -0.6754
   99SAPS   C33 9959   1.914   6.638   7.058  0.0848 -0.7078  0.9343
   99SAPS   H3X 9960   1.818   6.643   7.002  1.7447  0.4920 -1.9259
   99SAPS   H3Y 9961   1.962   6.736   7.038 -1.2828 -0.4718 -1.3818
   99SAPS   C34 9962   1.890   6.616   7.202  0.7154 -0.3479  0.1250
   99SAPS   H4X 9963   1.863   6.512   7.229  0.2095 -0.3214 -0.2753
   99SAPS   H4Y 9964   1.811   6.689   7.230 -1.0857 -1.6185 -1.5275
   99SAPS   C35 9965   2.006   6.655   7.299 -0.4534  0.3602 -0.2849
   99SAPS   H5X 9966   2.011   6.766   7.291  1.8448  0.2134 -1.2415
   99SAPS   H5Y 9967   2.109   6.626   7.267 -0.2023  0.1052  0.7187
   99SAPS   C36 9968   1.993   6.607   7.438 -0.0947 -0.0847  0.4877
   99SAPS   H6X 9969   2.090   6.620   7.491 -1.4190 -0.0422  2.9856
   99SAPS   H6Y 9970   1.964   6.499   7.440 -1.5444  0.2956  1.4088
   99SAPS   C37 9971   1.885   6.677   7.517  0.1753 -0.2505 -0.4298
   99SAPS   H7X 9972   1.785   6.682   7.469  1.6763  0.3168 -3.6038
   99SAPS   H7Y 9973   1.911   6.785   7.521 -0.7587  0.0423 -1.9757
   99SAPS   C38 9974   1.871   6.627   7.657  0.2652 -0.4494  0.2969
   99SAPS   H8X 9975   1.945   6.673   7.726 -0.5915 -0.7774  1.4610
   99SAPS   H8Y 9976   1.902   6.520   7.656  2.1781  0.0869 -0.8569
   99SAPS   C39 9977   1.731   6.629   7.718  0.3451 -0.4728  0.2772
   99SAPS   H9X 9978   1.724   6.560   7.805 -0.8645 -0.3036  0.3208
   99SAPS   H9Y 9979   1.663   6.573   7.651  1.0318 -0.1153 -0.7209
   99SAPS  C310 9980   1.679   6.764   7.763  0.0830  0.0883  0.5825
   99SAPS  H10X 9981   1.575   6.756   7.803 -0.0385  4.1920  1.3243
   99SAPS  H10Y 9982   1.672   6.824   7.670  1.3473  0.7384  0.8959
   99SAPS  C311 9983   1.755   6.840   7.872  0.7229  0.3485 -0.6084
   99SAPS  H11X 9984   1.697   6.933   7.890 -0.1700 -0.2164 -0.5402
   99SAPS  H11Y 9985   1.858   6.863   7.836  1.8204 -1.7448  1.1338
   99SAPS  C312 9986   1.785   6.761   8.000  0.2815 -0.5673  0.8305
   99SAPS  H12X 9987   1.842   6.672   7.964 -2.9409 -1.6247 -1.8911
   99SAPS  H12Y 9988   1.694   6.716   8.044 -1.4125 -0.8117 -2.7393
   99SAPS  C313 9989   1.849   6.837   8.120  0.2328  0.3369 -0.0687
   99SAPS  H13X 9990   1.773   6.912   8.151 -0.0320  0.3934 -0.8580
   99SAPS  H13Y 9991   1.950   6.871   8.090  0.9831 -0.8638  1.0155
   99SAPS  C314 9992   1.863   6.735   8.242 -0.2396  0.8174 -0.7676
   99SAPS  H14X 9993   1.898   6.634   8.213 -0.0716  0.9387 -0.9896
   99SAPS  H14Y 9994   1.761   6.721   8.284  0.7107  1.1294  1.7058
   99SAPS  C315 9995   1.954   6.792   8.347 -0.3057  0.0876 -0.3147
   99SAPS  H15X 9996   1.928   6.899   8.365  1.1064  0.4524 -0.4373
   99SAPS  H15Y 9997   2.050   6.799   8.292  0.2995 -1.2501  0.5538
   99SAPS  C316 9998   1.955   6.714   8.476  0.3329 -0.5516  0.6076
   99SAPS  H16X 9999   1.943   6.605   8.458 -1.0266 -0.3106  0.0076
   99SAPS  H16Y10000   1.866   6.752   8.530 -0.1106 -0.8337  0.0863
   99SAPS  C31710001   2.076   6.740   8.569 -0.4130  0.1591  0.1230
   99SAPS  H17X10002   2.091   6.849   8.581  1.4787  0.3058 -3.0129
   99SAPS  H17Y10003   2.174   6.706   8.531 -0.0204  1.6340 -0.2221
   99SAPS  C31810004   2.060   6.666   8.697 -0.4898 -0.1598 -0.0806
   99SAPS  H18X10005   2.157   6.668   8.752  0.1627  3.3661 -1.2502
   99SAPS  H18Y10006   2.031   6.561   8.672 -1.2014 -0.2862  1.2181
   99SAPS  H18Z10007   1.976   6.693   8.764 -1.2550  0.1051 -1.1324
  100SAPS     N10008   5.293   1.148   6.102 -0.4489  0.7174  0.1767
  100SAPS   HN110009   5.358   1.202   6.041  0.2713  1.3169  1.4679
  100SAPS   HN210010   5.274   1.191   6.195 -1.5550  0.0719  0.2583
  100SAPS   HN310011   5.337   1.056   6.121  2.0564  1.7175 -0.5567
  100SAPS   C1210012   5.175   1.137   6.021 -0.1871 -1.0575  0.1013
  100SAPS  H12A10013   5.122   1.230   6.025  0.6027 -0.5720 -0.6427
  100SAPS   C1310014   5.210   1.117   5.871 -0.1489  0.6759 -0.3362
  100SAPS  O13A10015   5.321   1.149   5.821  0.7369  0.3622 -0.3143
  100SAPS  O13B10016   5.116   1.077   5.801  0.1252  0.5813 -0.0698
  100SAPS   C1110017   5.096   1.019   6.091  0.7272  0.0409 -0.4691
  100SAPS  H11A10018   5.149   0.922   6.073 -0.8463 -0.5696 -1.9373
  100SAPS  H11B10019   4.999   1.007   6.039  0.4168  0.8591 -0.0793
  100SAPS     P10020   4.931   1.118   6.274 -0.4111 -0.5532  0.0419
  100SAPS   O1310021   4.939   1.247   6.204 -0.3242 -0.1593 -0.2148
  100SAPS   O1410022   4.804   1.039   6.263 -0.7641 -0.1098 -0.2372
  100SAPS   O1210023   5.058   1.028   6.225 -0.0569  0.2115 -0.6441
  100SAPS   O1110024   4.973   1.133   6.433  0.1744 -0.0209 -0.8346
  100SAPS    C110025   5.108   1.138   6.473  0.5554 -0.3471  0.2300
  100SAPS    HA10026   5.164   1.047   6.442  0.8512  1.1085 -3.9148
  100SAPS    HB10027   5.165   1.230   6.449  0.7526 -0.4339  0.3648
  100SAPS    C210028   5.110   1.145   6.628  0.0716  0.1477  0.5469
  100SAPS    HS10029   5.214   1.158   6.665 -0.6295  0.9022  2.3366
  100SAPS   O2110030   5.047   1.034   6.690 -0.0641 -0.2354  0.0706
  100SAPS   C2110031   5.115   0.924   6.706 -1.1304 -0.4637  0.3863
  100SAPS   O2210032   5.230   0.904   6.677 -0.2012  0.1273 -0.3804
  100SAPS   C2210033   5.031   0.828   6.786  0.2129  0.9123  0.5759
  100SAPS   H2R10034   4.925   0.848   6.759 -0.1127 -0.5057  0.7808
  100SAPS   H2S10035   5.050   0.729   6.740 -0.8136  1.6861 -1.5632
  100SAPS    C310036   5.031   1.271   6.656 -0.2506  0.6409  0.1807
  100SAPS    HX10037   4.925   1.250   6.629 -0.0547  0.0632 -0.1295
  100SAPS    HY10038   5.068   1.360   6.601 -1.7169  0.7450 -0.6714
  100SAPS   O3110039   5.022   1.294   6.800  0.4045  0.1144  0.5135
  100SAPS   C3110040   5.115   1.363   6.848  0.1523 -0.2071 -0.1161
  100SAPS   O3210041   5.208   1.422   6.795  0.1612  0.1456  0.3645
  100SAPS   C3210042   5.082   1.381   6.998 -0.5508 -0.0269 -0.4023
  100SAPS   H2X10043   5.056   1.279   7.034 -0.2226  0.4307  1.1830
  100SAPS   H2Y10044   4.990   1.444   7.000 -0.1747  0.5012  0.6445
  100SAPS   C2310045   5.067   0.822   6.936  0.1550  0.0816  0.2210
  100SAPS   H3R10046   5.171   0.791   6.960 -0.4634 -2.8473 -0.5944
  100SAPS   H3S10047   4.995   0.746   6.974  1.4107 -1.7192 -0.8922
  100SAPS   C2410048   5.043   0.951   7.015  0.5050  0.0320 -0.2337
  100SAPS   H4R10049   5.116   1.029   6.983 -0.3334  1.0486  0.2785
  100SAPS   H4S10050   5.083   0.929   7.117  0.8891 -0.8767 -0.5841
  100SAPS   C2510051   4.901   1.009   7.024 -1.2368 -0.5946 -0.1248
  100SAPS   H5R10052   4.858   1.047   6.930  0.9923  1.0237 -0.5463
  100SAPS   C2610053   4.832   1.022   7.140 -0.4781 -0.5240 -0.0065
  100SAPS   H6R10054   4.730   1.061   7.130  0.9265  3.0061 -1.0448
  100SAPS   C2710055   4.893   0.988   7.275  0.2552 -0.6361  0.1229
  100SAPS   H7R10056   4.961   0.901   7.283  0.7998 -0.1068  1.3199
  100SAPS   H7S10057   4.805   0.952   7.333  0.6040 -2.1337 -0.2608
  100SAPS   C2810058   4.964   1.112   7.329  0.5916 -0.1565 -0.1420
  100SAPS   H8R10059   5.023   1.171   7.258  2.5497 -0.6985  1.0176
  100SAPS   C2910060   4.992   1.141   7.457  0.0470  0.0309  0.1283
  100SAPS   H9R10061   5.066   1.218   7.482  0.3374  0.3498 -1.6390
  100SAPS  C21010062   4.944   1.060   7.578 -0.0817  0.2646 -1.0247
  100SAPS  H10R10063   5.021   1.052   7.658  2.0401 -1.2982 -3.1636
  100SAPS  H10S10064   4.930   0.952   7.552  1.0044 -1.0237  3.3660
  100SAPS  C21110065   4.813   1.100   7.638  0.1249 -0.5443  0.0878
  100SAPS  H11R10066   4.729   1.031   7.622 -1.0722  1.1834 -1.4202
  100SAPS  C21210067   4.786   1.212   7.710  0.2802  0.6177 -0.6730
  100SAPS  H12R10068   4.687   1.231   7.753  1.1957  0.4677  1.5562
  100SAPS  C21310069   4.885   1.321   7.738  0.2395 -0.2490  0.6581
  100SAPS  H13R10070   4.990   1.288   7.724  0.4102 -0.8717  3.0959
  100SAPS  H13S10071   4.881   1.350   7.846 -0.5271 -0.7522  0.7741
  100SAPS  C21410072   4.853   1.450   7.661 -0.0823  1.0665  0.0213
  100SAPS  H14R10073   4.885   1.450   7.556 -0.8442 -0.5188 -0.2272
  100SAPS  C21510074   4.778   1.553   7.702  0.0258  0.3639  0.1952
  100SAPS  H15R10075   4.770   1.641   7.637 -0.0321  0.7944  0.7770
  100SAPS  C21610076   4.717   1.566   7.839  0.0822 -0.5491 -0.3692
  100SAPS  H16R10077   4.698   1.468   7.887  2.8709 -0.0187  1.9984
  100SAPS  H16S10078   4.614   1.606   7.823  0.1690  0.0411  0.5014
  100SAPS  C21710079   4.790   1.661   7.935  0.7552  0.1908 -0.1239
  100SAPS  H17R10080   4.768   1.766   7.903 -4.6348  0.3048  3.4533
  100SAPS  H17S10081   4.897   1.635   7.920  1.0894  2.7776 -2.9195
  100SAPS  C21810082   4.749   1.651   8.084  0.4706  0.3911 -0.0724
  100SAPS  H18R10083   4.753   1.543   8.110 -0.7763  0.2665 -0.3603
  100SAPS  H18S10084   4.651   1.702   8.097  2.0793  3.3303  1.0224
  100SAPS  C21910085   4.854   1.731   8.164 -0.1615  0.0719 -0.1242
  100SAPS  H19R10086   4.861   1.832   8.117 -0.1752 -0.1403 -0.5845
  100SAPS  H19S10087   4.952   1.680   8.154 -0.1202  0.2765 -0.7767
  100SAPS  C22010088   4.817   1.749   8.308 -0.5427  0.3647  0.7458
  100SAPS  H20R10089   4.913   1.776   8.358 -1.3013  0.4859  2.1677
  100SAPS  H20S10090   4.774   1.654   8.346  1.4082 -0.7529  0.2518
  100SAPS  H20T10091   4.748   1.835   8.320  1.2373  1.5694  2.9668
  100SAPS   C3310092   5.201   1.436   7.080 -0.2169 -0.1946 -0.1802
  100SAPS   H3X10093   5.207   1.547   7.075  0.5410 -0.3056 -3.0474
  100SAPS   H3Y10094   5.297   1.399   7.038 -0.0303  0.3858 -0.2767
  100SAPS   C3410095   5.204   1.389   7.226  0.2318 -0.3789 -0.5426
  100SAPS   H4X10096   5.218   1.278   7.219 -2.7727 -0.8772  0.8752
  100SAPS   H4Y10097   5.114   1.424   7.280 -0.5120 -1.9816 -0.6902
  100SAPS   C3510098   5.331   1.440   7.290  0.4032 -0.1210 -0.2171
  100SAPS   H5X10099   5.319   1.549   7.306 -1.6093 -0.5725  1.5771
  100SAPS   H5Y10100   5.428   1.410   7.244 -1.3412 -0.9276 -3.4934
  100SAPS   C3610101   5.346   1.394   7.438  0.8016 -0.5809  0.1666
  100SAPS   H6X10102   5.451   1.424   7.456  0.8219 -0.6522  0.1635
  100SAPS   H6Y10103   5.328   1.285   7.450 -1.6544 -0.1512  0.7341
  100SAPS   C3710104   5.258   1.474   7.540  0.1845 -0.0697  0.2190
  100SAPS   H7X10105   5.153   1.457   7.509 -0.1204  0.7159  0.8276
  100SAPS   H7Y10106   5.286   1.581   7.536  0.9414 -0.1684  2.2594
  100SAPS   C3810107   5.272   1.408   7.680 -0.1379  0.6124 -0.1318
  100SAPS   H8X10108   5.380   1.384   7.690 -0.4546 -1.5356 -1.4721
  100SAPS   H8Y10109   5.230   1.305   7.683  2.0917 -0.2889  1.8069
  100SAPS   C3910110   5.229   1.490   7.802  0.7949 -0.4463 -0.0609
  100SAPS   H9X10111   5.129   1.535   7.784  0.9467 -0.1194 -0.0776
  100SAPS   H9Y10112   5.310   1.563   7.820 -0.9404  1.0124  2.2174
  100SAPS  C31010113   5.199   1.406   7.927  0.1655 -0.2106  0.8970
  100SAPS  H10X10114   5.105   1.348   7.914  0.1490 -0.2487  1.1808
  100SAPS  H10Y10115   5.175   1.485   8.001 -1.4561  1.5972 -1.5024
  100SAPS  C31110116   5.315   1.313   7.970  0.5233  0.4053 -0.5111
  100SAPS  H11X10117   5.318   1.240   7.887 -0.4010 -0.5251  0.2705
  100SAPS  H11Y10118   5.280   1.262   8.062 -0.3234 -0.1802 -1.1638
  100SAPS  C31210119   5.450   1.384   7.984  0.0044 -0.0657 -0.0380
  100SAPS  H12X10120   5.492   1.428   7.891 -2.3298  0.5040 -0.8640
  100SAPS  H12Y10121   5.523   1.306   8.017  2.3054  1.6528 -0.9703
  100SAPS  C31310122   5.451   1.486   8.100 -0.1790  0.4464 -0.8476
  100SAPS  H13X10123   5.407   1.448   8.195  0.3907  1.1697 -0.2867
  100SAPS  H13Y10124   5.389   1.573   8.070  0.7498  1.1251 -0.8305
  100SAPS  C31410125   5.591   1.550   8.129 -0.1688  0.1695 -1.4032
  100SAPS  H14X10126   5.627   1.582   8.029 -2.2705  2.9012 -1.3493
  100SAPS  H14Y10127   5.657   1.466   8.159 -0.3659  0.8641  1.0337
  100SAPS  C31510128   5.587   1.655   8.231 -0.3762  0.8037 -0.6025
  100SAPS  H15X10129   5.565   1.608   8.329  2.6533 -0.3073 -0.3989
  100SAPS  H15Y10130   5.515   1.738   8.217 -1.6610  0.0511  1.4033
  100SAPS  C31610131   5.726   1.710   8.242 -0.2974 -0.1962  0.3099
  100SAPS  H16X10132   5.765   1.717   8.138 -1.0895 -1.6363 -0.1022
  100SAPS  H16Y10133   5.793   1.629   8.277 -1.6348  0.2605  4.2521
  100SAPS  C31710134   5.727   1.827   8.337  0.4103 -0.3471 -0.1506
  100SAPS  H17X10135   5.816   1.817   8.402  1.3866  0.2946 -1.3599
  100SAPS  H17Y10136   5.637   1.825   8.402  0.3987  1.9600 -0.0583
  100SAPS  C31810137   5.727   1.960   8.260 -0.2648 -0.5869 -0.1096
  100SAPS  H18X10138   5.623   1.998   8.253  0.3283  1.1952  0.4965
  100SAPS  H18Y10139   5.767   1.939   8.158 -0.9400  0.0863 -0.5081
  100SAPS  H18Z10140   5.788   2.035   8.315  1.1880 -0.4710 -1.8216
  101OSM      N10141   4.696   2.088  10.863 -0.5011  0.1115  0.0238
  101OSM    C1510142   4.727   1.947  10.837 -0.4876 -0.6029 -0.2230
  101OSM   H15A10143   4.761   1.924  10.737  1.2691  0.5273  0.0862
  101OSM   H15B10144   4.636   1.890  10.848 -0.0563 -1.1944  0.3162
  101OSM   H15C10145   4.797   1.903  10.907 -0.3302 -2.7082 -1.6679
  101OSM    C1410146   4.641   2.091  11.004  0.2369  0.1222 -0.0345
  101OSM   H14A10147   4.573   2.007  11.008  0.1274  0.0484 -2.5414
  101OSM   H14B10148   4.591   2.186  11.019  0.7380  0.3488  0.1962
  101OSM   H14C10149   4.716   2.078  11.081 -0.4263  1.5683  0.8865
  101OSM    C1310150   4.828   2.156  10.862 -0.4971 -1.0111  0.1933
  101OSM   H13A10151   4.813   2.263  10.867 -2.7695 -1.3375  1.0127
  101OSM   H13B10152   4.869   2.153  10.762 -1.2414  0.2247 -0.1609
  101OSM   H13C10153   4.907   2.139  10.934  1.9714  3.5256 -1.2725
  101OSM    C1210154   4.611   2.139  10.750 -0.3574 -0.1654 -0.2144
  101OSM   H12A10155   4.527   2.072  10.753  0.5624 -1.3571 -0.7711
  101OSM   H12B10156   4.662   2.113  10.658 -0.7660  0.4992 -0.6338
  101OSM    C1110157   4.572   2.288  10.750 -0.3126 -0.5497 -0.5693
  101OSM   H11A10158   4.554   2.322  10.645  0.7940 -0.9237 -0.8843
  101OSM   H11B10159   4.664   2.342  10.779 -0.8397 -0.2347  0.5368
  101OSM      P10160   4.326   2.268  10.811 -0.1342  0.0643  0.1741
  101OSM    O1310161   4.284   2.159  10.900 -0.4320  0.3689  0.3246
  101OSM    O1410162   4.240   2.394  10.816 -0.1162 -0.8604 -0.2932
  101OSM    O1110163   4.336   2.213  10.662 -0.1389  0.1700  0.0046
  101OSM    O1210164   4.469   2.312  10.852  0.4612 -0.1793  0.1793
  101OSM    C1S10165   4.207   2.195  10.590 -0.0830 -0.3748  0.3590
  101OSM    H1S10166   4.146   2.287  10.601  1.2636  0.4227  1.2476
  101OSM    H1T10167   4.152   2.108  10.630  0.4655 -0.3296  1.2162
  101OSM     NF10168   4.119   2.186  10.358 -0.2096  0.2504 -0.0489
  101OSM    HNF10169   4.088   2.103  10.313 -2.3488  0.5659  0.8132
  101OSM    C2S10170   4.240   2.182  10.436  0.7569  0.0216  0.0601
  101OSM    H2S10171   4.295   2.267  10.392  0.6988  1.6246  2.9513
  101OSM    C3S10172   4.335   2.054  10.405  0.6293 -0.5657 -0.3605
  101OSM    H3S10173   4.279   1.963  10.436 -2.1916  1.6247  1.2439
  101OSM     O310174   4.465   2.060  10.463  0.3572  0.0989 -0.7657
  101OSM    HO310175   4.453   2.134  10.523 -2.1213  1.5086 -2.8862
  101OSM    C4S10176   4.345   2.038  10.257  0.8165  0.3558 -0.2961
  101OSM    H4S10177   4.259   1.981  10.219  0.2330  1.6574 -0.9425
  101OSM    C5S10178   4.440   2.080  10.170  0.3269  0.2718 -0.3168
  101OSM    H5S10179   4.534   2.123  10.207  0.7963 -0.6383 -0.4304
  101OSM    C6S10180   4.439   2.055  10.027  0.7504 -0.9241  0.5942
  101OSM    H6S10181   4.358   1.995   9.980  1.1595  1.0407 -2.8291
  101OSM    H6T10182   4.543   2.016  10.015  0.7827 -1.1243  1.5266
  101OSM    C7S10183   4.437   2.180   9.938  0.9199 -0.2882 -0.2708
  101OSM    H7S10184   4.510   2.260   9.964  0.7097 -0.1300 -0.1759
  101OSM    H7T10185   4.336   2.225   9.950  1.0328 -0.5096  1.5954
  101OSM    C8S10186   4.461   2.143   9.793 -0.1026  0.0985 -0.1528
  101OSM    H8S10187   4.422   2.042   9.769 -0.9051  0.4482 -0.3426
  101OSM    H8T10188   4.571   2.132   9.783 -0.0776 -0.1852  0.3890
  101OSM    C9S10189   4.424   2.255   9.693 -0.5543 -0.3491  0.2657
  101OSM    H9S10190   4.470   2.349   9.730 -3.1129  0.7684  0.7499
  101OSM    H9T10191   4.314   2.266   9.705 -0.4796 -0.2365  0.8789
  101OSM   C10S10192   4.457   2.226   9.545  0.4648 -0.2124 -1.1642
  101OSM   H10S10193   4.419   2.125   9.518  1.9005 -1.7270  2.3152
  101OSM   H10T10194   4.568   2.228   9.541  0.5381  2.9917  0.6910
  101OSM   C11S10195   4.395   2.331   9.453 -0.0337 -0.4178 -0.6075
  101OSM   H11S10196   4.458   2.423   9.459 -2.9826  1.6789 -0.9808
  101OSM   H11T10197   4.297   2.345   9.503  1.0417  1.8885  0.9668
  101OSM   C12S10198   4.390   2.275   9.308  0.3750  0.3154 -0.2194
  101OSM   H12S10199   4.357   2.365   9.253  0.5307  1.0207  0.8096
  101OSM   H12T10200   4.311   2.198   9.293  1.0343 -0.6481  1.0796
  101OSM   C13S10201   4.519   2.239   9.252  0.2820 -0.6092 -0.3778
  101OSM   H13S10202   4.539   2.136   9.288  1.7028 -0.0876  0.3579
  101OSM   H13T10203   4.596   2.299   9.306 -1.4667  2.0261 -0.7470
  101OSM   C14S10204   4.540   2.272   9.104  0.6789 -0.8346  0.0759
  101OSM   H14S10205   4.645   2.268   9.067  0.0540 -2.2636 -1.6328
  101OSM   H14T10206   4.496   2.372   9.083  2.2078 -0.0159  0.7320
  101OSM   C15S10207   4.474   2.176   9.010 -0.5867  0.1015 -0.2985
  101OSM   H15S10208   4.367   2.169   9.037 -0.2049 -2.8526  0.5958
  101OSM   H15T10209   4.504   2.071   9.031 -0.4868  0.7843  3.4759
  101OSM   C16S10210   4.490   2.209   8.859  0.2154  0.4373 -0.1819
  101OSM   H16S10211   4.586   2.164   8.824  1.2643  1.8701  0.8074
  101OSM   H16T10212   4.511   2.317   8.844  0.0546  0.8703  2.4692
  101OSM   C17S10213   4.371   2.158   8.771 -0.4851  0.5030  0.4181
  101OSM   H17S10214   4.280   2.220   8.785  0.3497  1.5385  1.3840
  101OSM   H17T10215   4.362   2.052   8.804 -1.5352  0.9657  1.6617
  101OSM   C18S10216   4.406   2.161   8.623 -0.1259 -0.0907 -0.3370
  101OSM   H18S10217   4.343   2.102   8.554 -0.3392  0.1166 -0.3208
  101OSM   H18T10218   4.511   2.135   8.601 -0.2497 -1.0633  0.1959
  101OSM   H18U10219   4.393   2.267   8.592  1.7378  0.4090  0.4827
  101OSM    C1F10220   4.045   2.291  10.345 -0.4960  0.2071 -0.1901
  101OSM     OF10221   4.064   2.398  10.405  0.2412  0.4125  0.1091
  101OSM    C2F10222   3.922   2.273  10.264  0.1250 -0.1404  0.2131
  101OSM    H2F10223   3.846   2.230  10.333  1.6275 -0.5397  1.6712
  101OSM    H2G10224   3.941   2.199  10.183  0.1758  0.1977 -0.0844
  101OSM    C3F10225   3.862   2.395  10.203  0.6993 -0.1111  0.7942
  101OSM    H3F10226   3.942   2.439  10.140 -1.9221  0.6398 -2.1525
  101OSM    H3G10227   3.823   2.466  10.279  0.4425  1.1503 -0.5003
  101OSM    C4F10228   3.743   2.372  10.105  0.3483 -0.3216  0.0605
  101OSM    H4F10229   3.700   2.469  10.071  1.0443  0.4218  1.2619
  101OSM    H4G10230   3.665   2.326  10.170  0.1226 -0.2144 -0.1324
  101OSM    C5F10231   3.769   2.284   9.984  0.2016  0.3527  0.1269
  101OSM    H5F10232   3.769   2.176  10.010 -0.2685  0.3163 -0.0194
  101OSM    H5G10233   3.869   2.310   9.943  0.1209  0.5510  0.0504
  101OSM    C6F10234   3.668   2.291   9.871 -0.4037  0.0966  0.0689
  101OSM    H6F10235   3.706   2.253   9.773 -1.2444 -2.3759  0.6589
  101OSM    H6G10236   3.656   2.397   9.840  1.9510  0.1596 -0.7303
  101OSM    C7F10237   3.533   2.230   9.909 -0.1722  0.4702  0.3262
  101OSM    H7F10238   3.482   2.267  10.000 -2.5249 -0.7112 -0.4858
  101OSM    H7G10239   3.549   2.122   9.931 -2.0104  0.3430  1.0781
  101OSM    C8F10240   3.418   2.256   9.813 -0.0991  0.1923  0.3055
  101OSM    H8F10241   3.391   2.363   9.806  1.2495  0.6739  2.1474
  101OSM    H8G10242   3.326   2.203   9.848 -0.3785  1.4157  1.4315
  101OSM    C9F10243   3.459   2.195   9.678 -0.5943 -0.1098  0.0044
  101OSM    H9F10244   3.490   2.089   9.677 -1.2295 -0.3002 -1.0027
  101OSM   C10F10245   3.454   2.260   9.553  0.7589  0.6899  0.1588
  101OSM   H10F10246   3.492   2.215   9.460  2.3333 -0.4240  1.3199
  101OSM   C11F10247   3.403   2.402   9.534  0.2450 -0.8924  0.6594
  101OSM   H11F10248   3.454   2.465   9.609 -0.0974 -0.3514  0.4473
  101OSM   H11G10249   3.295   2.426   9.544  0.9585  2.0458  1.7087
  101OSM   C12F10250   3.438   2.472   9.395 -0.1929 -0.0984  0.3213
  101OSM   H12F10251   3.393   2.573   9.400  1.9176  0.8743  0.4886
  101OSM   H12G10252   3.388   2.422   9.310 -0.3590 -0.0808  0.4087
  101OSM   C13F10253   3.589   2.494   9.368  0.4415  0.2413  0.1339
  101OSM   H13F10254   3.637   2.394   9.356 -0.4855 -0.0041 -1.5725
  101OSM   H13G10255   3.646   2.556   9.441  1.8400  1.2050 -1.7117
  101OSM   C14F10256   3.601   2.551   9.226 -0.0408  0.3095  0.0636
  101OSM   H14F10257   3.558   2.652   9.213  1.1863  0.5191 -2.7996
  101OSM   H14G10258   3.541   2.492   9.154  1.3088 -0.4036 -0.5102
  101OSM   C15F10259   3.741   2.538   9.175  1.4236 -1.1413  0.4806
  101OSM   H15F10260   3.749   2.430   9.148 -1.3732 -1.1294 -0.5718
  101OSM   H15G10261   3.810   2.573   9.255  1.6733  2.6067 -1.2723
  101OSM   C16F10262   3.768   2.625   9.056 -0.3318  0.3779  0.4759
  101OSM   H16F10263   3.874   2.601   9.034 -1.2213 -1.6814 -1.7771
  101OSM   H16G10264   3.757   2.735   9.064  1.7350  0.5462  1.2314
  101OSM   C17F10265   3.684   2.584   8.935  1.1269  0.4587  1.2603
  101OSM   H17F10266   3.581   2.602   8.973  1.0396  0.8462  0.8459
  101OSM   H17G10267   3.711   2.479   8.913 -0.1756  0.7151 -1.8314
  101OSM   C18F10268   3.704   2.682   8.826  0.0502 -0.2167  0.4521
  101OSM   H18F10269   3.653   2.647   8.733 -1.3515 -1.5020  1.6729
  101OSM   H18G10270   3.813   2.686   8.803  0.4319 -2.0950  1.7934
  101OSM   H18H10271   3.668   2.785   8.843  0.5536  0.3891 -1.9296
  102OSM      N10272   3.680   2.423  10.834 -0.0731 -0.4682  0.8714
  102OSM    C1510273   3.812   2.483  10.868 -0.2296  0.1846  0.0245
  102OSM   H15A10274   3.811   2.507  10.973  3.9048  0.4854  0.0552
  102OSM   H15B10275   3.832   2.577  10.819 -0.1230 -0.2981 -0.8609
  102OSM   H15C10276   3.888   2.414  10.834  0.2351 -0.5077  2.3603
  102OSM    C1410277   3.667   2.302  10.914  0.1004  0.6302 -0.3437
  102OSM   H14A10278   3.572   2.255  10.891  1.3149 -2.0704  0.0424
  102OSM   H14B10279   3.674   2.315  11.021 -2.6879  0.2553 -0.0705
  102OSM   H14C10280   3.738   2.230  10.877  0.2900  1.5079 -1.7371
  102OSM    C1310281   3.567   2.522  10.870  0.2319 -0.5274 -0.0175
  102OSM   H13A10282   3.469   2.489  10.839 -1.7212  0.8554  4.3786
  102OSM   H13B10283   3.584   2.618  10.824 -1.7904 -0.6803 -1.1371
  102OSM   H13C10284   3.555   2.543  10.975 -0.3301  0.9450 -0.3570
  102OSM    C1210285   3.667   2.388  10.679 -0.3572 -0.4304 -0.0634
  102OSM   H12A10286   3.695   2.480  10.630  2.1805 -0.4788  1.2340
  102OSM   H12B10287   3.562   2.372  10.657 -1.1763  0.2235  3.1304
  102OSM    C1110288   3.754   2.275  10.618 -0.7751 -0.1448 -0.1251
  102OSM   H11A10289   3.862   2.303  10.615 -0.6920 -0.4808 -0.3423
  102OSM   H11B10290   3.715   2.255  10.516  0.5066  0.4671 -0.7462
  102OSM      P10291   3.788   2.016  10.650 -0.3122 -0.0838 -0.0056
  102OSM    O1310292   3.937   2.015  10.656  0.2268  0.0193 -0.7431
  102OSM    O1410293   3.717   1.917  10.733  0.0479 -0.0049 -0.5373
  102OSM    O1110294   3.733   2.002  10.498  0.4595 -0.8370 -0.1666
  102OSM    O1210295   3.742   2.160  10.697  0.4766  0.1828 -0.4505
  102OSM    C1S10296   3.597   1.987  10.471  0.4402 -0.3314  0.3702
  102OSM    H1S10297   3.540   2.079  10.496 -0.3565 -1.0463  1.2256
  102OSM    H1T10298   3.553   1.899  10.523  0.5794  0.1896  1.3829
  102OSM     NF10299   3.447   2.027  10.278  0.0861 -0.1842 -0.0144
  102OSM    HNF10300   3.395   1.963  10.222 -2.0561  2.3206 -0.9952
  102OSM    C2S10301   3.583   1.985  10.313 -0.3271 -0.1615 -0.0382
  102OSM    H2S10302   3.658   2.056  10.272  0.7745 -2.4824 -2.1349
  102OSM    C3S10303   3.625   1.851  10.255 -0.1236 -0.4872  0.0423
  102OSM    H3S10304   3.554   1.774  10.292  0.0423 -0.7331 -0.1471
  102OSM     O310305   3.759   1.817  10.292  0.0117 -0.3691  0.4993
  102OSM    HO310306   3.769   1.886  10.357  0.0611  0.4632 -0.3718
  102OSM    C4S10307   3.605   1.843  10.101 -0.0793  0.3255  0.6701
  102OSM    H4S10308   3.513   1.806  10.053 -0.2345  2.5890 -0.8382
  102OSM    C5S10309   3.701   1.878  10.015  0.6183 -0.2459  0.0773
  102OSM    H5S10310   3.803   1.896  10.053  1.9578 -1.1221 -2.9754
  102OSM    C6S10311   3.696   1.865   9.861 -0.5451 -0.0049 -0.1843
  102OSM    H6S10312   3.776   1.794   9.830 -0.9980 -0.0472 -1.2788
  102OSM    H6T10313   3.727   1.966   9.825  2.7291 -0.6741  0.5400
  102OSM    C7S10314   3.566   1.816   9.803  0.1780  0.1252 -0.0476
  102OSM    H7S10315   3.485   1.884   9.837  1.3850  2.2947 -1.4534
  102OSM    H7T10316   3.529   1.717   9.839  1.2778  0.3049  1.6639
  102OSM    C8S10317   3.577   1.810   9.649 -0.3766 -0.2840 -0.6478
  102OSM    H8S10318   3.637   1.726   9.608 -0.7903 -1.4632  1.1057
  102OSM    H8T10319   3.615   1.907   9.612 -1.6786  0.7901  0.7742
  102OSM    C9S10320   3.440   1.774   9.589 -0.4440  0.0139 -0.3488
  102OSM    H9S10321   3.366   1.848   9.625  1.2481  0.8470  1.5806
  102OSM    H9T10322   3.408   1.681   9.640  1.7999 -0.1705  0.7978
  102OSM   C10S10323   3.453   1.751   9.436 -0.3662 -0.1256 -0.2640
  102OSM   H10S10324   3.353   1.721   9.399 -0.9266  0.0352  1.1006
  102OSM   H10T10325   3.515   1.664   9.404  2.1043  1.2681  0.5880
  102OSM   C11S10326   3.515   1.872   9.369 -0.6719 -0.3574 -0.6856
  102OSM   H11S10327   3.617   1.891   9.408 -0.9327  3.7711 -1.7597
  102OSM   H11T10328   3.458   1.964   9.394  0.3992 -0.1243  0.9922
  102OSM   C12S10329   3.519   1.863   9.214  0.2362 -0.5641  0.9160
  102OSM   H12S10330   3.416   1.846   9.177  0.9202  0.1364 -1.4143
  102OSM   H12T10331   3.578   1.772   9.190 -0.4575 -1.3274  2.0347
  102OSM   C13S10332   3.583   1.987   9.155  0.4306 -0.0769  0.1822
  102OSM   H13S10333   3.689   1.998   9.187  0.4277 -0.1658  0.2203
  102OSM   H13T10334   3.549   2.078   9.208  0.1453  0.0656 -0.2447
  102OSM   C14S10335   3.589   1.994   9.002 -0.3157  0.2582  0.2399
  102OSM   H14S10336   3.592   2.099   8.963 -0.0954 -0.5604 -2.0320
  102OSM   H14T10337   3.487   1.962   8.974 -0.1271 -0.3699  0.2763
  102OSM   C15S10338   3.688   1.894   8.940  0.4160 -0.6027 -0.1672
  102OSM   H15S10339   3.653   1.793   8.970 -1.9217  0.3045  0.3164
  102OSM   H15T10340   3.784   1.909   8.993 -0.2212 -2.3855  1.5445
  102OSM   C16S10341   3.668   1.905   8.788 -0.1523  0.3245  0.3909
  102OSM   H16S10342   3.682   2.012   8.763  0.6186  0.3361  0.8484
  102OSM   H16T10343   3.569   1.867   8.756  0.3702 -0.2767 -0.5229
  102OSM   C17S10344   3.786   1.842   8.712 -0.2904 -0.1567 -0.1735
  102OSM   H17S10345   3.761   1.843   8.604  0.8912 -1.4472 -0.4660
  102OSM   H17T10346   3.793   1.734   8.737 -1.0530 -0.3840 -0.9196
  102OSM   C18S10347   3.922   1.909   8.730 -0.4808  0.1387 -0.0294
  102OSM   H18S10348   4.000   1.859   8.668 -0.9873 -0.4158 -0.2284
  102OSM   H18T10349   3.941   1.908   8.839 -1.1547  1.6617  0.1035
  102OSM   H18U10350   3.922   2.016   8.702 -0.6589  0.0095 -0.5317
  102OSM    C1F10351   3.396   2.148  10.293  1.1028  0.0296 -0.0597
  102OSM     OF10352   3.438   2.233  10.369 -0.0755 -0.3073 -0.2214
  102OSM    C2F10353   3.267   2.162  10.218  0.4208  0.2948  0.0396
  102OSM    H2F10354   3.197   2.098  10.276 -0.6959  1.2544 -0.2209
  102OSM    H2G10355   3.276   2.112  10.120 -0.0107 -0.7946  0.5416
  102OSM    C3F10356   3.225   2.309  10.201  0.0008 -0.7536 -0.1552
  102OSM    H3F10357   3.301   2.361  10.140 -0.8682  0.7794  0.0444
  102OSM    H3G10358   3.204   2.356  10.299 -3.0606 -0.3979 -0.9008
  102OSM    C4F10359   3.088   2.320  10.125  0.1038  0.0120 -0.0562
  102OSM    H4F10360   3.006   2.284  10.191  1.6621 -3.8227 -0.0931
  102OSM    H4G10361   3.094   2.254  10.036  0.1320 -2.3090  1.6515
  102OSM    C5F10362   3.051   2.461  10.068  0.0749  0.2577 -0.0524
  102OSM    H5F10363   3.052   2.537  10.150 -1.8814  1.0037 -0.6817
  102OSM    H5G10364   2.943   2.453  10.042 -0.0839 -1.2843  1.0257
  102OSM    C6F10365   3.143   2.503   9.949  0.1951  0.4504  0.4654
  102OSM    H6F10366   3.140   2.417   9.879  1.3360  0.8699 -0.1146
  102OSM    H6G10367   3.245   2.512   9.990 -0.1662  0.3467  1.4008
  102OSM    C7F10368   3.089   2.627   9.876  0.0220  0.2138  0.4812
  102OSM    H7F10369   3.089   2.717   9.940  1.3461 -0.0445  0.8618
  102OSM    H7G10370   2.983   2.608   9.846  0.5431 -0.8737 -0.7255
  102OSM    C8F10371   3.164   2.654   9.743 -0.0754  0.1026 -0.0706
  102OSM    H8F10372   3.151   2.562   9.681  1.4063  1.4195 -2.4433
  102OSM    H8G10373   3.271   2.669   9.768  0.1809  1.2780 -1.7705
  102OSM    C9F10374   3.100   2.768   9.676  0.7221 -0.1757  0.0201
  102OSM    H9F10375   2.997   2.754   9.639  0.2085 -0.6450  1.6175
  102OSM   C10F10376   3.154   2.890   9.674 -0.2087 -0.9555  0.7021
  102OSM   H10F10377   3.092   2.964   9.620 -3.3964 -2.1322  2.5682
  102OSM   C11F10378   3.282   2.951   9.726 -0.1949  0.5599  0.3030
  102OSM   H11F10379   3.325   3.017   9.647 -1.7418 -0.3867 -1.3659
  102OSM   H11G10380   3.361   2.877   9.750  0.7010  1.5335  0.3814
  102OSM   C12F10381   3.247   3.043   9.849 -0.2724  0.1684 -0.3698
  102OSM   H12F10382   3.341   3.075   9.900 -0.4936 -1.2401  0.9722
  102OSM   H12G10383   3.197   2.982   9.927  0.0353  0.4675  0.0704
  102OSM   C13F10384   3.170   3.169   9.807  0.1698  0.1231  0.0155
  102OSM   H13F10385   3.062   3.146   9.797  0.2878  0.6409 -2.8687
  102OSM   H13G10386   3.213   3.205   9.711 -0.2496  1.3372  0.2806
  102OSM   C14F10387   3.193   3.282   9.908  0.0761 -0.1225 -0.3355
  102OSM   H14F10388   3.298   3.318   9.914  0.8712 -1.7084 -3.9469
  102OSM   H14G10389   3.160   3.244  10.008  0.1588  0.1460 -0.2048
  102OSM   C15F10390   3.112   3.414   9.873 -0.3012  0.0717  0.3894
  102OSM   H15F10391   3.005   3.397   9.849 -0.3610  0.4612  0.3762
  102OSM   H15G10392   3.161   3.450   9.781 -0.9946  0.8759  0.3299
  102OSM   C16F10393   3.122   3.508   9.995 -0.2645 -0.0334  0.0755
  102OSM   H16F10394   3.073   3.596   9.948 -2.7790 -0.4730  1.7594
  102OSM   H16G10395   3.222   3.536  10.033 -0.8938  2.1408  0.2180
  102OSM   C17F10396   3.021   3.483  10.111  0.1728 -0.5154  0.8362
  102OSM   H17F10397   3.048   3.405  10.185  0.7430 -1.4033 -0.3074
  102OSM   H17G10398   2.929   3.449  10.059  0.1309  0.1564  0.4588
  102OSM   C18F10399   2.980   3.613  10.187  0.1304  0.4006 -0.0966
  102OSM   H18F10400   2.925   3.684  10.121  2.9139  2.4504 -0.2966
  102OSM   H18G10401   3.065   3.677  10.216  0.4388  0.4231 -1.0141
  102OSM   H18H10402   2.921   3.593  10.279  0.2516  0.4983  0.0017
  103OSM      N10403   3.825   5.006  11.157 -0.2127  0.4722  0.2901
  103OSM    C1510404   3.686   5.051  11.135 -0.5546 -0.0251 -0.0559
  103OSM   H15A10405   3.683   5.153  11.100 -0.5252  0.6647  1.8646
  103OSM   H15B10406   3.627   5.050  11.226  0.2044  2.5256  0.5132
  103OSM   H15C10407   3.648   4.985  11.059 -1.0677 -1.6501  1.5701
  103OSM    C1410408   3.898   5.026  11.030 -0.0134  0.2354  0.4112
  103OSM   H14A10409   3.856   4.963  10.952  0.7627 -1.3828  1.2681
  103OSM   H14B10410   4.003   5.005  11.034 -0.1372 -0.7588 -1.0063
  103OSM   H14C10411   3.875   5.122  10.987 -1.5431  0.2308  1.1561
  103OSM    C1310412   3.886   5.079  11.273 -0.0443  0.1349 -0.4531
  103OSM   H13A10413   3.990   5.056  11.292  0.2453  1.0344 -0.9257
  103OSM   H13B10414   3.834   5.076  11.368 -0.2761  0.0789 -0.5799
  103OSM   H13C10415   3.890   5.184  11.246 -1.8104  0.1517 -0.7450
  103OSM    C1210416   3.822   4.856  11.190  0.1333  0.5197 -0.1229
  103OSM   H12A10417   3.761   4.807  11.116 -0.8841  1.0727  0.3383
  103OSM   H12B10418   3.767   4.844  11.282  0.5772 -0.2108  0.0496
  103OSM    C1110419   3.952   4.779  11.209  0.4381 -0.0637  0.0189
  103OSM   H11A10420   3.930   4.675  11.240 -0.8800 -0.1545 -1.2071
  103OSM   H11B10421   4.004   4.824  11.296  0.4845  1.7308 -0.9221
  103OSM      P10422   4.179   4.813  11.101 -0.1662 -0.0998  0.3943
  103OSM    O1310423   4.206   4.934  11.181 -0.6288  0.6295 -0.2929
  103OSM    O1410424   4.241   4.692  11.160 -0.4435  0.2576 -0.1310
  103OSM    O1110425   4.230   4.826  10.953  0.2342 -0.4662 -0.0006
  103OSM    O1210426   4.027   4.787  11.088 -0.7861 -0.2549 -0.1574
  103OSM    C1S10427   4.139   4.841  10.848 -0.3465  0.0608 -0.0418
  103OSM    H1S10428   4.081   4.934  10.865 -1.6119 -0.5077 -1.1178
  103OSM    H1T10429   4.056   4.768  10.847  2.2823 -3.0610  0.4500
  103OSM     NF10430   4.105   4.890  10.618  0.1464  0.1466 -0.3188
  103OSM    HNF10431   4.034   4.833  10.577 -0.6279  0.8316  0.0504
  103OSM    C2S10432   4.198   4.836  10.714 -0.0299 -0.0663 -0.0672
  103OSM    H2S10433   4.294   4.892  10.711 -1.9045  3.2351 -0.6703
  103OSM    C3S10434   4.249   4.688  10.691 -0.5653  0.0940 -0.0098
  103OSM    H3S10435   4.164   4.617  10.688 -1.2735  0.9722 -1.2387
  103OSM     O310436   4.339   4.636  10.787  0.2931 -0.0492  0.0036
  103OSM    HO310437   4.352   4.706  10.851  0.8180 -1.0916  1.0357
  103OSM    C4S10438   4.311   4.672  10.549 -0.2680  0.1513  0.0794
  103OSM    H4S10439   4.402   4.732  10.535 -0.7034  1.3686  2.1827
  103OSM    C5S10440   4.280   4.579  10.454 -0.0260 -0.3091  0.0211
  103OSM    H5S10441   4.208   4.505  10.491 -0.2744 -0.2308 -0.3003
  103OSM    C6S10442   4.329   4.557  10.315  0.3108  0.2320 -0.4512
  103OSM    H6S10443   4.250   4.507  10.254  1.4236  0.3000 -1.9665
  103OSM    H6T10444   4.409   4.481  10.321 -0.0903  0.0251  3.5878
  103OSM    C7S10445   4.383   4.693  10.254  0.5921  0.0497 -0.1152
  103OSM    H7S10446   4.464   4.731  10.320 -0.3094  0.1686  0.9506
  103OSM    H7T10447   4.296   4.763  10.260  1.5943  1.4059 -1.1069
  103OSM    C8S10448   4.420   4.681  10.108 -0.3021  0.1601 -0.3236
  103OSM    H8S10449   4.354   4.609  10.055 -1.0584  0.6156 -0.0027
  103OSM    H8T10450   4.517   4.627  10.109 -0.8471 -0.8673 -1.2432
  103OSM    C9S10451   4.438   4.813  10.030 -0.4069  0.0148  0.5929
  103OSM    H9S10452   4.510   4.878  10.086 -0.0522  0.4536 -0.3740
  103OSM    H9T10453   4.346   4.874  10.029 -0.0909  0.4806 -1.1115
  103OSM   C10S10454   4.494   4.784   9.889  0.1136 -0.3952 -0.6075
  103OSM   H10S10455   4.602   4.759   9.897 -0.1807 -1.2515  1.0318
  103OSM   H10T10456   4.486   4.880   9.835  1.0194 -0.4610 -0.8698
  103OSM   C11S10457   4.412   4.689   9.800 -0.8588 -0.1650 -0.4187
  103OSM   H11S10458   4.303   4.714   9.798 -1.0709 -1.0473 -0.3169
  103OSM   H11T10459   4.420   4.588   9.845 -2.2348  0.1769  0.6299
  103OSM   C12S10460   4.469   4.675   9.655 -0.1315 -0.4422 -0.3860
  103OSM   H12S10461   4.392   4.612   9.606  0.4523 -0.1688 -1.6861
  103OSM   H12T10462   4.559   4.612   9.673  0.5621  0.8893  0.9063
  103OSM   C13S10463   4.517   4.805   9.585 -0.3830  0.6511  0.4274
  103OSM   H13S10464   4.593   4.859   9.646  0.5153 -0.4369  0.2807
  103OSM   H13T10465   4.425   4.865   9.569 -1.3283 -0.3939  1.9299
  103OSM   C14S10466   4.569   4.795   9.435  0.5143  0.7153 -0.4196
  103OSM   H14S10467   4.493   4.732   9.384  0.6563  0.5813 -0.4681
  103OSM   H14T10468   4.668   4.744   9.434 -1.0402 -2.4496 -3.3874
  103OSM   C15S10469   4.578   4.929   9.366 -0.0503  0.2787  0.0528
  103OSM   H15S10470   4.669   4.982   9.403  0.5720 -0.0536 -0.9674
  103OSM   H15T10471   4.489   4.985   9.400 -0.2363 -0.8407  1.4348
  103OSM   C16S10472   4.585   4.914   9.218  0.9986  0.2716  0.0443
  103OSM   H16S10473   4.488   4.868   9.189  0.2260  3.2148 -2.3554
  103OSM   H16T10474   4.663   4.843   9.184 -0.6545  0.3729 -4.2344
  103OSM   C17S10475   4.602   5.048   9.140  0.1990 -0.0415  0.1698
  103OSM   H17S10476   4.695   5.095   9.179  1.1298  0.1940 -2.2201
  103OSM   H17T10477   4.520   5.116   9.172  0.3998  0.3470 -0.1346
  103OSM   C18S10478   4.607   5.051   8.992  0.5891  0.1796  0.9612
  103OSM   H18S10479   4.628   5.158   8.970  1.5620 -0.1850  0.0874
  103OSM   H18T10480   4.517   5.008   8.943  1.6199 -1.5528  0.5402
  103OSM   H18U10481   4.692   4.990   8.955  1.3805  1.1379  1.1639
  103OSM    C1F10482   4.071   5.021  10.617 -0.1662 -0.5909 -0.2646
  103OSM     OF10483   4.155   5.097  10.647 -0.0028  0.7142 -0.0645
  103OSM    C2F10484   3.936   5.067  10.571 -0.3671  0.8825  0.0343
  103OSM    H2F10485   3.888   5.140  10.639  0.1285 -0.4922  1.9235
  103OSM    H2G10486   3.861   4.986  10.558 -0.9977  1.4996 -0.1898
  103OSM    C3F10487   3.942   5.139  10.429  0.7464  0.1876 -0.4854
  103OSM    H3F10488   4.007   5.229  10.427  0.8712  0.2767  3.4955
  103OSM    H3G10489   3.838   5.174  10.416  1.0016  1.5410  0.9750
  103OSM    C4F10490   3.990   5.055  10.309 -0.3420  0.0295  0.1815
  103OSM    H4F10491   3.928   4.963  10.298 -0.7728  0.4674 -1.1300
  103OSM    H4G10492   4.096   5.021  10.313 -0.0271  0.9993  0.1767
  103OSM    C5F10493   3.986   5.133  10.180 -0.2772  0.0248 -0.5739
  103OSM    H5F10494   4.043   5.226  10.203 -2.2731  1.5058 -1.4915
  103OSM    H5G10495   3.880   5.161  10.162  0.4967  2.4857 -1.5417
  103OSM    C6F10496   4.051   5.062  10.064 -0.3044  0.0843  0.5290
  103OSM    H6F10497   4.006   4.964  10.036  1.7479 -0.2808 -1.7664
  103OSM    H6G10498   4.151   5.052  10.112 -0.1538 -1.8406 -0.1429
  103OSM    C7F10499   4.061   5.152   9.936 -0.3944 -0.3018  0.2468
  103OSM    H7F10500   4.120   5.240   9.967  0.6389 -0.2707 -1.6943
  103OSM    H7G10501   3.962   5.198   9.918  0.0419  1.2461  1.7169
  103OSM    C8F10502   4.120   5.088   9.810  0.8403  0.1736 -0.1753
  103OSM    H8F10503   4.058   4.996   9.802 -0.8542  1.1825  0.9351
  103OSM    H8G10504   4.218   5.048   9.842  1.2212 -1.5551 -3.3103
  103OSM    C9F10505   4.134   5.178   9.686 -0.0671 -0.0055  0.2805
  103OSM    H9F10506   4.230   5.233   9.683  0.2978 -0.5774  1.0630
  103OSM   C10F10507   4.037   5.197   9.597  0.7806 -0.1839 -0.3750
  103OSM   H10F10508   4.064   5.261   9.512 -0.0856  1.3532  0.4832
  103OSM   C11F10509   3.898   5.140   9.592  0.5251 -0.1243  0.2375
  103OSM   H11F10510   3.883   5.058   9.666 -1.1077  1.2442  1.4533
  103OSM   H11G10511   3.885   5.083   9.498 -0.4229  0.7153 -0.1493
  103OSM   C12F10512   3.795   5.242   9.615  0.5643 -0.2584  0.1720
  103OSM   H12F10513   3.780   5.305   9.524 -2.9270  0.8590  1.4554
  103OSM   H12G10514   3.817   5.313   9.697  1.5100  0.1998 -0.4580
  103OSM   C13F10515   3.663   5.177   9.666  0.7828 -0.8200 -0.4780
  103OSM   H13F10516   3.573   5.230   9.630 -0.2438 -2.2692 -0.0757
  103OSM   H13G10517   3.661   5.073   9.625 -0.6191 -1.0439  0.1521
  103OSM   C14F10518   3.649   5.159   9.817 -0.4221  0.6145 -0.3747
  103OSM   H14F10519   3.751   5.145   9.859 -0.1209  3.5142 -0.0297
  103OSM   H14G10520   3.607   5.060   9.844 -1.8253  0.6940 -2.1821
  103OSM   C15F10521   3.580   5.268   9.887 -0.0400  0.6460 -0.2514
  103OSM   H15F10522   3.475   5.264   9.851  0.0694 -1.0144 -0.3967
  103OSM   H15G10523   3.631   5.361   9.852  0.6863  0.4858  0.3885
  103OSM   C16F10524   3.577   5.268  10.038  0.3388 -0.7682 -0.1371
  103OSM   H16F10525   3.513   5.350  10.078  0.9993  0.7495 -2.1138
  103OSM   H16G10526   3.678   5.301  10.069  0.6464 -1.6960 -0.1333
  103OSM   C17F10527   3.557   5.129  10.115  0.3724  0.4276  0.4017
  103OSM   H17F10528   3.640   5.064  10.079 -0.0875  1.3340 -2.4441
  103OSM   H17G10529   3.464   5.076  10.084 -0.3708  0.2096  2.8989
  103OSM   C18F10530   3.565   5.144  10.262  0.2145 -0.4220 -0.2477
  103OSM   H18F10531   3.656   5.200  10.291 -0.6254  1.7731 -1.6367
  103OSM   H18G10532   3.574   5.041  10.301 -1.0657 -0.5973 -0.3892
  103OSM   H18H10533   3.466   5.178  10.299  0.1957  1.3043 -1.7969
  104OSM      N10534   1.972   3.900  10.929 -1.0828 -0.2809 -0.0680
  104OSM    C1510535   1.848   3.810  10.927  0.0854  0.5197 -0.3240
  104OSM   H15A10536   1.870   3.705  10.912 -0.1223  0.3713  0.4155
  104OSM   H15B10537   1.783   3.836  10.844  2.7549  3.2653 -1.6477
  104OSM   H15C10538   1.798   3.828  11.021 -0.2107  1.2519 -0.6154
  104OSM    C1410539   2.022   3.922  11.066  0.3844  0.2862 -0.1483
  104OSM   H14A10540   2.028   3.831  11.124 -0.8885 -0.2585 -0.8519
  104OSM   H14B10541   1.949   3.980  11.122 -1.3516 -0.6340 -1.4277
  104OSM   H14C10542   2.114   3.979  11.067 -0.5245  1.8098 -0.9083
  104OSM    C1310543   2.070   3.820  10.846 -0.1247  0.2093 -0.2211
  104OSM   H13A10544   2.168   3.851  10.879  0.2410  1.0814 -2.0791
  104OSM   H13B10545   2.073   3.841  10.740 -1.6789 -2.3982 -0.8146
  104OSM   H13C10546   2.061   3.714  10.865  1.0709  0.0720 -0.4221
  104OSM    C1210547   1.939   4.037  10.862  0.0510  0.3608  0.6217
  104OSM   H12A10548   2.031   4.092  10.859 -0.7454  1.7011  0.5305
  104OSM   H12B10549   1.868   4.090  10.924 -0.7135  0.6908 -0.5007
  104OSM    C1110550   1.888   4.028  10.714  0.2057 -0.7077 -0.2043
  104OSM   H11A10551   1.967   3.971  10.662  0.5781 -0.0928 -0.3100
  104OSM   H11B10552   1.884   4.131  10.672 -1.5671 -0.2751  0.9248
  104OSM      P10553   1.623   3.994  10.739 -0.1848 -0.0909  0.5118
  104OSM    O1310554   1.559   3.872  10.788 -0.1527  0.2314  0.6182
  104OSM    O1410555   1.617   4.113  10.825 -0.1687  0.1030  0.0369
  104OSM    O1110556   1.564   4.023  10.598 -0.1194 -0.1864  0.2724
  104OSM    O1210557   1.773   3.954  10.706  0.4963  0.3864  0.4318
  104OSM    C1S10558   1.583   4.153  10.533 -0.2003 -0.0341  0.7105
  104OSM    H1S10559   1.644   4.228  10.588 -1.4269  1.1761  0.4381
  104OSM    H1T10560   1.482   4.197  10.516  0.2850  0.7945 -0.0524
  104OSM     NF10561   1.661   4.261  10.323  0.2146 -0.3304 -0.6313
  104OSM    HNF10562   1.575   4.291  10.282  0.9434  0.1254 -1.8719
  104OSM    C2S10563   1.649   4.131  10.393 -0.0585 -0.5382  0.4299
  104OSM    H2S10564   1.749   4.085  10.410  0.4539 -0.1953 -1.5318
  104OSM    C3S10565   1.572   4.012  10.317 -0.0445 -0.5484  0.2828
  104OSM    H3S10566   1.466   4.030  10.345 -0.2114 -4.3018  2.2270
  104OSM     O310567   1.613   3.879  10.352  0.0017 -0.1573  0.2267
  104OSM    HO310568   1.656   3.886  10.437  1.6890  0.1551 -0.6207
  104OSM    C4S10569   1.598   4.017  10.178 -0.4311  0.0273  0.1003
  104OSM    H4S10570   1.682   3.960  10.137 -2.1811 -2.4768 -0.1144
  104OSM    C5S10571   1.526   4.088  10.086 -0.3305  0.4481  0.8641
  104OSM    H5S10572   1.435   4.138  10.121 -0.7771  0.1152  0.1976
  104OSM    C6S10573   1.551   4.111   9.944  0.4957  0.3092 -0.1119
  104OSM    H6S10574   1.626   4.192   9.932 -1.8886  2.5544 -0.1892
  104OSM    H6T10575   1.463   4.151   9.890 -0.0288  0.1649  0.6323
  104OSM    C7S10576   1.582   3.982   9.869 -0.3013 -0.2586 -0.8214
  104OSM    H7S10577   1.496   3.917   9.893  1.2257 -1.2568  2.1388
  104OSM    H7T10578   1.672   3.926   9.902  0.2414  0.5884 -0.8374
  104OSM    C8S10579   1.600   4.002   9.713  0.2000 -0.0397 -0.3794
  104OSM    H8S10580   1.695   4.051   9.682  0.3238 -1.0114 -1.5547
  104OSM    H8T10581   1.518   4.065   9.672  1.6400  0.2581 -2.9382
  104OSM    C9S10582   1.589   3.864   9.644 -0.3847 -0.5907 -0.6069
  104OSM    H9S10583   1.485   3.825   9.658  0.4609 -1.9400  2.2682
  104OSM    H9T10584   1.648   3.803   9.716  0.2026 -0.9578 -1.4030
  104OSM   C10S10585   1.643   3.858   9.498 -0.0341 -0.3085 -0.4580
  104OSM   H10S10586   1.673   3.758   9.463  2.9005  0.6667 -0.8499
  104OSM   H10T10587   1.747   3.897   9.501 -0.2153  0.1637 -0.1649
  104OSM   C11S10588   1.556   3.944   9.414  0.0791  0.0837  0.3586
  104OSM   H11S10589   1.522   4.039   9.461  0.4260 -0.1854  1.1618
  104OSM   H11T10590   1.466   3.886   9.384  2.1176 -1.2628 -3.4677
  104OSM   C12S10591   1.620   3.956   9.276  0.3451  0.5931 -0.2295
  104OSM   H12S10592   1.668   3.863   9.238  2.0292  0.7854  1.3608
  104OSM   H12T10593   1.707   4.021   9.299 -0.0658  0.8149  0.7403
  104OSM   C13S10594   1.524   4.014   9.173  0.3902 -0.1220 -0.1281
  104OSM   H13S10595   1.561   4.114   9.144  3.2364 -1.8245 -2.6427
  104OSM   H13T10596   1.426   4.025   9.223  0.9415 -1.0508  1.2159
  104OSM   C14S10597   1.497   3.925   9.046 -0.2083  0.2884  0.0103
  104OSM   H14S10598   1.410   3.968   8.992  0.3873  1.4456 -0.0659
  104OSM   H14T10599   1.455   3.832   9.088  1.7495 -0.5568  0.1773
  104OSM   C15S10600   1.616   3.897   8.950  0.1055 -0.4458 -0.0148
  104OSM   H15S10601   1.702   3.875   9.018 -0.4223 -0.8038  0.5486
  104OSM   H15T10602   1.645   3.985   8.890 -0.0228 -0.3377  0.0795
  104OSM   C16S10603   1.601   3.788   8.845  0.0983  0.1439 -0.1004
  104OSM   H16S10604   1.528   3.817   8.766 -0.2916  2.0951  0.9622
  104OSM   H16T10605   1.562   3.697   8.895  0.5564 -0.1105 -0.2018
  104OSM   C17S10606   1.733   3.756   8.777  0.2894  0.3444 -0.3213
  104OSM   H17S10607   1.801   3.747   8.865  2.3314 -1.5516 -2.0252
  104OSM   H17T10608   1.787   3.832   8.716  0.3659 -0.2746 -1.0347
  104OSM   C18S10609   1.735   3.620   8.697  0.6062  0.2537  0.0106
  104OSM   H18S10610   1.834   3.579   8.666 -0.3282 -1.1066 -1.2810
  104OSM   H18T10611   1.680   3.624   8.601 -0.3173  0.2614  0.5357
  104OSM   H18U10612   1.687   3.542   8.760  1.1714 -0.3082 -0.2453
  104OSM    C1F10613   1.751   4.348  10.358  0.1024  0.2652 -0.1431
  104OSM     OF10614   1.834   4.313  10.442  0.0542  0.1097 -0.3442
  104OSM    C2F10615   1.747   4.487  10.294 -0.8492  1.3120 -0.2474
  104OSM    H2F10616   1.845   4.537  10.310 -0.3705 -0.2081  1.6715
  104OSM    H2G10617   1.664   4.545  10.339 -2.1039  1.1225 -2.2471
  104OSM    C3F10618   1.719   4.483  10.140  0.0886  0.2774  0.4518
  104OSM    H3F10619   1.722   4.593  10.126 -0.1030  0.1091 -0.9243
  104OSM    H3G10620   1.617   4.445  10.118  0.4650 -0.4835 -0.0011
  104OSM    C4F10621   1.827   4.404  10.060  0.5008  0.7208 -0.3955
  104OSM    H4F10622   1.819   4.294  10.072  0.9914  0.7970  0.7628
  104OSM    H4G10623   1.922   4.435  10.109 -0.8710  2.5898  1.1896
  104OSM    C5F10624   1.823   4.441   9.913 -0.0535  0.2667  0.1370
  104OSM    H5F10625   1.796   4.548   9.907  2.5941  0.9833  0.6008
  104OSM    H5G10626   1.746   4.380   9.861  1.0397 -1.6164  0.6361
  104OSM    C6F10627   1.955   4.427   9.844  0.0598 -0.5895 -0.0274
  104OSM    H6F10628   1.975   4.318   9.845  1.5325 -0.3324  0.3696
  104OSM    H6G10629   2.039   4.482   9.892  0.7384 -0.0911 -1.7444
  104OSM    C7F10630   1.964   4.487   9.698  0.5878  0.2671 -0.5076
  104OSM    H7F10631   1.934   4.593   9.710 -1.2480 -0.1625 -1.1227
  104OSM    H7G10632   1.876   4.439   9.652  2.9826 -3.5973 -1.2897
  104OSM    C8F10633   2.091   4.479   9.621 -0.2147 -0.2502 -0.2335
  104OSM    H8F10634   2.163   4.542   9.677  0.6334 -0.6419 -0.8714
  104OSM    H8G10635   2.075   4.531   9.524  0.3990  0.3123 -0.0361
  104OSM    C9F10636   2.133   4.329   9.607  0.0691 -0.3416  0.4038
  104OSM    H9F10637   2.044   4.264   9.614 -0.2826 -0.0612 -1.2307
  104OSM   C10F10638   2.256   4.287   9.586 -0.1396 -0.5781  0.3025
  104OSM   H10F10639   2.276   4.178   9.589 -1.1977 -0.8288 -1.4085
  104OSM   C11F10640   2.378   4.381   9.581 -0.3220 -0.1929 -0.2864
  104OSM   H11F10641   2.447   4.369   9.667 -0.4177  1.3511  0.0117
  104OSM   H11G10642   2.353   4.488   9.594  1.1608 -0.0095  1.1814
  104OSM   C12F10643   2.453   4.364   9.448 -0.0445 -0.3119  0.6321
  104OSM   H12F10644   2.492   4.261   9.433  0.5695 -0.3783  2.5583
  104OSM   H12G10645   2.535   4.438   9.457 -0.6173  0.0192  3.7306
  104OSM   C13F10646   2.360   4.402   9.332 -0.4917  0.4210 -0.1389
  104OSM   H13F10647   2.282   4.474   9.366 -1.5304 -0.9917  0.5303
  104OSM   H13G10648   2.299   4.313   9.307 -2.5093  1.6796  0.2060
  104OSM   C14F10649   2.417   4.447   9.199 -0.9254  0.8602  0.1945
  104OSM   H14F10650   2.459   4.361   9.143  0.2192  1.4337  0.1473
  104OSM   H14G10651   2.498   4.520   9.219  0.5308 -0.6696  0.0264
  104OSM   C15F10652   2.316   4.523   9.107 -0.0355  0.6044 -0.0781
  104OSM   H15F10653   2.235   4.569   9.168 -1.0888 -3.1957  1.5386
  104OSM   H15G10654   2.266   4.454   9.035  1.1923 -1.6509  1.1804
  104OSM   C16F10655   2.382   4.637   9.033  0.0593  0.5229  0.4778
  104OSM   H16F10656   2.468   4.598   8.975 -0.2774  2.1923 -1.1962
  104OSM   H16G10657   2.413   4.711   9.110  0.1840  0.3616  0.5870
  104OSM   C17F10658   2.299   4.695   8.917  0.0639 -1.0001  1.1365
  104OSM   H17F10659   2.196   4.726   8.946 -0.3420  0.7076 -1.9279
  104OSM   H17G10660   2.286   4.623   8.834 -1.7445 -2.3635  2.5462
  104OSM   C18F10661   2.355   4.820   8.850 -0.2256 -0.0357  0.0504
  104OSM   H18F10662   2.462   4.807   8.821  0.3442  1.5485  1.3653
  104OSM   H18G10663   2.349   4.909   8.916 -2.7127 -0.9848  1.1409
  104OSM   H18H10664   2.294   4.844   8.760  0.6553 -0.1072 -0.5757
  105OSM      N10665   2.078   3.039  10.709 -0.6647  0.1710  0.6720
  105OSM    C1510666   2.028   3.025  10.852 -0.4718 -0.7962  0.0954
  105OSM   H15A10667   2.092   2.957  10.907 -0.1825 -0.7896 -0.2317
  105OSM   H15B10668   1.926   2.991  10.843 -0.4389 -0.5149 -1.5631
  105OSM   H15C10669   2.031   3.121  10.901  0.4468  0.2003 -1.8559
  105OSM    C1410670   2.210   3.118  10.715 -0.1462  0.5242  0.5122
  105OSM   H14A10671   2.253   3.117  10.616 -0.4119  0.2449  0.3978
  105OSM   H14B10672   2.280   3.063  10.776 -0.0030 -1.0695 -1.0314
  105OSM   H14C10673   2.194   3.223  10.731  0.0704  0.9337 -1.7879
  105OSM    C1310674   2.114   2.910  10.650 -0.2644 -0.0655  0.2009
  105OSM   H13A10675   2.031   2.841  10.665  0.2607 -0.8291 -0.3639
  105OSM   H13B10676   2.207   2.882  10.698 -0.4645  0.5321  0.9459
  105OSM   H13C10677   2.139   2.925  10.547 -0.0863 -1.5949  0.0021
  105OSM    C1210678   1.973   3.105  10.622 -0.6729  0.4732  0.0465
  105OSM   H12A10679   1.888   3.040  10.607  0.4474 -0.4758 -2.4122
  105OSM   H12B10680   2.007   3.111  10.520  0.8391  0.3117  0.5332
  105OSM    C1110681   1.915   3.238  10.665 -0.1950 -1.2857 -0.6205
  105OSM   H11A10682   1.835   3.214  10.738  1.1254 -1.7660  0.7067
  105OSM   H11B10683   1.875   3.289  10.575 -0.6211 -3.2254 -1.5525
  105OSM      P10684   1.952   3.418  10.841 -0.0991 -0.1376 -0.2017
  105OSM    O1310685   1.904   3.319  10.944  0.0616 -0.4155 -0.5032
  105OSM    O1410686   2.040   3.530  10.880  0.4181 -0.2767  0.0967
  105OSM    O1110687   1.825   3.485  10.783 -0.2821 -0.0315 -0.2906
  105OSM    O1210688   2.009   3.337  10.711 -0.1994 -0.3294 -0.7489
  105OSM    C1S10689   1.822   3.562  10.666 -0.6326 -0.6409 -0.5810
  105OSM    H1S10690   1.919   3.567  10.613  1.0240 -0.3760  2.3298
  105OSM    H1T10691   1.799   3.664  10.704  2.7505 -0.8000  2.2253
  105OSM     NF10692   1.726   3.585  10.436 -0.0750 -0.1533 -0.1495
  105OSM    HNF10693   1.656   3.652  10.411 -0.5268 -0.1285  1.1212
  105OSM    C2S10694   1.708   3.525  10.568 -0.0139  0.6454 -0.2896
  105OSM    H2S10695   1.727   3.416  10.555  1.1442  0.7760  0.1960
  105OSM    C3S10696   1.569   3.543  10.630  0.3859  0.5267 -0.9144
  105OSM    H3S10697   1.545   3.652  10.638 -0.0603  0.2404  2.4235
  105OSM     O310698   1.555   3.500  10.766 -0.5982  0.2006 -0.2023
  105OSM    HO310699   1.647   3.485  10.789 -0.6075 -1.0827 -0.9899
  105OSM    C4S10700   1.457   3.486  10.545  0.3635 -0.6378 -0.5504
  105OSM    H4S10701   1.487   3.393  10.493  1.4570 -1.4340  1.4514
  105OSM    C5S10702   1.335   3.544  10.525 -0.5055 -0.5195  0.5604
  105OSM    H5S10703   1.300   3.627  10.589 -2.5915 -0.2962 -0.8380
  105OSM    C6S10704   1.232   3.484  10.444 -0.3846  0.5324  1.0226
  105OSM    H6S10705   1.141   3.545  10.461  0.1821  2.0781 -1.2292
  105OSM    H6T10706   1.225   3.379  10.479 -0.2953  0.3634  0.5313
  105OSM    C7S10707   1.261   3.465  10.294 -0.6870 -0.1818  0.5511
  105OSM    H7S10708   1.188   3.397  10.245 -0.1592  0.7560 -1.6053
  105OSM    H7T10709   1.364   3.429  10.275 -0.3980  0.3679  1.0541
  105OSM    C8S10710   1.268   3.598  10.208 -0.2219  0.6592  0.4134
  105OSM    H8S10711   1.330   3.668  10.269 -1.6082  2.9775 -0.7453
  105OSM    H8T10712   1.169   3.649  10.210  0.8792  2.9107 -0.5512
  105OSM    C9S10713   1.313   3.576  10.067  0.5106 -0.5043  0.6078
  105OSM    H9S10714   1.385   3.491  10.064 -0.8762 -1.6688 -2.4971
  105OSM    H9T10715   1.369   3.664  10.029  0.5840 -1.7106 -2.2547
  105OSM   C10S10716   1.199   3.565   9.965 -0.5278 -0.7078 -0.1831
  105OSM   H10S10717   1.125   3.647   9.981  0.3530 -0.0510  0.5827
  105OSM   H10T10718   1.152   3.466   9.982  0.6243 -1.0299  1.1307
  105OSM   C11S10719   1.243   3.593   9.820 -0.0234  0.3815 -1.0885
  105OSM   H11S10720   1.314   3.678   9.818 -0.0093  0.3851 -0.3377
  105OSM   H11T10721   1.152   3.610   9.758 -0.6199 -0.1461 -0.3594
  105OSM   C12S10722   1.324   3.473   9.760 -0.4887 -0.7203  0.2979
  105OSM   H12S10723   1.261   3.383   9.773 -1.6317  0.0301  0.0010
  105OSM   H12T10724   1.415   3.455   9.821  0.0290 -2.1975 -0.9102
  105OSM   C13S10725   1.378   3.489   9.621  0.3837  0.3887 -0.1196
  105OSM   H13S10726   1.441   3.401   9.595 -0.3782 -0.5135  1.0507
  105OSM   H13T10727   1.455   3.569   9.617 -0.1971  0.9141 -0.9041
  105OSM   C14S10728   1.267   3.510   9.518  0.4321 -0.6226 -0.3363
  105OSM   H14S10729   1.183   3.571   9.560  1.5182  0.5391  0.1758
  105OSM   H14T10730   1.209   3.415   9.508 -2.5655  1.3023 -2.0328
  105OSM   C15S10731   1.321   3.546   9.379 -0.5265 -0.1864 -0.6471
  105OSM   H15S10732   1.371   3.645   9.380  0.5165 -0.7143 -0.0197
  105OSM   H15T10733   1.230   3.554   9.316 -0.9070  0.6136 -0.0150
  105OSM   C16S10734   1.419   3.446   9.320  0.3767  0.1326 -0.3685
  105OSM   H16S10735   1.388   3.339   9.328  0.0933 -0.0179 -2.9687
  105OSM   H16T10736   1.508   3.458   9.385 -2.5517  1.7796  3.5502
  105OSM   C17S10737   1.447   3.478   9.170 -0.0245 -0.1007  0.6244
  105OSM   H17S10738   1.541   3.425   9.142  0.0457  0.7375 -0.7672
  105OSM   H17T10739   1.456   3.588   9.159 -1.9215 -0.1319 -1.6657
  105OSM   C18S10740   1.329   3.435   9.086 -0.0804 -0.5878  0.5831
  105OSM   H18S10741   1.237   3.489   9.116  1.0784  0.7752  1.7465
  105OSM   H18T10742   1.305   3.327   9.095 -0.9088 -0.2948  1.9668
  105OSM   H18U10743   1.349   3.445   8.977  0.2334 -1.5858  0.5434
  105OSM    C1F10744   1.821   3.561  10.351 -0.7059 -0.5991 -0.5079
  105OSM     OF10745   1.904   3.471  10.372  0.3259 -0.4704  0.2469
  105OSM    C2F10746   1.831   3.641  10.225 -0.2676  0.4144 -0.0122
  105OSM    H2F10747   1.929   3.694  10.230  0.2416 -0.5808  0.7775
  105OSM    H2G10748   1.758   3.725  10.225 -0.3193  0.3786  1.4799
  105OSM    C3F10749   1.821   3.551  10.107 -0.4858  0.2112 -0.8215
  105OSM    H3F10750   1.726   3.494  10.110 -1.6483  2.0968 -1.4161
  105OSM    H3G10751   1.899   3.471  10.114  0.5487  1.3363  0.7841
  105OSM    C4F10752   1.848   3.610   9.975  0.3812  0.5751  0.3655
  105OSM    H4F10753   1.958   3.619   9.957  0.6579  2.1951  2.6748
  105OSM    H4G10754   1.797   3.708   9.965  1.2249  0.9773 -0.1421
  105OSM    C5F10755   1.785   3.528   9.858 -0.0446 -0.3633 -0.4029
  105OSM    H5F10756   1.688   3.578   9.840 -0.4401 -1.6455 -2.0106
  105OSM    H5G10757   1.769   3.424   9.894 -0.8086  0.0729  0.5128
  105OSM    C6F10758   1.867   3.520   9.734 -0.8012 -0.1020  0.4355
  105OSM    H6F10759   1.961   3.462   9.750  0.2542  1.4540 -0.0402
  105OSM    H6G10760   1.898   3.620   9.698  1.0040 -0.2180  1.6007
  105OSM    C7F10761   1.792   3.454   9.616 -0.0749  0.0988  0.0646
  105OSM    H7F10762   1.709   3.517   9.578 -1.8465 -1.6208  1.0078
  105OSM    H7G10763   1.747   3.360   9.656 -0.3576  0.3612  0.3602
  105OSM    C8F10764   1.880   3.407   9.496 -0.0107 -0.2393  0.2233
  105OSM    H8F10765   1.822   3.342   9.427  0.8919 -2.6502  1.6759
  105OSM    H8G10766   1.947   3.328   9.536  0.9172  0.2630 -0.3127
  105OSM    C9F10767   1.952   3.512   9.428  0.2228 -0.1540 -0.6348
  105OSM    H9F10768   2.040   3.551   9.482 -1.0470  1.9429 -0.0249
  105OSM   C10F10769   1.918   3.569   9.308 -0.1800 -0.8127  0.0425
  105OSM   H10F10770   1.971   3.662   9.285  0.3645 -1.3822 -1.0702
  105OSM   C11F10771   1.802   3.530   9.218  0.1051  0.1650  0.3137
  105OSM   H11F10772   1.721   3.606   9.228  0.4735  0.8749 -1.7885
  105OSM   H11G10773   1.764   3.432   9.254 -1.3590  0.8559  0.7142
  105OSM   C12F10774   1.845   3.531   9.071 -0.1751  0.1948  0.4789
  105OSM   H12F10775   1.908   3.620   9.047 -0.6197  1.4780  3.8711
  105OSM   H12G10776   1.750   3.544   9.015 -0.2284  3.3589  1.1959
  105OSM   C13F10777   1.923   3.406   9.012  0.2676  0.0808 -0.1374
  105OSM   H13F10778   1.862   3.315   9.029  1.5736 -0.3886  2.3143
  105OSM   H13G10779   2.012   3.388   9.077  0.1684  0.8520  0.2160
  105OSM   C14F10780   1.970   3.410   8.868  0.7602 -0.4018  0.3610
  105OSM   H14F10781   2.034   3.495   8.837 -1.5260  0.4077 -2.4509
  105OSM   H14G10782   1.879   3.416   8.804  1.0148  0.2917  0.0526
  105OSM   C15F10783   2.039   3.275   8.830 -0.0111 -0.9288 -0.0570
  105OSM   H15F10784   1.967   3.191   8.846 -0.4614 -0.3151  1.1517
  105OSM   H15G10785   2.119   3.250   8.903  1.3695 -0.9491 -1.5337
  105OSM   C16F10786   2.068   3.274   8.675  0.4111 -0.2230  0.1470
  105OSM   H16F10787   2.131   3.364   8.658 -1.1287  0.7103 -0.8261
  105OSM   H16G10788   1.971   3.298   8.625 -1.8404 -0.7890  3.9849
  105OSM   C17F10789   2.135   3.145   8.626  0.7493  0.6440 -0.4949
  105OSM   H17F10790   2.136   3.142   8.515 -1.1660 -1.1251 -0.4992
  105OSM   H17G10791   2.075   3.059   8.663  0.0844  1.1543 -0.3687
  105OSM   C18F10792   2.279   3.130   8.679 -0.0194 -0.3409  0.8541
  105OSM   H18F10793   2.324   3.038   8.636 -0.3706  0.0301 -0.3475
  105OSM   H18G10794   2.283   3.126   8.790  1.3180  3.4155  1.0043
  105OSM   H18H10795   2.339   3.222   8.659 -1.4541  0.3490 -0.3746
  106OSM      N10796   2.983   2.166  10.837  0.6185  0.1527 -0.1222
  106OSM    C1510797   3.006   2.289  10.921  1.1174 -0.7844  0.4087
  106OSM   H15A10798   3.106   2.298  10.959  0.7833  0.2772  1.0463
  106OSM   H15B10799   2.939   2.288  11.006 -0.0994 -0.7399 -0.5236
  106OSM   H15C10800   2.985   2.380  10.867  0.0183  0.1717  2.4178
  106OSM    C1410801   3.017   2.048  10.920  0.3800 -0.5310 -0.3972
  106OSM   H14A10802   2.983   1.951  10.886 -0.4759 -0.2343 -0.4132
  106OSM   H14B10803   2.979   2.056  11.021  1.5043 -0.6960  0.0471
  106OSM   H14C10804   3.124   2.038  10.915  0.2318 -2.0656 -0.8217
  106OSM    C1310805   2.842   2.157  10.799 -0.1556 -0.4305  0.4476
  106OSM   H13A10806   2.783   2.146  10.888 -2.0919 -0.3191 -0.8017
  106OSM   H13B10807   2.828   2.065  10.745  0.8272  0.0030 -0.5692
  106OSM   H13C10808   2.817   2.235  10.728  1.1460 -1.4274 -1.1475
  106OSM    C1210809   3.072   2.164  10.717 -0.3683  0.2316 -0.1400
  106OSM   H12A10810   3.172   2.160  10.758 -0.1048 -1.2162 -0.8731
  106OSM   H12B10811   3.058   2.257  10.664 -2.6841 -0.5752 -1.0406
  106OSM    C1110812   3.061   2.050  10.608 -0.4588 -0.7017  0.9067
  106OSM   H11A10813   3.124   2.080  10.521  1.1160 -0.0924  2.2388
  106OSM   H11B10814   2.955   2.047  10.573  0.0275 -3.0573 -0.4951
  106OSM      P10815   3.247   1.883  10.682  0.6070  0.1724  0.0554
  106OSM    O1310816   3.331   2.004  10.705 -0.1175 -0.1577 -0.0827
  106OSM    O1410817   3.243   1.787  10.796 -0.7055 -0.0673  0.2966
  106OSM    O1110818   3.281   1.818  10.546 -0.4830  0.1903  0.1205
  106OSM    O1210819   3.091   1.922  10.661 -0.6758 -0.2127  0.2498
  106OSM    C1S10820   3.196   1.801  10.434 -0.3345 -0.7454  0.6004
  106OSM    H1S10821   3.182   1.901  10.387  0.2025 -1.6464 -1.4986
  106OSM    H1T10822   3.097   1.758  10.460 -0.2653 -0.9111  0.5898
  106OSM     NF10823   3.168   1.701  10.219 -0.1490  0.0456  0.3598
  106OSM    HNF10824   3.117   1.621  10.188  0.3722 -0.2128  0.1665
  106OSM    C2S10825   3.252   1.695  10.334 -0.1323  0.7984 -0.5183
  106OSM    H2S10826   3.356   1.733  10.320  1.2148 -1.7573  1.9271
  106OSM    C3S10827   3.275   1.556  10.399 -0.3773 -0.9010  0.0546
  106OSM    H3S10828   3.171   1.522  10.417 -0.8014 -1.2610 -2.8787
  106OSM     O310829   3.345   1.568  10.527 -0.7337  0.0556  0.6667
  106OSM    HO310830   3.324   1.660  10.541  0.2850  0.0476  2.4586
  106OSM    C4S10831   3.340   1.461  10.298  0.0036 -0.4702  0.4147
  106OSM    H4S10832   3.271   1.386  10.258  3.2463 -2.2398 -2.1461
  106OSM    C5S10833   3.472   1.469  10.263 -0.1518 -0.0232  0.7100
  106OSM    H5S10834   3.544   1.543  10.302 -0.2501  0.4088  0.0656
  106OSM    C6S10835   3.533   1.369  10.164 -0.1788  0.1741  0.5860
  106OSM    H6S10836   3.465   1.282  10.152  1.6065 -1.3118  0.9900
  106OSM    H6T10837   3.625   1.318  10.200 -0.7145 -0.1934  1.4479
  106OSM    C7S10838   3.537   1.426  10.023  0.3888 -0.1339 -0.3168
  106OSM    H7S10839   3.622   1.498  10.019  1.3752 -1.2923 -0.5368
  106OSM    H7T10840   3.438   1.474  10.005 -0.0509 -0.0920  2.1343
  106OSM    C8S10841   3.578   1.330   9.908 -0.5469 -0.3761 -0.1269
  106OSM    H8S10842   3.491   1.261   9.902 -0.9236  0.0765  0.0247
  106OSM    H8T10843   3.678   1.288   9.928  0.4686  2.2729  0.6487
  106OSM    C9S10844   3.580   1.415   9.780  0.0950 -0.1812  0.5724
  106OSM    H9S10845   3.652   1.499   9.780  1.3810 -1.2346  1.9140
  106OSM    H9T10846   3.477   1.454   9.772 -0.7341 -2.1107  1.5278
  106OSM   C10S10847   3.614   1.334   9.655 -0.0587  0.3373  0.4296
  106OSM   H10S10848   3.547   1.245   9.651  2.0862 -1.3298  0.9318
  106OSM   H10T10849   3.718   1.295   9.654 -0.3411 -0.4666  1.6872
  106OSM   C11S10850   3.592   1.423   9.530 -0.6216  0.1678 -0.4354
  106OSM   H11S10851   3.650   1.516   9.548 -0.1250  0.0444 -1.3860
  106OSM   H11T10852   3.488   1.461   9.519 -0.8857  0.1567  1.8156
  106OSM   C12S10853   3.640   1.350   9.401 -0.4392  0.0043  0.2623
  106OSM   H12S10854   3.582   1.256   9.384 -1.8143  0.5252  1.8436
  106OSM   H12T10855   3.738   1.313   9.438 -0.8488  0.4989  1.9237
  106OSM   C13S10856   3.659   1.450   9.285  0.1012  0.4568 -0.0161
  106OSM   H13S10857   3.722   1.534   9.323 -1.1119  1.7978 -0.9015
  106OSM   H13T10858   3.561   1.490   9.251 -0.6448 -1.3412 -0.0170
  106OSM   C14S10859   3.728   1.379   9.162  0.2077 -0.4328  0.8266
  106OSM   H14S10860   3.657   1.296   9.141 -1.4698  1.0097  0.6164
  106OSM   H14T10861   3.824   1.340   9.200 -0.4001 -2.1773  0.6284
  106OSM   C15S10862   3.750   1.479   9.041 -0.8608  0.3603 -0.3034
  106OSM   H15S10863   3.817   1.562   9.073  0.3295  0.2303 -2.3632
  106OSM   H15T10864   3.658   1.539   9.022 -0.6303  1.5757  2.2067
  106OSM   C16S10865   3.799   1.412   8.911 -0.7684 -0.0737  0.1481
  106OSM   H16S10866   3.883   1.344   8.937 -0.3802  0.2076 -0.3547
  106OSM   H16T10867   3.848   1.496   8.857 -1.4258  2.2013  2.9779
  106OSM   C17S10868   3.695   1.334   8.838 -1.0083  0.0941  0.8277
  106OSM   H17S10869   3.603   1.397   8.843 -1.3210 -0.3516  0.7327
  106OSM   H17T10870   3.674   1.252   8.909 -0.0985 -0.4766  0.4503
  106OSM   C18S10871   3.726   1.272   8.702  0.2768  0.0511  0.3027
  106OSM   H18S10872   3.806   1.197   8.721  0.1419  0.5772  3.1538
  106OSM   H18T10873   3.756   1.346   8.625 -0.2927 -0.9680 -0.9142
  106OSM   H18U10874   3.631   1.225   8.668  0.2011  0.5869 -0.2158
  106OSM    C1F10875   3.176   1.805  10.133  0.3391  0.1001 -0.3136
  106OSM     OF10876   3.284   1.863  10.133 -0.4784 -0.7673  0.4443
  106OSM    C2F10877   3.056   1.859  10.059 -0.0191 -0.2842 -0.3109
  106OSM    H2F10878   3.017   1.943  10.119  0.5179  1.5022 -2.4043
  106OSM    H2G10879   2.978   1.780  10.046 -1.0613  0.8908 -1.3375
  106OSM    C3F10880   3.095   1.900   9.914  0.1344  1.0696  0.6640
  106OSM    H3F10881   3.128   2.006   9.920 -0.0503  1.0841  1.4072
  106OSM    H3G10882   3.004   1.908   9.851  1.7713  2.9717 -1.5790
  106OSM    C4F10883   3.188   1.805   9.832  0.0276 -0.2285 -0.2370
  106OSM    H4F10884   3.292   1.824   9.867 -1.2813  0.9615  3.2145
  106OSM    H4G10885   3.176   1.836   9.726 -4.9041 -2.3350 -0.4472
  106OSM    C5F10886   3.167   1.651   9.838 -0.0563  0.6564 -0.2206
  106OSM    H5F10887   3.187   1.611   9.940  1.2058 -1.3315 -1.2072
  106OSM    H5G10888   3.249   1.610   9.775 -2.3831 -1.2539 -2.1210
  106OSM    C6F10889   3.036   1.588   9.800  0.3180 -0.3494 -0.0858
  106OSM    H6F10890   2.965   1.614   9.881  0.1068 -0.2787 -0.2921
  106OSM    H6G10891   3.043   1.477   9.798  0.0826 -0.4233  2.2700
  106OSM    C7F10892   2.978   1.630   9.667 -0.2031  0.5555  0.1712
  106OSM    H7F10893   2.966   1.740   9.666 -2.1435  0.3519 -0.6224
  106OSM    H7G10894   2.884   1.575   9.644 -0.0787  0.5254 -0.2666
  106OSM    C8F10895   3.076   1.598   9.550  0.2678  0.1142  0.2319
  106OSM    H8F10896   3.104   1.491   9.559 -1.1234 -0.2108  0.7715
  106OSM    H8G10897   3.170   1.656   9.555  1.2530 -1.4962  0.8712
  106OSM    C9F10898   3.022   1.613   9.414  0.0249 -0.4170 -0.5972
  106OSM    H9F10899   2.977   1.517   9.383  1.5977 -1.1957 -0.5772
  106OSM   C10F10900   3.037   1.715   9.328 -0.0678  0.5100 -0.1128
  106OSM   H10F10901   2.971   1.699   9.241 -0.1955  0.4805 -0.0108
  106OSM   C11F10902   3.097   1.849   9.363 -0.1688  0.2838 -0.1336
  106OSM   H11F10903   3.162   1.889   9.282 -1.2964 -1.1738 -1.8165
  106OSM   H11G10904   3.159   1.846   9.455 -1.9662 -1.4906  1.0622
  106OSM   C12F10905   2.981   1.951   9.382  0.2382  0.5783 -0.0914
  106OSM   H12F10906   3.028   2.049   9.407  0.8309  0.4022 -0.4999
  106OSM   H12G10907   2.922   1.915   9.469  0.3077 -1.3830 -0.8399
  106OSM   C13F10908   2.881   1.977   9.272 -0.6894 -0.5732  0.3636
  106OSM   H13F10909   2.841   1.887   9.221 -2.0466 -0.9916  2.1355
  106OSM   H13G10910   2.919   2.039   9.188 -3.9986 -0.6275 -1.2261
  106OSM   C14F10911   2.780   2.075   9.332  0.2024  0.3656  0.7928
  106OSM   H14F10912   2.814   2.138   9.417 -0.2486 -1.3562  2.2857
  106OSM   H14G10913   2.694   2.019   9.374 -0.6654  1.3289  0.3100
  106OSM   C15F10914   2.724   2.175   9.231  1.1165  0.2076 -0.1553
  106OSM   H15F10915   2.785   2.268   9.224 -0.3234  1.0206 -2.9302
  106OSM   H15G10916   2.632   2.215   9.278  0.3834 -1.1888 -0.3905
  106OSM   C16F10917   2.695   2.121   9.091 -0.1095 -0.2519 -0.2226
  106OSM   H16F10918   2.631   2.030   9.096  0.4365 -0.5899  0.6649
  106OSM   H16G10919   2.796   2.100   9.050 -0.1235 -3.1801  1.0918
  106OSM   C17F10920   2.623   2.210   8.993  0.0196 -0.2740 -0.5599
  106OSM   H17F10921   2.603   2.162   8.894 -2.8554 -0.3457  0.0138
  106OSM   H17G10922   2.685   2.299   8.971 -0.3014  0.1114  0.0910
  106OSM   C18F10923   2.485   2.259   9.037 -0.2972  0.3179 -0.0644
  106OSM   H18F10924   2.420   2.171   9.054  1.6396 -0.6465  2.7275
  106OSM   H18G10925   2.432   2.335   8.977  1.7259 -0.0029 -2.3699
  106OSM   H18H10926   2.497   2.308   9.135 -0.7044  2.4088 -1.0446
  107OSM      N10927   3.430   6.007  11.086  0.0842  0.0609  0.5850
  107OSM    C1510928   3.291   6.023  11.022 -0.5607 -0.0893  0.2838
  107OSM   H15A10929   3.290   5.967  10.929 -0.4312  1.3791 -0.6097
  107OSM   H15B10930   3.265   6.124  10.994  3.5134  0.8927 -0.2720
  107OSM   H15C10931   3.223   5.970  11.088  0.5641  0.5704  1.9875
  107OSM    C1410932   3.419   5.872  11.151 -0.4315  0.7144 -0.2666
  107OSM   H14A10933   3.336   5.863  11.220 -0.0469 -0.6885  0.0238
  107OSM   H14B10934   3.510   5.848  11.205 -0.5388 -0.0128 -0.4022
  107OSM   H14C10935   3.409   5.796  11.075  1.6661  0.3379 -0.1954
  107OSM    C1310936   3.533   5.987  10.987  0.7619 -0.8176 -0.0983
  107OSM   H13A10937   3.515   5.908  10.915 -0.5789 -0.2978 -0.3381
  107OSM   H13B10938   3.625   5.950  11.032 -0.7039 -1.1555  2.7035
  107OSM   H13C10939   3.554   6.084  10.945 -2.8683 -0.6889 -1.8065
  107OSM    C1210940   3.453   6.116  11.186  0.1349  0.2907  0.0702
  107OSM   H12A10941   3.532   6.095  11.257 -2.6165  0.0984  3.1912
  107OSM   H12B10942   3.371   6.119  11.257  1.0982  0.1340  1.2077
  107OSM    C1110943   3.469   6.266  11.140 -0.0362 -0.0090  0.3267
  107OSM   H11A10944   3.491   6.326  11.231  1.2297 -2.6029  1.8189
  107OSM   H11B10945   3.378   6.306  11.092  0.4511  1.9338  0.9923
  107OSM      P10946   3.633   6.427  11.023  0.0682  0.1388  0.0178
  107OSM    O1310947   3.518   6.505  10.969 -0.0632 -0.4288  0.0471
  107OSM    O1410948   3.705   6.476  11.142  0.0559  0.5537 -0.2644
  107OSM    O1110949   3.738   6.410  10.902 -0.2724 -0.2477  0.1496
  107OSM    O1210950   3.587   6.280  11.051  0.2695  0.6308 -0.0721
  107OSM    C1S10951   3.729   6.285  10.826  0.3765  0.2581  0.9004
  107OSM    H1S10952   3.625   6.245  10.823 -0.2954  2.0124 -0.4897
  107OSM    H1T10953   3.794   6.208  10.872 -0.1295 -0.0243  1.1475
  107OSM     NF10954   3.762   6.162  10.619  0.7160 -0.0100 -0.7091
  107OSM    HNF10955   3.843   6.104  10.618  0.4293 -0.4227 -0.4350
  107OSM    C2S10956   3.774   6.297  10.679  0.5166  0.7154  0.2252
  107OSM    H2S10957   3.694   6.352  10.624 -0.5443 -0.4756  0.5435
  107OSM    C3S10958   3.912   6.361  10.663 -0.3003 -0.3748  0.1999
  107OSM    H3S10959   3.980   6.288  10.713 -1.8994 -1.5055  0.7884
  107OSM     O310960   3.922   6.484  10.732 -0.2883 -0.6236  0.0133
  107OSM    HO310961   3.836   6.500  10.771 -1.3114 -1.4693 -1.8164
  107OSM    C4S10962   3.957   6.371  10.519 -0.3812 -0.5710  0.7268
  107OSM    H4S10963   3.996   6.279  10.473  4.0212  1.2389  0.5394
  107OSM    C5S10964   3.950   6.477  10.436  1.0099 -0.1422  0.0492
  107OSM    H5S10965   3.904   6.572  10.466 -0.9098 -0.3500 -2.1302
  107OSM    C6S10966   3.981   6.470  10.283  0.4708 -0.2984 -0.1763
  107OSM    H6S10967   4.029   6.566  10.254  0.7073 -0.4168 -0.1821
  107OSM    H6T10968   3.887   6.459  10.225 -0.8683 -1.3914  2.1314
  107OSM    C7S10969   4.080   6.366  10.232  0.4396  0.0016 -0.0056
  107OSM    H7S10970   4.038   6.263  10.242  2.1585 -0.6137  1.1960
  107OSM    H7T10971   4.165   6.362  10.304 -1.5612  2.4035  2.5649
  107OSM    C8S10972   4.124   6.394  10.096 -1.1691  0.1225 -0.5321
  107OSM    H8S10973   4.222   6.343  10.089 -0.5549  1.1266  0.5348
  107OSM    H8T10974   4.153   6.500  10.089 -0.2726 -0.1063 -0.3557
  107OSM    C9S10975   4.027   6.358   9.987 -0.2608 -0.3488  0.5620
  107OSM    H9S10976   3.937   6.422   9.983  0.7243  1.0701  0.6185
  107OSM    H9T10977   4.000   6.251  10.000  0.0008 -0.3659  0.9794
  107OSM   C10S10978   4.088   6.366   9.844 -0.2971  0.3062 -0.0986
  107OSM   H10S10979   4.173   6.437   9.850  1.2406 -1.6061  1.1944
  107OSM   H10T10980   4.006   6.393   9.774 -0.6403  2.9321  1.2516
  107OSM   C11S10981   4.162   6.236   9.807  0.2816  0.6037 -0.8787
  107OSM   H11S10982   4.082   6.158   9.809  2.1308 -1.3478 -1.2179
  107OSM   H11T10983   4.234   6.201   9.884 -0.8271  0.6353  0.1947
  107OSM   C12S10984   4.230   6.245   9.677  0.3656 -0.5494  0.3269
  107OSM   H12S10985   4.292   6.156   9.653 -0.0513 -0.8300  0.2929
  107OSM   H12T10986   4.294   6.336   9.682  0.3289 -0.4911 -0.2638
  107OSM   C13S10987   4.132   6.249   9.552 -0.2363  0.3187  0.0490
  107OSM   H13S10988   4.084   6.348   9.566 -0.4950  0.0862  0.8496
  107OSM   H13T10989   4.056   6.171   9.575 -1.3645  0.5721 -2.6092
  107OSM   C14S10990   4.208   6.242   9.421 -0.9535  0.1291 -0.2100
  107OSM   H14S10991   4.242   6.136   9.411  0.2911  0.0567  3.9601
  107OSM   H14T10992   4.295   6.311   9.429 -1.2812  0.4588  0.5503
  107OSM   C15S10993   4.120   6.288   9.304  0.0835  0.5818  0.7262
  107OSM   H15S10994   4.085   6.393   9.308  1.4373  1.0528  0.5329
  107OSM   H15T10995   4.026   6.229   9.311 -0.3137  1.4755  3.7237
  107OSM   C16S10996   4.173   6.257   9.166 -0.4891  0.7836  0.0549
  107OSM   H16S10997   4.125   6.164   9.127  0.6940 -0.5516  1.6643
  107OSM   H16T10998   4.278   6.227   9.184 -0.9943 -1.2655 -0.2572
  107OSM   C17S10999   4.150   6.362   9.060  0.1931 -0.2336 -0.0624
  107OSM   H17S11000   4.196   6.453   9.103 -1.4678  1.0358 -0.9069
  107OSM   H17T11001   4.044   6.393   9.055 -0.4791 -2.6967 -2.6717
  107OSM   C18S11002   4.215   6.330   8.922  0.0461 -0.7769 -0.4386
  107OSM   H18S11003   4.181   6.233   8.880  0.1032 -1.4782  1.1137
  107OSM   H18T11004   4.325   6.340   8.928 -0.2598  1.6775  1.8157
  107OSM   H18U11005   4.171   6.404   8.851  1.0642 -2.3525 -2.7691
  107OSM    C1F11006   3.637   6.122  10.583 -0.2644 -0.0846  0.8754
  107OSM     OF11007   3.541   6.189  10.621  0.6190  0.4698  0.3813
  107OSM    C2F11008   3.630   5.998  10.502  0.1849  0.8337  0.5196
  107OSM    H2F11009   3.527   5.982  10.465  1.5736  0.7824 -3.5333
  107OSM    H2G11010   3.657   5.911  10.565 -0.4206  0.6470  0.5230
  107OSM    C3F11011   3.719   5.992  10.374 -0.5446  0.2359  0.1514
  107OSM    H3F11012   3.692   5.900  10.319 -0.0812  0.8261 -1.0889
  107OSM    H3G11013   3.828   5.997  10.397 -0.6433  1.5603  0.3695
  107OSM    C4F11014   3.690   6.102  10.267 -0.6894  0.0365 -0.5497
  107OSM    H4F11015   3.712   6.199  10.315 -0.5435 -1.3329  2.2381
  107OSM    H4G11016   3.581   6.100  10.247 -0.2434  1.0277 -3.3051
  107OSM    C5F11017   3.756   6.078  10.133 -0.5946  0.0248  0.6165
  107OSM    H5F11018   3.736   5.971  10.115 -0.5775  0.5071 -2.5564
  107OSM    H5G11019   3.864   6.099  10.149  0.1745 -2.1252 -1.5308
  107OSM    C6F11020   3.681   6.155  10.026 -0.2833 -0.0283  0.6649
  107OSM    H6F11021   3.703   6.263  10.037  2.2081 -0.3150 -1.0325
  107OSM    H6G11022   3.570   6.147  10.032 -0.7038  2.7465 -2.1014
  107OSM    C7F11023   3.740   6.103   9.890 -0.1699  0.3400 -0.1870
  107OSM    H7F11024   3.718   5.994   9.885 -0.8099  0.4600 -0.0540
  107OSM    H7G11025   3.851   6.104   9.898 -0.2849  3.0083  1.8073
  107OSM    C8F11026   3.692   6.176   9.761  0.7270  0.3403 -0.1703
  107OSM    H8F11027   3.730   6.280   9.762 -0.9672  0.9824 -0.2446
  107OSM    H8G11028   3.586   6.189   9.791  0.6133  2.2440 -1.3218
  107OSM    C9F11029   3.705   6.113   9.625  0.3322 -0.2734 -0.1223
  107OSM    H9F11030   3.681   6.006   9.633 -0.3900 -0.2155 -1.2747
  107OSM   C10F11031   3.725   6.161   9.499  0.5137 -0.0181  0.6523
  107OSM   H10F11032   3.717   6.090   9.415 -0.4290  1.7259 -0.7777
  107OSM   C11F11033   3.737   6.306   9.461  0.0240  0.1409  0.1997
  107OSM   H11F11034   3.808   6.315   9.376 -0.8849 -0.2043 -0.6000
  107OSM   H11G11035   3.795   6.357   9.541 -0.1173  0.6584 -0.0282
  107OSM   C12F11036   3.596   6.372   9.438  0.2868  0.4681  0.4523
  107OSM   H12F11037   3.613   6.482   9.436  1.4810  0.2638 -1.1846
  107OSM   H12G11038   3.535   6.354   9.529 -0.4724 -1.3631 -0.4014
  107OSM   C13F11039   3.530   6.309   9.312  0.4974  0.2309  0.0479
  107OSM   H13F11040   3.430   6.355   9.294  0.5949  1.9175  3.4088
  107OSM   H13G11041   3.522   6.199   9.329 -0.8960  0.2355 -0.5323
  107OSM   C14F11042   3.624   6.323   9.193 -0.0808 -0.2758  0.0601
  107OSM   H14F11043   3.695   6.238   9.201  0.6731  0.5063  2.2863
  107OSM   H14G11044   3.684   6.416   9.205 -1.4235  0.6445 -0.2897
  107OSM   C15F11045   3.563   6.310   9.055 -0.5491  0.1652  0.0100
  107OSM   H15F11046   3.484   6.233   9.061 -0.4990  0.1559  0.5249
  107OSM   H15G11047   3.634   6.276   8.976 -0.2065 -1.1656  0.8824
  107OSM   C16F11048   3.482   6.434   9.006  0.1199  0.0082  0.2974
  107OSM   H16F11049   3.389   6.447   9.064  0.4481 -0.2022  0.8689
  107OSM   H16G11050   3.450   6.421   8.900  0.1665  1.4221  0.0987
  107OSM   C17F11051   3.572   6.557   9.032  0.2631 -0.5359 -0.1653
  107OSM   H17F11052   3.662   6.543   8.968 -0.7051 -0.2936 -1.6114
  107OSM   H17G11053   3.584   6.565   9.142 -1.7201 -1.3541  0.1404
  107OSM   C18F11054   3.499   6.683   8.990  0.2493 -0.4840 -0.7418
  107OSM   H18F11055   3.454   6.682   8.889 -1.3760 -0.1208 -0.0309
  107OSM   H18G11056   3.573   6.766   8.994  0.2241 -0.5438  1.2651
  107OSM   H18H11057   3.421   6.714   9.062  1.2608  1.5228 -0.4482
  108OSM      N11058   0.747   3.336  11.233  0.2189 -0.1515 -0.4968
  108OSM    C1511059   0.741   3.450  11.333 -0.3013  0.2273 -0.1862
  108OSM   H15A11060   0.756   3.410  11.433 -0.7739 -1.3005 -0.7060
  108OSM   H15B11061   0.644   3.497  11.341 -1.2381 -1.7329  0.1898
  108OSM   H15C11062   0.811   3.530  11.313  0.8681 -0.4791  0.9864
  108OSM    C1411063   0.890   3.288  11.222 -0.0726 -0.8029 -0.6690
  108OSM   H14A11064   0.957   3.372  11.207 -1.3763  0.3155 -0.3350
  108OSM   H14B11065   0.905   3.230  11.133 -1.8848 -2.4717  0.0818
  108OSM   H14C11066   0.919   3.229  11.307 -0.5924  1.0925  0.8750
  108OSM    C1311067   0.660   3.217  11.280  0.3453 -0.1259  0.0987
  108OSM   H13A11068   0.692   3.192  11.380  2.1962  0.2000 -0.3875
  108OSM   H13B11069   0.653   3.131  11.215 -2.5859  0.9300 -1.0922
  108OSM   H13C11070   0.558   3.251  11.292  0.4254 -0.5810  2.1124
  108OSM    C1211071   0.699   3.383  11.098  0.1473 -0.0319 -0.0824
  108OSM   H12A11072   0.757   3.473  11.085 -1.4424  1.4680  2.6046
  108OSM   H12B11073   0.600   3.426  11.102  0.4980  0.7020  0.9561
  108OSM    C1111074   0.701   3.290  10.973 -0.3537 -0.1674 -0.8574
  108OSM   H11A11075   0.795   3.231  10.969 -0.3045 -0.1504  0.0969
  108OSM   H11B11076   0.690   3.348  10.879 -2.8001  5.2777  2.5783
  108OSM      P11077   0.448   3.219  10.966 -0.0392 -0.3833 -0.0785
  108OSM    O1311078   0.376   3.120  11.048  0.0691 -0.3563 -0.3734
  108OSM    O1411079   0.424   3.362  10.999  0.2426 -0.0572  0.2831
  108OSM    O1111080   0.419   3.186  10.818 -0.4799  0.5154 -0.7192
  108OSM    O1211081   0.595   3.193  10.984 -0.1786 -0.4972 -0.9718
  108OSM    C1S11082   0.286   3.226  10.765  0.2632  0.5349  0.1982
  108OSM    H1S11083   0.264   3.331  10.794  0.8862  0.3926  1.2160
  108OSM    H1T11084   0.195   3.171  10.796 -0.9597  2.6456  0.4596
  108OSM     NF11085   0.177   3.313  10.550 -0.1430  0.7226 -0.0708
  108OSM    HNF11086   0.117   3.260  10.491 -0.7214  1.1338  0.1401
  108OSM    C2S11087   0.289   3.233  10.611 -0.2155 -0.2138  0.1174
  108OSM    H2S11088   0.386   3.283  10.592 -0.5412  0.5932  0.5929
  108OSM    C3S11089   0.291   3.097  10.554 -0.6943 -0.4787 -0.9975
  108OSM    H3S11090   0.198   3.040  10.579 -1.2794  0.3624 -1.2495
  108OSM     O311091   0.392   3.013  10.605 -1.0088 -0.3605 -0.1764
  108OSM    HO311092   0.432   3.062  10.677 -0.8195  1.6756 -1.6297
  108OSM    C4S11093   0.302   3.091  10.400 -0.0600  0.0638 -0.6846
  108OSM    H4S11094   0.204   3.104  10.353  0.3592  1.0997 -1.3022
  108OSM    C5S11095   0.413   3.089  10.323  0.1754  0.4150  0.5239
  108OSM    H5S11096   0.511   3.095  10.373 -1.2617 -0.0684  3.5117
  108OSM    C6S11097   0.415   3.075  10.172 -0.3734  0.5421 -0.2306
  108OSM    H6S11098   0.319   3.092  10.119  0.1723  2.3118 -0.6972
  108OSM    H6T11099   0.434   2.968  10.150 -4.3636 -0.3142  0.0225
  108OSM    C7S11100   0.520   3.162  10.102 -0.1892  0.3783  0.1502
  108OSM    H7S11101   0.622   3.159  10.147  1.8057  1.3165 -4.0865
  108OSM    H7T11102   0.486   3.267  10.116 -2.7306 -0.3433 -0.3624
  108OSM    C8S11103   0.524   3.135   9.951  0.1591 -0.0976  0.0801
  108OSM    H8S11104   0.600   3.207   9.913 -0.2602  1.2216  1.6838
  108OSM    H8T11105   0.424   3.148   9.905  0.3587  0.9143 -0.0786
  108OSM    C9S11106   0.555   2.980   9.917  0.2092  1.1155  1.0612
  108OSM    H9S11107   0.467   2.916   9.940  0.2231  0.2916 -1.1530
  108OSM    H9T11108   0.638   2.951   9.985  1.5383  2.4042  0.0217
  108OSM   C10S11109   0.588   2.966   9.766 -0.6560  0.6146 -0.4798
  108OSM   H10S11110   0.670   3.039   9.751  1.1773 -1.0222  1.2588
  108OSM   H10T11111   0.501   3.002   9.707 -2.9876  0.7601  2.8920
  108OSM   C11S11112   0.625   2.829   9.704 -0.0456  0.2371 -0.6631
  108OSM   H11S11113   0.548   2.754   9.732 -0.0351  0.2820 -0.5165
  108OSM   H11T11114   0.726   2.800   9.740 -0.0547  0.0619 -0.7787
  108OSM   C12S11115   0.616   2.840   9.547 -1.1194 -0.0883  0.3673
  108OSM   H12S11116   0.650   2.943   9.524 -1.5127 -0.5386 -2.4682
  108OSM   H12T11117   0.507   2.839   9.525 -1.1988  2.2278  0.4888
  108OSM   C13S11118   0.707   2.733   9.493 -0.1327 -0.4699  0.3935
  108OSM   H13S11119   0.662   2.636   9.523  1.0756 -0.9129  0.8085
  108OSM   H13T11120   0.806   2.742   9.543 -0.2051  0.0508  0.4490
  108OSM   C14S11121   0.730   2.728   9.337 -0.3893  0.0566 -0.6149
  108OSM   H14S11122   0.782   2.823   9.313  0.1544  0.1234  0.7822
  108OSM   H14T11123   0.628   2.736   9.295 -2.1878 -1.5449  3.1608
  108OSM   C15S11124   0.792   2.603   9.284 -0.8403  0.4058 -0.2182
  108OSM   H15S11125   0.722   2.517   9.295 -1.1127  0.7306  0.5273
  108OSM   H15T11126   0.888   2.587   9.339 -0.1693 -0.3633 -1.5635
  108OSM   C16S11127   0.819   2.628   9.136 -0.3266  0.2989  0.2434
  108OSM   H16S11128   0.914   2.575   9.115 -0.8851 -0.7987  0.4863
  108OSM   H16T11129   0.843   2.735   9.119 -0.0682  0.4049  1.2323
  108OSM   C17S11130   0.706   2.601   9.043 -0.2416  0.4167  0.7186
  108OSM   H17S11131   0.709   2.675   8.960  4.3689  2.5936  2.6295
  108OSM   H17T11132   0.600   2.602   9.078 -0.4464  0.8728  0.0946
  108OSM   C18S11133   0.738   2.469   8.962 -0.3708 -0.3102 -0.4179
  108OSM   H18S11134   0.729   2.386   9.035  1.0335 -0.3619 -0.2867
  108OSM   H18T11135   0.843   2.473   8.927 -0.3679  0.2924 -0.3373
  108OSM   H18U11136   0.667   2.459   8.877 -1.5443 -0.3405  0.5614
  108OSM    C1F11137   0.158   3.443  10.576 -0.1616  0.8701  1.5742
  108OSM     OF11138   0.225   3.516  10.653  0.1772 -0.3739  0.6322
  108OSM    C2F11139   0.050   3.505  10.492 -0.0041 -0.4494 -0.1148
  108OSM    H2F11140  -0.015   3.567  10.556 -0.1785 -2.7858  2.0633
  108OSM    H2G11141  -0.019   3.426  10.455 -0.9495 -0.1185  0.9413
  108OSM    C3F11142   0.103   3.583  10.373  0.5672 -0.4153  0.4599
  108OSM    H3F11143   0.162   3.668  10.415  1.8120 -1.6745  1.2945
  108OSM    H3G11144   0.015   3.637  10.333  0.8998 -0.2106 -0.0100
  108OSM    C4F11145   0.169   3.498  10.265 -0.1766  0.1928 -0.5955
  108OSM    H4F11146   0.266   3.453  10.295  0.4676  1.4389 -0.7839
  108OSM    H4G11147   0.195   3.571  10.185  1.0747  1.0859  0.6193
  108OSM    C5F11148   0.078   3.388  10.200  0.4264 -1.0971  0.2476
  108OSM    H5F11149  -0.026   3.426  10.188  0.2135 -0.5677  3.1945
  108OSM    H5G11150   0.075   3.302  10.271  0.0084  0.1262  1.7535
  108OSM    C6F11151   0.130   3.340  10.067  0.0871 -0.3341  0.2602
  108OSM    H6F11152   0.090   3.237  10.055  2.1936 -0.9074 -2.0766
  108OSM    H6G11153   0.241   3.334  10.064  0.1348  0.8132 -0.3095
  108OSM    C7F11154   0.090   3.424   9.942 -0.7887 -0.2251  0.3411
  108OSM    H7F11155   0.120   3.529   9.964 -1.9943  0.0377  0.7697
  108OSM    H7G11156  -0.019   3.436   9.929 -0.5133  2.8808  0.4976
  108OSM    C8F11157   0.150   3.355   9.816  0.1782 -0.1572  0.4381
  108OSM    H8F11158   0.251   3.309   9.821  0.5366  0.4340 -1.1171
  108OSM    H8G11159   0.169   3.433   9.739 -0.6326 -0.0186  0.3725
  108OSM    C9F11160   0.052   3.249   9.765 -0.5102  0.3288  0.4456
  108OSM    H9F11161  -0.055   3.271   9.776 -0.2079  2.1873 -0.2547
  108OSM   C10F11162   0.084   3.136   9.698 -0.3119  0.2734  0.9593
  108OSM   H10F11163   0.007   3.072   9.652  1.5829 -0.9058 -0.6115
  108OSM   C11F11164   0.220   3.085   9.661  0.7620  0.8408  0.7897
  108OSM   H11F11165   0.250   3.013   9.740  0.2800 -1.4443 -1.0588
  108OSM   H11G11166   0.296   3.167   9.656 -0.0111  1.5402  0.4844
  108OSM   C12F11167   0.211   3.000   9.536  0.0756  0.7799 -0.3018
  108OSM   H12F11168   0.122   2.932   9.536 -0.5596  1.5980 -0.2050
  108OSM   H12G11169   0.304   2.942   9.521 -0.3535  0.4095 -1.6412
  108OSM   C13F11170   0.207   3.082   9.406  0.4035  0.1870  0.0116
  108OSM   H13F11171   0.223   3.011   9.323  0.7045 -1.6010  1.5564
  108OSM   H13G11172   0.284   3.162   9.405 -1.7696  2.3413 -1.9403
  108OSM   C14F11173   0.077   3.165   9.385 -0.1954 -0.3454  0.6059
  108OSM   H14F11174   0.087   3.248   9.458  2.6524 -1.0924  1.0928
  108OSM   H14G11175  -0.013   3.103   9.407 -0.3413 -0.8078 -1.2045
  108OSM   C15F11176   0.057   3.229   9.245 -0.5535  0.2827  0.2048
  108OSM   H15F11177   0.159   3.251   9.207  1.2211 -1.1997  3.7947
  108OSM   H15G11178   0.015   3.330   9.266 -5.2936 -1.8682  1.8727
  108OSM   C16F11179  -0.029   3.142   9.163  0.3734 -0.3821  0.9058
  108OSM   H16F11180  -0.138   3.156   9.178  0.3539  1.5242 -0.8008
  108OSM   H16G11181   0.000   3.037   9.186  1.1925 -0.2229  0.6006
  108OSM   C17F11182  -0.015   3.174   9.009 -0.8081 -0.5642  0.1021
  108OSM   H17F11183   0.087   3.150   8.974 -0.9808  0.5643 -1.2176
  108OSM   H17G11184  -0.036   3.281   8.987  1.7483 -0.3515 -1.4264
  108OSM   C18F11185  -0.121   3.109   8.922 -0.7198 -0.6727  0.3471
  108OSM   H18F11186  -0.107   3.130   8.814 -0.3845 -0.2989  0.4634
  108OSM   H18G11187  -0.223   3.144   8.948 -0.5548 -0.1650  0.3049
  108OSM   H18H11188  -0.120   2.998   8.936 -1.1073 -0.6227  0.8024
  109OSM      N11189   1.221   4.183  10.835 -0.3387 -0.2878  0.2710
  109OSM    C1511190   1.198   4.039  10.824  0.2689 -0.3245 -0.2909
  109OSM   H15A11191   1.122   4.011  10.896  0.3000 -0.0675 -0.1566
  109OSM   H15B11192   1.289   3.986  10.847  0.7874  0.3453 -0.7687
  109OSM   H15C11193   1.167   4.018  10.723  1.8480 -0.1446 -0.8211
  109OSM    C1411194   1.100   4.260  10.803 -0.0835  0.5217  0.2696
  109OSM   H14A11195   1.091   4.250  10.696 -0.3155 -2.3891  0.5337
  109OSM   H14B11196   1.118   4.366  10.814 -1.2423  1.0480 -2.4001
  109OSM   H14C11197   1.015   4.219  10.854 -0.3102 -0.4874 -0.9132
  109OSM    C1311198   1.265   4.211  10.981 -0.4276  0.5411  0.1263
  109OSM   H13A11199   1.268   4.319  10.990 -0.6723  0.6865 -1.4094
  109OSM   H13B11200   1.350   4.156  11.020 -0.3103 -0.2399 -1.1866
  109OSM   H13C11201   1.178   4.184  11.038 -1.3669  1.0907 -1.0179
  109OSM    C1211202   1.330   4.232  10.747  0.0169  0.0048 -0.2254
  109OSM   H12A11203   1.309   4.208  10.644 -1.8757 -1.1116  0.3985
  109OSM   H12B11204   1.416   4.169  10.767 -1.7711 -2.3488  0.3704
  109OSM    C1111205   1.392   4.371  10.756  0.3508  0.6063  0.4819
  109OSM   H11A11206   1.474   4.369  10.682  0.1902  1.5413  0.2697
  109OSM   H11B11207   1.444   4.392  10.852  0.8611  0.6891  0.1866
  109OSM      P11208   1.245   4.495  10.588  0.1420 -0.0358  0.0434
  109OSM    O1311209   1.300   4.404  10.487 -0.2818 -0.2071 -0.4299
  109OSM    O1411210   1.102   4.502  10.609  0.1536  0.0173 -0.1235
  109OSM    O1111211   1.291   4.642  10.547  0.3366 -0.2102 -0.5704
  109OSM    O1211212   1.299   4.472  10.732 -0.2518  0.1794 -0.3602
  109OSM    C1S11213   1.340   4.679  10.425  0.0918  0.1187  0.6529
  109OSM    H1S11214   1.404   4.600  10.380  0.9860  0.3071  1.5713
  109OSM    H1T11215   1.401   4.772  10.439  0.3042  0.2799 -1.1746
  109OSM     NF11216   1.286   4.760  10.196 -0.9878 -0.1442 -0.4250
  109OSM    HNF11217   1.271   4.853  10.162  0.9723  0.5826  0.6335
  109OSM    C2S11218   1.225   4.718  10.324 -0.3700 -0.0612 -0.6888
  109OSM    H2S11219   1.163   4.627  10.308  0.8214 -0.5103 -2.7992
  109OSM    C3S11220   1.140   4.831  10.390  0.6033 -0.3063 -0.4191
  109OSM    H3S11221   1.197   4.920  10.422  1.7130 -0.7723 -1.0671
  109OSM     O311222   1.064   4.796  10.502  0.7393 -0.3206  0.3333
  109OSM    HO311223   1.097   4.712  10.533  2.6993  0.3506  0.1080
  109OSM    C4S11224   1.052   4.884  10.274 -1.5026  0.8059 -0.1527
  109OSM    H4S11225   1.091   4.976  10.228  2.6481 -1.2469 -0.9121
  109OSM    C5S11226   0.942   4.818  10.228  0.1773  0.2143  0.2481
  109OSM    H5S11227   0.908   4.723  10.272  0.1722  0.4467  0.7591
  109OSM    C6S11228   0.853   4.867  10.111 -0.4644 -0.0771  0.0848
  109OSM    H6S11229   0.876   4.976  10.112  1.2202 -0.4108 -0.1236
  109OSM    H6T11230   0.747   4.847  10.136 -0.4528  0.7988  0.8540
  109OSM    C7S11231   0.895   4.798   9.985 -0.6434 -0.0018  0.6910
  109OSM    H7S11232   0.884   4.690  10.009  0.1567  0.1318  1.6979
  109OSM    H7T11233   1.003   4.818   9.969 -0.7277 -0.6838 -0.7940
  109OSM    C8S11234   0.820   4.822   9.858  0.5692 -0.0095  0.4936
  109OSM    H8S11235   0.804   4.931   9.846 -1.7085 -0.1433  2.0022
  109OSM    H8T11236   0.717   4.780   9.862  1.0293 -1.4788 -1.7085
  109OSM    C9S11237   0.890   4.747   9.744  0.6031  0.1524  0.0233
  109OSM    H9S11238   0.858   4.642   9.760 -1.2869  0.8452  1.0239
  109OSM    H9T11239   1.000   4.758   9.756  0.8457 -1.7646 -0.2676
  109OSM   C10S11240   0.849   4.804   9.607  0.1873  0.6424 -0.3656
  109OSM   H10S11241   0.911   4.892   9.580 -1.0829  1.5219 -0.4306
  109OSM   H10T11242   0.751   4.853   9.619 -0.7508 -1.4820  0.8494
  109OSM   C11S11243   0.865   4.715   9.486 -0.1115 -0.8449  0.5872
  109OSM   H11S11244   0.781   4.721   9.413 -0.7895 -1.9423  1.2485
  109OSM   H11T11245   0.877   4.608   9.514  0.7831 -1.1682 -0.9749
  109OSM   C12S11246   0.999   4.744   9.408  0.8904  0.0382 -0.6853
  109OSM   H12S11247   1.084   4.724   9.476  0.8926  1.4013 -0.2571
  109OSM   H12T11248   1.001   4.853   9.385 -2.3577  0.4220  0.4206
  109OSM   C13S11249   1.005   4.653   9.282  0.9126 -0.2324 -0.7637
  109OSM   H13S11250   0.919   4.674   9.215  0.1382  1.4936  0.7440
  109OSM   H13T11251   0.996   4.545   9.306  1.3313  0.0875  0.9033
  109OSM   C14S11252   1.130   4.665   9.200 -0.1477  0.1831  0.6878
  109OSM   H14S11253   1.221   4.660   9.263  0.6834  0.6634 -0.4539
  109OSM   H14T11254   1.128   4.761   9.144 -0.8501  0.3482  0.9901
  109OSM   C15S11255   1.153   4.550   9.095  0.4304 -0.0720  0.1334
  109OSM   H15S11256   1.190   4.597   9.001  2.7637 -1.9464  0.0416
  109OSM   H15T11257   1.062   4.494   9.066  0.3393 -0.5613  1.3500
  109OSM   C16S11258   1.258   4.448   9.155  0.1924  0.1246  0.6461
  109OSM   H16S11259   1.208   4.390   9.236 -0.3484 -0.6665 -0.2371
  109OSM   H16T11260   1.344   4.509   9.189  1.0326 -0.8494  0.2846
  109OSM   C17S11261   1.311   4.342   9.054  0.0442 -0.1590 -0.1340
  109OSM   H17S11262   1.221   4.305   9.001  0.1187 -2.7445  1.4728
  109OSM   H17T11263   1.343   4.262   9.125  1.5152  1.4796  1.1025
  109OSM   C18S11264   1.404   4.395   8.949  0.9588  0.9563  0.3426
  109OSM   H18S11265   1.361   4.490   8.910 -0.1903 -0.0166 -0.8242
  109OSM   H18T11266   1.403   4.324   8.863 -0.1647 -0.8328  1.8052
  109OSM   H18U11267   1.509   4.410   8.982  1.0324  0.1489  0.4822
  109OSM    C1F11268   1.331   4.660  10.115  0.1602  0.2551  0.0345
  109OSM     OF11269   1.298   4.542  10.138  0.0384  0.1185  0.4108
  109OSM    C2F11270   1.420   4.690   9.998 -0.3051  0.4995  0.6954
  109OSM    H2F11271   1.526   4.677  10.028  0.5777  1.3149 -1.8933
  109OSM    H2G11272   1.414   4.798   9.973 -2.9782 -0.2142 -2.0201
  109OSM    C3F11273   1.384   4.606   9.870 -0.3170  0.0809 -0.8641
  109OSM    H3F11274   1.274   4.615   9.856 -0.1371  0.1019 -2.2917
  109OSM    H3G11275   1.404   4.502   9.904 -0.2547  0.5845  0.7076
  109OSM    C4F11276   1.478   4.625   9.750 -0.2845  0.0513  0.0493
  109OSM    H4F11277   1.582   4.639   9.785  0.6050 -0.2048 -2.3589
  109OSM    H4G11278   1.458   4.722   9.699 -1.2670 -0.3429 -0.3479
  109OSM    C5F11279   1.460   4.503   9.646  0.8721 -0.1605 -0.5687
  109OSM    H5F11280   1.353   4.497   9.614 -0.0086  0.2284  2.1224
  109OSM    H5G11281   1.480   4.404   9.692  0.9170  0.2110  0.2292
  109OSM    C6F11282   1.558   4.516   9.535  0.5692 -0.0378 -0.5081
  109OSM    H6F11283   1.658   4.523   9.583  0.4427  1.0686 -0.3962
  109OSM    H6G11284   1.559   4.595   9.457 -1.1616 -0.8100 -1.3387
  109OSM    C7F11285   1.548   4.380   9.448  0.4211 -0.2731 -0.3227
  109OSM    H7F11286   1.441   4.359   9.426  0.4486 -0.1052 -0.6306
  109OSM    H7G11287   1.576   4.299   9.518 -0.7189 -0.2891  0.1190
  109OSM    C8F11288   1.639   4.378   9.324 -0.0294  0.2917  0.5174
  109OSM    H8F11289   1.596   4.449   9.251 -1.4383 -0.5610  0.4942
  109OSM    H8G11290   1.628   4.272   9.292  1.5930 -0.3797  2.0922
  109OSM    C9F11291   1.781   4.415   9.360  0.1976  0.1171 -0.3614
  109OSM    H9F11292   1.826   4.379   9.453  1.6515  0.3598 -0.9542
  109OSM   C10F11293   1.853   4.492   9.279 -0.0064 -0.0493 -0.1091
  109OSM   H10F11294   1.960   4.507   9.299 -0.2000  1.2884 -0.0466
  109OSM   C11F11295   1.822   4.544   9.142  0.1322  0.6800  0.1382
  109OSM   H11F11296   1.897   4.625   9.127 -0.8355  1.5182 -0.1687
  109OSM   H11G11297   1.718   4.582   9.133  0.2517  0.5923 -1.7668
  109OSM   C12F11298   1.837   4.436   9.023 -0.0905  0.0223  0.0859
  109OSM   H12F11299   1.803   4.482   8.928 -0.1540  1.8307  0.9707
  109OSM   H12G11300   1.780   4.343   9.044  1.8023 -1.2136 -0.0482
  109OSM   C13F11301   1.985   4.404   8.999 -0.4351  0.2403  0.0941
  109OSM   H13F11302   2.039   4.356   9.083 -2.1899 -0.5795  0.7904
  109OSM   H13G11303   2.023   4.507   8.984 -0.3405  0.4869  1.8599
  109OSM   C14F11304   2.009   4.326   8.867 -0.0079 -0.4039 -0.4277
  109OSM   H14F11305   2.118   4.332   8.847 -0.1242  1.6678 -0.5697
  109OSM   H14G11306   1.959   4.376   8.781 -0.3213  0.8971  0.5052
  109OSM   C15F11307   1.973   4.176   8.882  0.4942 -0.6505 -0.5913
  109OSM   H15F11308   1.862   4.169   8.886  0.5825 -2.2055 -0.5679
  109OSM   H15G11309   2.005   4.137   8.981 -2.5042 -0.2157  0.5945
  109OSM   C16F11310   2.016   4.089   8.763  0.1488  0.0699  0.0740
  109OSM   H16F11311   2.097   4.152   8.720  0.1877  0.2313  0.3813
  109OSM   H16G11312   1.932   4.080   8.691 -0.2019  0.4795  0.4242
  109OSM   C17F11313   2.071   3.953   8.798  0.5855 -0.5800 -0.4560
  109OSM   H17F11314   1.995   3.905   8.863  0.6024 -0.5116 -0.3850
  109OSM   H17G11315   2.169   3.965   8.849 -0.1099  0.7783  0.5835
  109OSM   C18F11316   2.094   3.870   8.671 -0.6709 -0.3447  0.5601
  109OSM   H18F11317   2.147   3.775   8.695  0.1668 -0.2532 -0.8783
  109OSM   H18G11318   2.165   3.926   8.607 -1.3110  0.4972  0.5688
  109OSM   H18H11319   1.999   3.862   8.614 -1.0029  1.1648  0.8722
  110OSM      N11320   2.662   3.308  11.132  0.5430 -0.6693 -0.2239
  110OSM    C1511321   2.585   3.180  11.130 -0.4329  0.8390 -0.1099
  110OSM   H15A11322   2.659   3.105  11.104  0.2985  1.5978 -0.2068
  110OSM   H15B11323   2.513   3.178  11.049 -1.1117 -0.0330  0.5024
  110OSM   H15C11324   2.541   3.146  11.222 -1.5519  4.5661  0.8091
  110OSM    C1411325   2.575   3.416  11.195 -0.2119 -0.2934 -0.4257
  110OSM   H14A11326   2.521   3.363  11.272 -0.1748  0.0904 -0.1366
  110OSM   H14B11327   2.521   3.468  11.118  0.7062  0.5732 -0.4953
  110OSM   H14C11328   2.636   3.485  11.251 -0.7996  0.0116 -0.1588
  110OSM    C1311329   2.772   3.287  11.226  1.0426  0.1335  0.2487
  110OSM   H13A11330   2.816   3.383  11.252  1.5825 -0.6659  2.3949
  110OSM   H13B11331   2.839   3.212  11.187 -0.0129 -1.0985  0.7704
  110OSM   H13C11332   2.737   3.246  11.320  1.0372 -1.3569 -0.3874
  110OSM    C1211333   2.711   3.357  10.988  0.2967 -0.1809 -0.3163
  110OSM   H12A11334   2.792   3.297  10.949  1.4786  2.0007 -1.3611
  110OSM   H12B11335   2.755   3.454  11.006  0.6502 -0.1339 -1.3632
  110OSM    C1111336   2.617   3.391  10.874 -0.4425 -0.0740  0.0442
  110OSM   H11A11337   2.563   3.301  10.836 -0.1569 -0.4645  0.5541
  110OSM   H11B11338   2.680   3.437  10.795 -0.9561 -1.7943 -1.3931
  110OSM      P11339   2.563   3.634  10.929  0.4026 -0.0505  0.4608
  110OSM    O1311340   2.464   3.714  11.006  0.6152 -0.8068 -0.3196
  110OSM    O1411341   2.704   3.639  10.977 -0.1306 -0.4149 -0.0662
  110OSM    O1111342   2.564   3.684  10.777 -0.3354 -0.5031 -0.1159
  110OSM    O1211343   2.513   3.478  10.916  0.3451  0.0330 -0.1322
  110OSM    C1S11344   2.430   3.678  10.717 -0.3664  0.3081  0.2282
  110OSM    H1S11345   2.379   3.777  10.724 -0.1427  0.4552 -0.1618
  110OSM    H1T11346   2.364   3.596  10.751 -0.9161  1.5625  2.2642
  110OSM     NF11347   2.307   3.693  10.497 -0.4704 -0.0883  0.0136
  110OSM    HNF11348   2.267   3.610  10.458 -1.2961  1.6465 -3.0244
  110OSM    C2S11349   2.433   3.665  10.560  0.0047 -0.4351  0.6611
  110OSM    H2S11350   2.496   3.747  10.520 -0.7063  0.2020  0.8478
  110OSM    C3S11351   2.483   3.526  10.510 -0.6314  0.6120 -0.1657
  110OSM    H3S11352   2.414   3.446  10.545 -3.0508  1.9510 -1.6638
  110OSM     O311353   2.617   3.515  10.538 -0.1948 -0.0575 -0.4899
  110OSM    HO311354   2.631   3.574  10.613 -1.5459  0.1296 -0.3888
  110OSM    C4S11355   2.485   3.521  10.361 -0.0532  0.2891  0.0428
  110OSM    H4S11356   2.564   3.575  10.306 -0.2796  0.1819 -0.3893
  110OSM    C5S11357   2.388   3.457  10.286  0.0796  0.5176 -0.1956
  110OSM    H5S11358   2.310   3.397  10.336 -1.5902  3.3500  0.7554
  110OSM    C6S11359   2.387   3.454  10.134  0.1370 -0.6778  0.2350
  110OSM    H6S11360   2.371   3.349  10.102 -2.5384 -0.5955  1.1263
  110OSM    H6T11361   2.479   3.485  10.080  0.5224  0.6691  1.6164
  110OSM    C7S11362   2.265   3.527  10.066  0.3081  0.1729  0.6852
  110OSM    H7S11363   2.272   3.636  10.089 -0.1236  0.1290  1.0270
  110OSM    H7T11364   2.172   3.499  10.119  0.7399 -0.6376  1.0137
  110OSM    C8S11365   2.262   3.500   9.919  0.1979 -0.5080 -0.0454
  110OSM    H8S11366   2.155   3.510   9.891  0.2796  0.4226 -0.0442
  110OSM    H8T11367   2.266   3.389   9.909 -2.5118 -0.6204 -0.4646
  110OSM    C9S11368   2.355   3.576   9.830  0.6014 -0.9317  0.3181
  110OSM    H9S11369   2.462   3.559   9.857  0.4421 -1.5420  0.5737
  110OSM    H9T11370   2.338   3.683   9.856  1.2452 -0.7086 -0.1757
  110OSM   C10S11371   2.332   3.553   9.683  0.0292 -0.0169  0.0720
  110OSM   H10S11372   2.412   3.601   9.623 -1.2316  0.4824 -1.2411
  110OSM   H10T11373   2.231   3.594   9.662 -0.9878 -2.7431 -0.4847
  110OSM   C11S11374   2.339   3.405   9.636  0.4949  0.3142 -0.3438
  110OSM   H11S11375   2.252   3.356   9.684 -0.2701  1.2344 -0.7667
  110OSM   H11T11376   2.437   3.368   9.674  1.0523  3.4395  1.4709
  110OSM   C12S11377   2.336   3.397   9.488 -0.2772 -0.3004  0.1938
  110OSM   H12S11378   2.426   3.444   9.442 -0.4442  1.1046  1.2483
  110OSM   H12T11379   2.255   3.467   9.458  0.1999  0.6607  1.1165
  110OSM   C13S11380   2.315   3.256   9.444  0.8181 -0.4492  0.4062
  110OSM   H13S11381   2.218   3.222   9.487  0.5785 -3.0968 -2.0956
  110OSM   H13T11382   2.381   3.176   9.484 -0.5294 -2.2935 -1.0004
  110OSM   C14S11383   2.288   3.248   9.288 -0.3108  0.0039  0.0196
  110OSM   H14S11384   2.219   3.331   9.264 -0.9721 -0.6927 -0.5192
  110OSM   H14T11385   2.243   3.150   9.259 -0.3462  0.1505 -0.4198
  110OSM   C15S11386   2.412   3.250   9.205  0.9430  0.5609  0.0910
  110OSM   H15S11387   2.479   3.167   9.236  2.4691  1.9953  0.6863
  110OSM   H15T11388   2.463   3.348   9.220 -2.0791  1.9230  2.0556
  110OSM   C16S11389   2.379   3.231   9.054 -0.0540  0.2987  0.6213
  110OSM   H16S11390   2.325   3.321   9.018 -0.1698 -0.5800 -1.4497
  110OSM   H16T11391   2.313   3.144   9.034  1.4788 -0.5049 -1.1267
  110OSM   C17S11392   2.498   3.199   8.963 -0.0863 -0.1712 -0.2388
  110OSM   H17S11393   2.586   3.253   9.004 -0.0287 -0.1704 -0.3653
  110OSM   H17T11394   2.472   3.252   8.869  2.0799  2.0892  0.3707
  110OSM   C18S11395   2.535   3.050   8.937  0.4969  0.1446  0.9431
  110OSM   H18S11396   2.528   2.993   9.032 -1.8876  0.0851  0.7656
  110OSM   H18T11397   2.641   3.049   8.903 -0.1035  1.0153 -1.0088
  110OSM   H18U11398   2.462   2.999   8.870 -0.9536  1.4806  1.4785
  110OSM    C1F11399   2.239   3.807  10.504  1.6275  0.3829 -0.3262
  110OSM     OF11400   2.289   3.915  10.526 -0.1892 -0.3323  0.1924
  110OSM    C2F11401   2.086   3.794  10.473  0.1257 -0.2568  0.3308
  110OSM    H2F11402   2.023   3.792  10.564 -2.7995 -0.8193 -1.6479
  110OSM    H2G11403   2.079   3.699  10.417 -1.2920  1.9379 -3.3826
  110OSM    C3F11404   2.039   3.917  10.393  0.6789  0.0565  0.0975
  110OSM    H3F11405   2.048   4.012  10.450  1.9079 -0.9430  1.6013
  110OSM    H3G11406   1.929   3.905  10.379  0.9279 -1.5924 -0.5252
  110OSM    C4F11407   2.094   3.935  10.250  0.1409  0.0869 -0.1216
  110OSM    H4F11408   2.057   3.855  10.183  0.8351 -0.0324 -0.3682
  110OSM    H4G11409   2.205   3.940  10.258  0.1488 -0.2963  0.0057
  110OSM    C5F11410   2.053   4.076  10.190  1.0440  0.6241  0.5387
  110OSM    H5F11411   2.109   4.159  10.237  0.4854  1.4752 -0.2720
  110OSM    H5G11412   1.945   4.100  10.198  0.5598 -0.7547 -1.4280
  110OSM    C6F11413   2.096   4.087  10.050 -0.8531 -0.5482  0.6658
  110OSM    H6F11414   2.196   4.039  10.039 -0.7178  0.1713 -1.5854
  110OSM    H6G11415   2.096   4.192  10.014  0.3089 -1.1764 -1.2263
  110OSM    C7F11416   1.995   4.016   9.947 -0.1809  0.7097  0.4042
  110OSM    H7F11417   1.902   4.071   9.921 -1.2030 -1.0389  0.3167
  110OSM    H7G11418   1.977   3.919   9.997  0.5886 -0.0587 -0.7778
  110OSM    C8F11419   2.063   3.995   9.804 -0.1426  0.1987 -0.0907
  110OSM    H8F11420   2.172   3.981   9.820 -0.5087  0.7592  3.2730
  110OSM    H8G11421   2.048   4.087   9.744 -1.9109 -0.7862 -1.1870
  110OSM    C9F11422   2.006   3.875   9.732  0.8719 -0.2831 -0.0031
  110OSM    H9F11423   1.955   3.802   9.797 -0.4663 -1.1149 -1.9551
  110OSM   C10F11424   1.999   3.864   9.603  0.6087 -0.7731 -0.1142
  110OSM   H10F11425   1.951   3.776   9.558  1.2938 -1.0792 -0.2622
  110OSM   C11F11426   2.044   3.956   9.497 -0.3250  0.0253  1.0422
  110OSM   H11F11427   2.025   4.055   9.543 -1.7694 -0.5888  1.8183
  110OSM   H11G11428   1.966   3.956   9.417 -0.7843  1.0458  1.4929
  110OSM   C12F11429   2.179   3.926   9.426  0.2508 -0.1995  0.6096
  110OSM   H12F11430   2.170   3.827   9.376  0.7998 -1.1201  2.3004
  110OSM   H12G11431   2.257   3.915   9.505 -0.6312  0.1682  1.5483
  110OSM   C13F11432   2.223   4.041   9.328  0.1749 -0.2582 -1.1456
  110OSM   H13F11433   2.242   4.130   9.391 -1.1799  0.8195 -2.2201
  110OSM   H13G11434   2.137   4.062   9.260 -0.9620  1.2812  0.7310
  110OSM   C14F11435   2.338   4.003   9.232 -0.0086  0.7053 -0.5955
  110OSM   H14F11436   2.414   3.940   9.283 -0.4668 -0.3518 -1.1993
  110OSM   H14G11437   2.384   4.097   9.194 -0.4700  2.2493  2.5468
  110OSM   C15F11438   2.285   3.933   9.097 -0.3716 -0.0917 -0.1236
  110OSM   H15F11439   2.334   3.986   9.013  2.8260 -1.5910  0.6951
  110OSM   H15G11440   2.177   3.955   9.085 -0.0652  0.3905 -2.1788
  110OSM   C16F11441   2.300   3.777   9.087  0.0285 -0.5970 -0.8760
  110OSM   H16F11442   2.239   3.737   9.003 -0.6383 -0.0204 -0.6664
  110OSM   H16G11443   2.260   3.740   9.184 -0.5576 -0.2726 -0.9900
  110OSM   C17F11444   2.453   3.740   9.069  0.6441  0.6277  0.3539
  110OSM   H17F11445   2.518   3.810   9.127 -0.3090 -0.4087  2.7359
  110OSM   H17G11446   2.482   3.762   8.964  1.0671  2.1211  0.7734
  110OSM   C18F11447   2.486   3.592   9.097 -0.3663  0.2072  0.4582
  110OSM   H18F11448   2.453   3.515   9.023  1.9832  0.9117 -1.3784
  110OSM   H18G11449   2.447   3.564   9.197 -2.6601  1.5486 -0.0198
  110OSM   H18H11450   2.596   3.579   9.099 -0.5449 -1.2119  2.8136
  111OSM      N11451   2.768   0.302  11.027  0.0136  0.1568 -0.2491
  111OSM    C1511452   2.756   0.160  10.978 -0.0179 -0.2513  0.0058
  111OSM   H15A11453   2.762   0.077  11.047 -0.4496 -0.0919  0.2369
  111OSM   H15B11454   2.838   0.143  10.909 -0.3951 -1.9702 -0.0615
  111OSM   H15C11455   2.660   0.159  10.929  0.2933 -0.3492 -0.6092
  111OSM    C1411456   2.649   0.322  11.115  0.2225 -0.4637 -0.6770
  111OSM   H14A11457   2.647   0.417  11.166 -0.5807 -0.2981 -0.9982
  111OSM   H14B11458   2.656   0.247  11.192  1.0956  0.2293 -0.0726
  111OSM   H14C11459   2.560   0.291  11.062  0.3005 -0.4089 -0.8428
  111OSM    C1311460   2.898   0.329  11.107  0.2255 -0.1730  0.1844
  111OSM   H13A11461   2.904   0.261  11.191  1.3851  0.2663  0.4637
  111OSM   H13B11462   2.906   0.434  11.130 -0.0145  0.1391 -1.1549
  111OSM   H13C11463   2.982   0.293  11.049  0.9954  0.5130  0.8693
  111OSM    C1211464   2.766   0.394  10.911  0.0721 -0.4264  0.6622
  111OSM   H12A11465   2.735   0.490  10.948 -0.2912  0.3138 -1.4474
  111OSM   H12B11466   2.675   0.363  10.861  0.1754  0.8132 -0.3355
  111OSM    C1111467   2.883   0.406  10.811 -0.2263  0.1422 -0.2196
  111OSM   H11A11468   2.856   0.489  10.742 -0.0217  0.5515  0.1983
  111OSM   H11B11469   2.888   0.306  10.762  2.2661 -0.2327  0.7634
  111OSM      P11470   3.077   0.567  10.886 -0.1535  0.6654 -0.1122
  111OSM    O1311471   2.999   0.673  10.951 -0.9595  0.3972  0.3389
  111OSM    O1411472   3.215   0.548  10.937 -0.2371 -0.2128 -0.2810
  111OSM    O1111473   3.098   0.577  10.733  0.0364 -0.4176  0.7214
  111OSM    O1211474   3.004   0.426  10.885  0.2056 -0.2383  0.5554
  111OSM    C1S11475   3.174   0.488  10.654  0.0707 -0.5260  0.7492
  111OSM    H1S11476   3.140   0.383  10.668 -1.1877 -0.2905 -0.4295
  111OSM    H1T11477   3.281   0.486  10.686 -0.5052 -0.8265  2.6974
  111OSM     NF11478   3.242   0.430  10.432  0.2379 -0.5899  0.1114
  111OSM    HNF11479   3.332   0.467  10.407  0.7220 -1.0610  1.1370
  111OSM    C2S11480   3.170   0.528  10.504  0.2952 -0.1095 -0.3865
  111OSM    H2S11481   3.064   0.525  10.469 -0.5189 -0.4080  2.0542
  111OSM    C3S11482   3.224   0.672  10.479  0.2302  0.0629  0.2942
  111OSM    H3S11483   3.329   0.668  10.514  1.2961  0.7778 -2.7530
  111OSM     O311484   3.162   0.773  10.558  0.1254 -0.5625  0.4175
  111OSM    HO311485   3.132   0.733  10.639 -0.0245  2.4791  1.9073
  111OSM    C4S11486   3.219   0.706  10.333 -0.4142  1.3390 -0.3240
  111OSM    H4S11487   3.312   0.674  10.283 -0.8916 -0.0243 -0.3615
  111OSM    C5S11488   3.116   0.749  10.258 -0.7327  0.6166 -0.7380
  111OSM    H5S11489   3.011   0.752  10.289 -0.1360 -0.2817  1.5112
  111OSM    C6S11490   3.129   0.774  10.112 -0.1811 -0.0441 -0.6617
  111OSM    H6S11491   3.236   0.779  10.081 -0.0590 -1.0835 -0.4056
  111OSM    H6T11492   3.072   0.861  10.072 -0.1734  0.5462  0.5939
  111OSM    C7S11493   3.071   0.652  10.030  0.2497 -0.4520  0.3346
  111OSM    H7S11494   2.962   0.665  10.015 -0.0704 -1.2027  1.8955
  111OSM    H7T11495   3.073   0.570  10.105  4.1260  0.1700  1.0331
  111OSM    C8S11496   3.123   0.622   9.889  0.0600 -0.1836 -0.4683
  111OSM    H8S11497   3.058   0.538   9.858 -0.1235 -0.3848  0.4488
  111OSM    H8T11498   3.229   0.589   9.888  0.6524  1.5513  1.4022
  111OSM    C9S11499   3.105   0.727   9.787 -0.1530  0.1680 -0.1271
  111OSM    H9S11500   3.164   0.814   9.824  2.5273 -2.8965  3.2773
  111OSM    H9T11501   2.997   0.746   9.772 -1.0551 -3.6755  0.8671
  111OSM   C10S11502   3.163   0.690   9.653 -0.1038  0.5916  0.3102
  111OSM   H10S11503   3.112   0.596   9.623 -0.0234  1.0102 -1.1855
  111OSM   H10T11504   3.273   0.684   9.668 -0.3958 -0.4075  2.3349
  111OSM   C11S11505   3.134   0.802   9.544  0.1213  0.2704  0.4404
  111OSM   H11S11506   3.187   0.894   9.575  0.4614 -0.1404  1.0990
  111OSM   H11T11507   3.025   0.824   9.545  0.5971  3.9308 -5.5447
  111OSM   C12S11508   3.195   0.746   9.410 -0.5746 -0.2277  0.5811
  111OSM   H12S11509   3.147   0.648   9.389  1.4955 -1.3826  1.1188
  111OSM   H12T11510   3.304   0.727   9.421  0.2917  2.7617 -2.1088
  111OSM   C13S11511   3.177   0.855   9.302 -0.2884  0.2127  0.3742
  111OSM   H13S11512   3.228   0.945   9.341 -1.8323  1.6491 -0.8437
  111OSM   H13T11513   3.067   0.866   9.292 -0.6030  0.1306  3.4531
  111OSM   C14S11514   3.248   0.810   9.174 -0.1960  0.1694  0.3466
  111OSM   H14S11515   3.199   0.712   9.154 -1.0741  0.8814 -0.9897
  111OSM   H14T11516   3.353   0.782   9.199 -0.3167 -0.0579  0.6173
  111OSM   C15S11517   3.239   0.907   9.061  0.0488 -0.3997  0.8691
  111OSM   H15S11518   3.287   1.001   9.095  1.9247 -1.7860  2.1383
  111OSM   H15T11519   3.131   0.907   9.035 -0.1558 -0.3378  1.7083
  111OSM   C16S11520   3.326   0.867   8.938  0.2856  0.0836  0.4888
  111OSM   H16S11521   3.299   0.767   8.898 -0.1164 -0.4142  2.0000
  111OSM   H16T11522   3.430   0.862   8.976  1.1500  1.7536 -1.5597
  111OSM   C17S11523   3.330   0.974   8.828 -0.1142 -0.4170 -0.4697
  111OSM   H17S11524   3.360   1.073   8.868 -1.9373 -0.6491  1.5619
  111OSM   H17T11525   3.233   0.985   8.773 -0.9952 -0.3658  1.0761
  111OSM   C18S11526   3.439   0.928   8.728  0.3369  0.2898  0.2982
  111OSM   H18S11527   3.420   0.828   8.685  0.8678  0.4360 -0.2776
  111OSM   H18T11528   3.543   0.941   8.766  0.8796  0.9632 -1.3611
  111OSM   H18U11529   3.427   0.996   8.641  2.5907  1.5172  0.8873
  111OSM    C1F11530   3.196   0.308  10.405  0.5786  0.1850 -0.9562
  111OSM     OF11531   3.091   0.266  10.454  0.4983 -0.5087  0.3480
  111OSM    C2F11532   3.280   0.234  10.299  0.3086 -0.1798 -0.4677
  111OSM    H2F11533   3.350   0.160  10.343 -1.4399 -0.4490  1.9541
  111OSM    H2G11534   3.339   0.305  10.238 -1.3238  2.3330  0.7812
  111OSM    C3F11535   3.186   0.149  10.204  0.5970  0.5177 -0.5756
  111OSM    H3F11536   3.114   0.082  10.254  0.9439 -0.4487 -1.3520
  111OSM    H3G11537   3.264   0.083  10.161 -0.5077 -1.4749  0.4350
  111OSM    C4F11538   3.112   0.232  10.099 -0.7654 -0.6175  0.0063
  111OSM    H4F11539   3.171   0.315  10.056  0.0573 -0.4594  1.4351
  111OSM    H4G11540   3.030   0.285  10.153 -1.0529 -0.6505 -0.3883
  111OSM    C5F11541   3.038   0.136   9.994  0.4447  0.1834 -0.1886
  111OSM    H5F11542   2.980   0.052  10.038 -1.7331  1.2055 -1.0348
  111OSM    H5G11543   3.110   0.085   9.926 -1.1282  0.0500 -1.8162
  111OSM    C6F11544   2.946   0.214   9.909 -0.1991 -0.6114 -0.3369
  111OSM    H6F11545   3.013   0.284   9.854  1.3365 -2.8652 -1.3937
  111OSM    H6G11546   2.882   0.275   9.976 -0.0360  0.9310 -1.5273
  111OSM    C7F11547   2.871   0.124   9.801  0.0462  0.3360 -0.2197
  111OSM    H7F11548   2.814   0.052   9.862  2.0729  1.3415  2.9600
  111OSM    H7G11549   2.941   0.063   9.740 -1.0066 -1.4610  0.3335
  111OSM    C8F11550   2.790   0.206   9.697 -1.0414  0.1872  0.2265
  111OSM    H8F11551   2.714   0.268   9.750  1.3120  2.6492  0.7958
  111OSM    H8G11552   2.725   0.139   9.637 -1.4124 -0.8491  1.7395
  111OSM    C9F11553   2.863   0.296   9.607 -0.3098 -0.1216 -0.3046
  111OSM    H9F11554   2.865   0.402   9.637 -1.9258  0.2868 -1.5825
  111OSM   C10F11555   2.923   0.259   9.493  0.7911  0.5492  0.7261
  111OSM   H10F11556   2.994   0.326   9.441  0.8173 -0.4831 -0.5997
  111OSM   C11F11557   2.931   0.122   9.436  0.4960  0.3856  0.4736
  111OSM   H11F11558   2.888   0.040   9.497  3.4248 -1.4210  0.1901
  111OSM   H11G11559   3.039   0.103   9.420  0.6024  0.6724  0.8258
  111OSM   C12F11560   2.883   0.129   9.289  0.3728  0.0914 -0.2692
  111OSM   H12F11561   2.935   0.053   9.227 -1.6118 -0.0668 -1.7684
  111OSM   H12G11562   2.916   0.231   9.259  0.6495  0.3812  0.9704
  111OSM   C13F11563   2.733   0.119   9.262  0.2973  0.0482  0.0265
  111OSM   H13F11564   2.672   0.192   9.319  0.2226 -2.3881  3.1963
  111OSM   H13G11565   2.694   0.019   9.292 -0.2360  0.6050  1.1992
  111OSM   C14F11566   2.706   0.153   9.115 -0.4713 -0.0221  0.2111
  111OSM   H14F11567   2.773   0.099   9.046  0.1116  2.2209 -1.0467
  111OSM   H14G11568   2.734   0.261   9.111 -0.9847  0.1501  1.0056
  111OSM   C15F11569   2.560   0.151   9.064 -0.4446  0.4465  0.1010
  111OSM   H15F11570   2.482   0.189   9.132 -1.6363  0.2765 -1.1543
  111OSM   H15G11571   2.530   0.046   9.040 -0.0628 -0.0818  1.8481
  111OSM   C16F11572   2.532   0.241   8.939 -0.1041  0.4073 -0.5799
  111OSM   H16F11573   2.593   0.215   8.850 -1.3873 -0.2771 -1.2642
  111OSM   H16G11574   2.552   0.346   8.970 -1.8509 -0.0404  2.2764
  111OSM   C17F11575   2.383   0.232   8.902  1.2406  0.1986  0.1136
  111OSM   H17F11576   2.362   0.308   8.824  2.2252  1.5130  1.1073
  111OSM   H17G11577   2.324   0.256   8.993 -1.7016 -3.4720 -0.7083
  111OSM   C18F11578   2.343   0.088   8.842 -0.0346  0.1078 -0.3960
  111OSM   H18F11579   2.330   0.015   8.924 -1.5402  0.5781 -0.2129
  111OSM   H18G11580   2.416   0.062   8.762 -0.0959 -0.0240 -0.4083
  111OSM   H18H11581   2.238   0.098   8.809  0.0318  2.1875 -0.0118
  112OSM      N11582   4.054   4.397  10.900  0.2647  0.3160  0.0516
  112OSM    C1511583   4.202   4.384  10.878  0.4220  0.1177 -0.0532
  112OSM   H15A11584   4.241   4.480  10.847 -0.5808  0.0674 -1.5144
  112OSM   H15B11585   4.213   4.296  10.816 -0.5181  0.1041 -0.2159
  112OSM   H15C11586   4.242   4.374  10.978 -1.6221  2.1631  1.0290
  112OSM    C1411587   3.998   4.268  10.959 -0.3624 -0.2389 -0.5856
  112OSM   H14A11588   3.906   4.293  11.009  0.6900 -0.0812  1.3000
  112OSM   H14B11589   4.075   4.223  11.021 -1.0082 -0.4045  0.0992
  112OSM   H14C11590   3.974   4.196  10.881  0.1004 -2.0962  0.9442
  112OSM    C1311591   4.023   4.509  10.991 -0.0233 -0.0403  0.1039
  112OSM   H13A11592   4.056   4.494  11.093  1.5589 -2.9226 -0.7716
  112OSM   H13B11593   3.917   4.530  10.994 -0.0218 -0.0466  0.1961
  112OSM   H13C11594   4.051   4.605  10.951  1.4818 -0.5799 -0.1841
  112OSM    C1211595   3.973   4.421  10.778  0.4310  0.4981  1.0844
  112OSM   H12A11596   3.978   4.332  10.717 -2.2723  0.3364  1.0529
  112OSM   H12B11597   4.008   4.507  10.722 -0.2997  1.1551  1.6343
  112OSM    C1111598   3.821   4.444  10.786  0.8904 -0.2084  0.2803
  112OSM   H11A11599   3.766   4.350  10.810 -1.1728  1.1292  0.9844
  112OSM   H11B11600   3.786   4.474  10.685 -1.4223  0.4469  1.2280
  112OSM      P11601   3.623   4.561  10.919 -0.3943  0.0628  0.1378
  112OSM    O1311602   3.585   4.455  11.013  0.8242  0.4621  0.1511
  112OSM    O1411603   3.601   4.704  10.958  0.5807 -0.2279  0.1732
  112OSM    O1111604   3.549   4.546  10.781  0.1885  0.5537 -0.5516
  112OSM    O1211605   3.771   4.543  10.874  0.1556  0.0864  0.9919
  112OSM    C1S11606   3.565   4.637  10.674 -0.4322 -0.3881 -0.1069
  112OSM    H1S11607   3.669   4.650  10.636 -1.4360  0.0507 -2.7658
  112OSM    H1T11608   3.537   4.741  10.701  2.1752  0.6707 -1.2847
  112OSM     NF11609   3.527   4.671  10.429 -0.3092 -0.8090 -0.0686
  112OSM    HNF11610   3.479   4.755  10.408 -1.9836 -1.8802 -0.5819
  112OSM    C2S11611   3.487   4.590  10.547  0.2904  0.8371  0.4181
  112OSM    H2S11612   3.515   4.483  10.545  1.1033  0.9650  2.7740
  112OSM    C3S11613   3.333   4.602  10.580  0.3379  0.6627 -0.9196
  112OSM    H3S11614   3.312   4.711  10.592  0.1984  0.6900 -1.4037
  112OSM     O311615   3.297   4.551  10.709 -0.4677  0.6908  0.5158
  112OSM    HO311616   3.384   4.532  10.744 -0.4220  2.1418  1.2203
  112OSM    C4S11617   3.248   4.551  10.467  0.1400  0.0674  0.2248
  112OSM    H4S11618   3.264   4.600  10.370 -1.9576 -4.2531 -2.4503
  112OSM    C5S11619   3.169   4.443  10.468  0.0800  0.0295 -0.5034
  112OSM    H5S11620   3.175   4.377  10.555 -1.7311 -0.5817 -0.8040
  112OSM    C6S11621   3.094   4.388  10.353  0.8342  0.2004 -0.2067
  112OSM    H6S11622   2.984   4.388  10.369  0.9808  3.2007  1.2024
  112OSM    H6T11623   3.134   4.285  10.340  0.5318 -0.1377  1.4519
  112OSM    C7S11624   3.092   4.459  10.220  0.5260  0.4677 -0.0489
  112OSM    H7S11625   3.195   4.458  10.180  0.6006  1.5116  0.1099
  112OSM    H7T11626   3.058   4.563  10.240  0.7115  0.6857 -0.8616
  112OSM    C8S11627   2.992   4.386  10.118 -0.1976  0.0635 -0.5711
  112OSM    H8S11628   2.891   4.395  10.164 -1.0511 -0.9439 -2.1740
  112OSM    H8T11629   3.022   4.279  10.121  1.5802  0.5575 -0.3224
  112OSM    C9S11630   3.000   4.436   9.978  0.0775  0.0376  0.9055
  112OSM    H9S11631   3.106   4.431   9.944 -0.5551 -0.8397 -0.9544
  112OSM    H9T11632   2.976   4.544   9.989 -1.9365 -0.5023  1.9235
  112OSM   C10S11633   2.906   4.364   9.870 -0.0360  0.2242  0.2856
  112OSM   H10S11634   2.803   4.400   9.892 -0.3009 -0.8366  0.8023
  112OSM   H10T11635   2.906   4.255   9.889  1.3323  0.4143  1.4390
  112OSM   C11S11636   2.959   4.386   9.728  1.4767  0.3203  0.5685
  112OSM   H11S11637   3.057   4.333   9.721  1.5707  0.8308 -2.3090
  112OSM   H11T11638   2.964   4.494   9.705 -2.9680  0.3848 -0.5568
  112OSM   C12S11639   2.870   4.322   9.617 -0.6205 -0.0190  0.2061
  112OSM   H12S11640   2.778   4.385   9.617  0.2242  1.2352  0.8707
  112OSM   H12T11641   2.835   4.227   9.663  0.0519 -0.4571 -0.1819
  112OSM   C13S11642   2.942   4.323   9.484 -0.5620 -0.3397 -0.3941
  112OSM   H13S11643   3.050   4.306   9.504 -0.4400  0.6865 -0.1602
  112OSM   H13T11644   2.927   4.421   9.434 -0.0299  1.2799  2.5257
  112OSM   C14S11645   2.874   4.213   9.398  0.5125  0.0144 -0.3995
  112OSM   H14S11646   2.765   4.231   9.406  0.0980 -1.4725 -2.4579
  112OSM   H14T11647   2.902   4.113   9.439  1.9965  0.8385  0.6749
  112OSM   C15S11648   2.936   4.234   9.263  0.4217  0.1886 -0.4682
  112OSM   H15S11649   3.047   4.235   9.271  0.6397  0.9020 -3.2072
  112OSM   H15T11650   2.886   4.320   9.215 -1.8840 -0.5925  0.4591
  112OSM   C16S11651   2.916   4.110   9.173 -0.2935 -0.0388 -0.0701
  112OSM   H16S11652   2.948   4.014   9.219 -1.2807 -0.2400  0.2036
  112OSM   H16T11653   2.979   4.129   9.083 -2.9336  1.1148 -1.7286
  112OSM   C17S11654   2.766   4.087   9.142 -0.6918 -0.0172  0.0951
  112OSM   H17S11655   2.716   4.185   9.124 -0.3951 -0.2663 -2.2564
  112OSM   H17T11656   2.718   4.041   9.231  1.0695  0.2474  1.2064
  112OSM   C18S11657   2.750   3.980   9.031 -0.2212  0.4701  0.1522
  112OSM   H18S11658   2.827   4.004   8.954  0.2259  0.7389  0.6752
  112OSM   H18T11659   2.649   3.984   8.985  0.2029  1.6804 -0.7173
  112OSM   H18U11660   2.764   3.876   9.066 -1.6913 -0.7129 -2.6570
  112OSM    C1F11661   3.647   4.653  10.366 -0.0341 -0.5732  0.3773
  112OSM     OF11662   3.726   4.568  10.401  0.1574  0.1721  0.5342
  112OSM    C2F11663   3.676   4.749  10.258 -0.2005  0.3104 -0.3379
  112OSM    H2F11664   3.770   4.805  10.277  0.8762 -1.6961  0.3215
  112OSM    H2G11665   3.588   4.816  10.248 -1.5359 -1.1455  1.5006
  112OSM    C3F11666   3.689   4.674  10.114  0.6030 -0.3385 -0.6275
  112OSM    H3F11667   3.595   4.626  10.079  0.3146  0.4452 -0.9240
  112OSM    H3G11668   3.762   4.593  10.135  0.1146 -0.8535 -0.8935
  112OSM    C4F11669   3.751   4.760   9.996 -0.5664  0.1267 -0.0342
  112OSM    H4F11670   3.844   4.807  10.035 -0.6598  1.2942 -1.1862
  112OSM    H4G11671   3.684   4.844   9.969 -0.5937  0.1237  0.0212
  112OSM    C5F11672   3.777   4.676   9.875 -0.4365  0.4463  0.1845
  112OSM    H5F11673   3.679   4.629   9.853  1.1048 -3.5597  1.3177
  112OSM    H5G11674   3.851   4.596   9.899 -2.2412 -1.4083 -0.2768
  112OSM    C6F11675   3.804   4.759   9.758 -0.5383  0.0587 -0.1244
  112OSM    H6F11676   3.887   4.827   9.786 -0.5181 -0.0987  0.1904
  112OSM    H6G11677   3.711   4.810   9.722 -1.1438 -0.1866  1.0830
  112OSM    C7F11678   3.859   4.681   9.634  0.1827  0.0140 -0.1452
  112OSM    H7F11679   3.784   4.614   9.587  0.0365 -0.9046  1.3823
  112OSM    H7G11680   3.946   4.626   9.675  0.1166 -0.7787 -1.0570
  112OSM    C8F11681   3.887   4.769   9.509  0.1490 -0.3874 -0.2265
  112OSM    H8F11682   3.942   4.704   9.438  2.7817 -0.0614  1.4354
  112OSM    H8G11683   3.956   4.848   9.546 -0.6615 -0.1482  0.7977
  112OSM    C9F11684   3.762   4.833   9.444  0.1374 -0.1691 -0.3378
  112OSM    H9F11685   3.699   4.892   9.513  0.1727  0.1112 -0.5444
  112OSM   C10F11686   3.708   4.816   9.324 -0.4859  0.2222  1.0397
  112OSM   H10F11687   3.634   4.891   9.292 -0.3885 -0.0370  0.2004
  112OSM   C11F11688   3.766   4.744   9.202 -0.6213  0.1330  0.1511
  112OSM   H11F11689   3.723   4.642   9.199  0.8364 -0.5045  0.6861
  112OSM   H11G11690   3.877   4.742   9.194 -0.5915 -0.7188  0.7516
  112OSM   C12F11691   3.706   4.816   9.079 -0.0782 -0.2456  0.0687
  112OSM   H12F11692   3.743   4.921   9.074 -3.2263  0.8267 -1.9347
  112OSM   H12G11693   3.595   4.823   9.081  0.0321  3.1710 -1.5495
  112OSM   C13F11694   3.751   4.768   8.936 -0.0468 -0.0746  0.3991
  112OSM   H13F11695   3.859   4.744   8.934 -0.6767 -3.0309 -1.1675
  112OSM   H13G11696   3.720   4.828   8.848 -0.9861 -2.6178 -1.0765
  112OSM   C14F11697   3.688   4.622   8.909  0.4184 -0.2511 -0.6949
  112OSM   H14F11698   3.583   4.634   8.872  0.3814  0.5360 -0.3430
  112OSM   H14G11699   3.702   4.571   9.007 -1.7221 -0.6504 -0.5642
  112OSM   C15F11700   3.757   4.545   8.796  0.2944 -0.0565  0.7286
  112OSM   H15F11701   3.752   4.607   8.703 -0.0822  0.6925  1.2410
  112OSM   H15G11702   3.701   4.450   8.782  0.0389  0.3140 -0.8416
  112OSM   C16F11703   3.903   4.495   8.812 -0.5811  0.2411 -0.2918
  112OSM   H16F11704   3.898   4.434   8.905 -2.2640 -0.8164 -1.0545
  112OSM   H16G11705   3.978   4.572   8.840 -1.2522  0.4439  0.9846
  112OSM   C17F11706   3.963   4.416   8.695  0.0360 -0.8561  1.0916
  112OSM   H17F11707   3.896   4.348   8.637  0.7866 -0.2032 -0.5571
  112OSM   H17G11708   4.047   4.361   8.742  0.8145 -0.0313  0.6645
  112OSM   C18F11709   4.027   4.512   8.594 -0.4030  0.0418 -0.0651
  112OSM   H18F11710   4.071   4.457   8.509  0.4608 -1.5868  1.3966
  112OSM   H18G11711   4.102   4.571   8.651  2.1378 -1.9398 -1.2896
  112OSM   H18H11712   3.954   4.590   8.563  1.8988  1.8619 -1.0640
  113OSM      N11713   0.974   1.320  11.203  0.6409  0.4184  0.4248
  113OSM    C1511714   0.856   1.298  11.299  0.3267  0.1275  0.0596
  113OSM   H15A11715   0.885   1.278  11.401  0.1250  0.6451  0.2171
  113OSM   H15B11716   0.774   1.239  11.262  1.8154 -1.7684 -0.3474
  113OSM   H15C11717   0.812   1.396  11.293 -0.2374 -0.2214 -1.9135
  113OSM    C1411718   1.046   1.443  11.248 -0.4009  0.6848 -0.4622
  113OSM   H14A11719   1.117   1.479  11.175  0.8251 -0.4499  0.1430
  113OSM   H14B11720   1.099   1.416  11.339 -2.8630  2.0462  1.4438
  113OSM   H14C11721   0.976   1.520  11.278 -2.6829 -2.3288  2.3144
  113OSM    C1311722   1.052   1.197  11.199 -0.8447 -0.2905 -0.1457
  113OSM   H13A11723   1.155   1.214  11.171 -0.9235 -0.2355 -0.4038
  113OSM   H13B11724   1.005   1.119  11.141 -0.4810 -1.2388  0.8092
  113OSM   H13C11725   1.050   1.156  11.299 -1.5941  2.6862  1.0991
  113OSM    C1211726   0.918   1.352  11.061  0.0611 -0.1143  0.5785
  113OSM   H12A11727   0.854   1.270  11.033  1.3129 -2.1710  3.4393
  113OSM   H12B11728   1.010   1.342  11.004  0.8394 -0.3794  1.8555
  113OSM    C1111729   0.857   1.486  11.026 -0.1233  0.0229  0.1199
  113OSM   H11A11730   0.805   1.466  10.929  1.2324  1.3946 -0.9254
  113OSM   H11B11731   0.942   1.556  11.009 -0.5421  0.2246 -1.2926
  113OSM      P11732   0.614   1.509  11.138  0.3873  0.1612  0.6298
  113OSM    O1311733   0.587   1.371  11.095  0.3888  0.0023  0.4412
  113OSM    O1411734   0.566   1.548  11.270 -0.7353 -0.0416 -0.5243
  113OSM    O1111735   0.551   1.608  11.037  0.4131 -0.4624 -0.3183
  113OSM    O1211736   0.767   1.539  11.125  0.2642  0.3086 -0.0759
  113OSM    C1S11737   0.589   1.623  10.899 -0.2937 -0.2389  0.2907
  113OSM    H1S11738   0.593   1.533  10.835  1.7645 -1.5127  2.1412
  113OSM    H1T11739   0.692   1.665  10.902  0.1998 -1.4609  0.3113
  113OSM     NF11740   0.566   1.763  10.694 -0.8605  0.2305 -0.0831
  113OSM    HNF11741   0.627   1.841  10.705  0.6471 -1.2873  3.1878
  113OSM    C2S11742   0.501   1.729  10.816  0.0677 -0.3641  0.0454
  113OSM    H2S11743   0.405   1.679  10.793  0.9555 -0.8138 -2.8642
  113OSM    C3S11744   0.460   1.851  10.909  0.0189 -0.9000  0.7803
  113OSM    H3S11745   0.549   1.906  10.946  1.2282 -1.4643 -1.1979
  113OSM     O311746   0.388   1.825  11.028  0.5018 -0.0830 -0.3045
  113OSM    HO311747   0.409   1.731  11.033  1.6395  0.2559  1.8418
  113OSM    C4S11748   0.370   1.943  10.824 -0.6253  0.5276 -0.6034
  113OSM    H4S11749   0.276   1.895  10.794 -1.3475  1.7342 -0.2800
  113OSM    C5S11750   0.387   2.074  10.794  0.0747  0.2589  0.2483
  113OSM    H5S11751   0.483   2.122  10.820  0.3654 -0.0548 -0.2262
  113OSM    C6S11752   0.292   2.165  10.723  0.6315  0.1623  0.2318
  113OSM    H6S11753   0.235   2.212  10.807  0.2131  0.0441  0.0138
  113OSM    H6T11754   0.218   2.108  10.663  0.5481  0.6948 -0.1720
  113OSM    C7S11755   0.365   2.266  10.633 -0.9523 -0.4477  0.5938
  113OSM    H7S11756   0.437   2.325  10.693  0.8589 -0.8890 -1.0816
  113OSM    H7T11757   0.284   2.334  10.599 -0.3905 -0.0286  0.0825
  113OSM    C8S11758   0.440   2.201  10.521 -0.8853  0.3473 -0.3004
  113OSM    H8S11759   0.383   2.139  10.449 -1.0304  1.2954 -1.0164
  113OSM    H8T11760   0.526   2.144  10.563 -1.3470 -0.4727 -0.4630
  113OSM    C9S11761   0.507   2.312  10.431  0.3137  0.2423 -0.0592
  113OSM    H9S11762   0.575   2.376  10.490  0.5548  0.3031 -0.4068
  113OSM    H9T11763   0.427   2.379  10.392  0.3837  0.5401  0.3101
  113OSM   C10S11764   0.574   2.255  10.297  0.2705 -0.7853 -0.2400
  113OSM   H10S11765   0.585   2.337  10.223  1.1699 -0.8516 -0.1853
  113OSM   H10T11766   0.512   2.177  10.247 -1.3335 -1.1324  2.1778
  113OSM   C11S11767   0.717   2.190  10.320 -0.1305 -0.7605  0.4643
  113OSM   H11S11768   0.704   2.115  10.400 -0.1552 -2.2197 -0.8693
  113OSM   H11T11769   0.774   2.283  10.343 -0.7832  0.1375 -1.3908
  113OSM   C12S11770   0.768   2.114  10.192  0.2752  0.5292  0.3544
  113OSM   H12S11771   0.703   2.031  10.158 -2.3180  2.4616  0.4844
  113OSM   H12T11772   0.870   2.073  10.211  0.1364  1.1854  2.6446
  113OSM   C13S11773   0.802   2.196  10.063  0.2828 -0.1523  0.8565
  113OSM   H13S11774   0.892   2.251  10.097  0.7162 -0.1406 -0.3093
  113OSM   H13T11775   0.718   2.261  10.028  0.3248 -0.6660 -0.1971
  113OSM   C14S11776   0.838   2.098   9.949 -0.3839 -0.8487  0.1526
  113OSM   H14S11777   0.751   2.034   9.927  0.6385 -1.8201 -1.1142
  113OSM   H14T11778   0.918   2.027   9.979  0.3337 -0.1239 -0.0258
  113OSM   C15S11779   0.876   2.163   9.819 -0.3339 -0.6497  0.5281
  113OSM   H15S11780   0.979   2.203   9.815 -0.1992 -1.0529 -0.1408
  113OSM   H15T11781   0.804   2.243   9.790  1.1650 -0.1887 -2.0012
  113OSM   C16S11782   0.866   2.064   9.697  0.3724 -0.0360 -0.3550
  113OSM   H16S11783   0.937   1.979   9.703  3.9912  2.6194 -3.0760
  113OSM   H16T11784   0.899   2.126   9.611 -1.1242 -0.0561 -0.9495
  113OSM   C17S11785   0.724   2.013   9.652  0.4126 -0.1382  0.0163
  113OSM   H17S11786   0.680   1.948   9.731  0.3442 -0.6618 -0.4514
  113OSM   H17T11787   0.713   1.951   9.561 -1.4482  1.6703 -1.0271
  113OSM   C18S11788   0.612   2.118   9.631 -1.1056 -0.9109  0.0389
  113OSM   H18S11789   0.517   2.062   9.619 -2.7754  1.7052  0.8546
  113OSM   H18T11790   0.631   2.188   9.547 -0.2387 -1.9945 -0.7034
  113OSM   H18U11791   0.600   2.177   9.725 -0.4049  0.4356 -0.7066
  113OSM    C1F11792   0.574   1.685  10.587 -0.2489 -0.2564  0.1076
  113OSM     OF11793   0.523   1.573  10.584 -0.8145  0.3307  0.1636
  113OSM    C2F11794   0.637   1.743  10.460 -1.0082 -0.0130  0.2250
  113OSM    H2F11795   0.739   1.783  10.477 -0.6937 -0.8279  0.2927
  113OSM    H2G11796   0.572   1.826  10.423 -0.3471  0.6832  0.6237
  113OSM    C3F11797   0.628   1.647  10.344 -0.0861  0.1354  0.4261
  113OSM    H3F11798   0.522   1.625  10.319  0.1035 -0.4397  0.1097
  113OSM    H3G11799   0.673   1.546  10.353  0.8960  0.4418 -0.8544
  113OSM    C4F11800   0.685   1.719  10.213  0.0658  0.1462 -0.3364
  113OSM    H4F11801   0.792   1.745  10.225  0.4758 -0.0186 -3.2658
  113OSM    H4G11802   0.620   1.806  10.188  0.7370  1.3100  1.7789
  113OSM    C5F11803   0.681   1.635  10.087 -0.4374  0.4161 -1.1200
  113OSM    H5F11804   0.576   1.608  10.064 -1.2099  0.4362  2.0899
  113OSM    H5G11805   0.738   1.545  10.121 -0.9479  0.2637 -0.6733
  113OSM    C6F11806   0.761   1.686   9.965 -0.5644 -0.7853 -0.3535
  113OSM    H6F11807   0.858   1.725  10.001  1.4530 -3.1299 -2.9984
  113OSM    H6G11808   0.696   1.765   9.922  0.0435 -0.7204 -1.1697
  113OSM    C7F11809   0.794   1.580   9.862 -0.5449 -0.1296 -0.2922
  113OSM    H7F11810   0.711   1.516   9.827  0.9799 -2.7436  0.7713
  113OSM    H7G11811   0.864   1.506   9.905 -1.4175  0.0604  1.4874
  113OSM    C8F11812   0.859   1.640   9.733 -0.2381 -0.7076  0.0846
  113OSM    H8F11813   0.952   1.686   9.773 -2.4174  1.9198  2.4204
  113OSM    H8G11814   0.797   1.728   9.705  1.4586  0.1579 -1.0179
  113OSM    C9F11815   0.879   1.543   9.622 -0.0612 -0.4688 -0.6251
  113OSM    H9F11816   0.941   1.456   9.650  0.4956  0.7850  2.2063
  113OSM   C10F11817   0.851   1.562   9.493 -0.2499  1.2018  0.2173
  113OSM   H10F11818   0.862   1.480   9.421  1.2536  4.3382 -3.2673
  113OSM   C11F11819   0.790   1.682   9.425 -0.5123 -0.7120 -0.3345
  113OSM   H11F11820   0.765   1.759   9.501  0.4685  1.5394 -2.2333
  113OSM   H11G11821   0.711   1.665   9.350  0.1660 -0.9210 -1.0077
  113OSM   C12F11822   0.907   1.765   9.346  0.2815  1.0740 -0.0265
  113OSM   H12F11823   0.962   1.699   9.276  1.4727  2.2736 -0.2371
  113OSM   H12G11824   0.980   1.800   9.421 -0.1184 -0.1353  0.9549
  113OSM   C13F11825   0.857   1.883   9.267 -0.0722 -0.4539  0.8917
  113OSM   H13F11826   0.793   1.951   9.327  0.6442  1.6462 -0.6282
  113OSM   H13G11827   0.807   1.842   9.177  0.9980  1.2315 -0.5071
  113OSM   C14F11828   0.969   1.978   9.233 -0.5344 -0.5545  0.7190
  113OSM   H14F11829   1.052   1.924   9.183 -0.6345 -0.3810  0.3607
  113OSM   H14G11830   1.004   2.034   9.322 -2.5732  2.6755 -0.3977
  113OSM   C15F11831   0.923   2.092   9.135 -0.3355  0.5866 -0.4795
  113OSM   H15F11832   1.008   2.160   9.117  1.2702 -0.9638  1.1078
  113OSM   H15G11833   0.837   2.147   9.179 -1.1181 -0.8413 -0.1874
  113OSM   C16F11834   0.870   2.048   8.994 -0.1068 -0.5223 -0.5344
  113OSM   H16F11835   0.825   2.137   8.946 -2.2349  0.4671  3.0758
  113OSM   H16G11836   0.788   1.974   9.010 -1.7741  1.2687 -0.6838
  113OSM   C17F11837   0.980   1.987   8.903 -0.3205  0.6633 -0.6358
  113OSM   H17F11838   1.000   1.885   8.943 -2.0934 -0.2424 -1.9807
  113OSM   H17G11839   1.071   2.051   8.904  1.2254 -1.3795  3.3040
  113OSM   C18F11840   0.935   1.971   8.761  0.1435 -0.6633  0.7656
  113OSM   H18F11841   0.977   1.877   8.718  0.8117 -0.8249  1.7644
  113OSM   H18G11842   0.957   2.059   8.696 -2.0327 -0.3102  0.4661
  113OSM   H18H11843   0.824   1.970   8.751 -0.0976  1.4956  2.8452
  114OSM      N11844   2.521   4.691  11.068 -0.0078 -0.1349  0.2532
  114OSM    C1511845   2.502   4.814  10.988 -0.5782  0.3077 -0.2065
  114OSM   H15A11846   2.481   4.789  10.885 -0.0142 -3.1489  0.4753
  114OSM   H15B11847   2.586   4.882  10.989  0.3997 -0.9032  0.3630
  114OSM   H15C11848   2.414   4.872  11.011 -2.5052 -2.2902 -0.8500
  114OSM    C1411849   2.596   4.725  11.195 -0.3672 -0.0037  0.0831
  114OSM   H14A11850   2.666   4.806  11.182 -1.8210  0.9641 -1.9673
  114OSM   H14B11851   2.657   4.643  11.231  2.1962  1.5159 -0.7131
  114OSM   H14C11852   2.525   4.742  11.274  0.1834 -0.5707  0.7059
  114OSM    C1311853   2.387   4.630  11.084  0.0315 -0.5808 -0.4751
  114OSM   H13A11854   2.391   4.542  11.146  0.5583 -0.9136 -0.9759
  114OSM   H13B11855   2.345   4.600  10.989  2.8123 -2.9260 -1.0059
  114OSM   H13C11856   2.313   4.687  11.138  1.2969 -0.6107  1.3253
  114OSM    C1211857   2.611   4.593  10.984  0.2471 -0.1607  0.3358
  114OSM   H12A11858   2.709   4.637  10.974  1.0290 -1.5806  1.7161
  114OSM   H12B11859   2.571   4.576  10.885 -1.4211  0.6582  0.8523
  114OSM    C1111860   2.639   4.455  11.060  0.3800  0.0234  0.1773
  114OSM   H11A11861   2.701   4.462  11.153 -0.2909  0.3687  0.6000
  114OSM   H11B11862   2.710   4.400  10.994  2.1880 -0.0856  2.1648
  114OSM      P11863   2.463   4.285  10.963  0.0887  0.2119  0.0957
  114OSM    O1311864   2.523   4.149  10.988  0.6428  0.4938 -0.4144
  114OSM    O1411865   2.317   4.280  10.944 -0.3167  0.4636 -0.0370
  114OSM    O1111866   2.526   4.342  10.831  0.3431  0.2071  0.6099
  114OSM    O1211867   2.518   4.377  11.077 -0.0709 -0.6076  0.3564
  114OSM    C1S11868   2.455   4.312  10.713 -0.4858 -0.8393 -0.0264
  114OSM    H1S11869   2.356   4.362  10.717 -0.8538 -1.6327  0.8812
  114OSM    H1T11870   2.462   4.210  10.669 -1.0230  0.0440 -2.2460
  114OSM     NF11871   2.444   4.392  10.483  0.3565  0.7683  0.2519
  114OSM    HNF11872   2.467   4.326  10.411 -0.9708  0.9906 -0.3868
  114OSM    C2S11873   2.521   4.405  10.600  0.9473  0.3245 -0.1766
  114OSM    H2S11874   2.507   4.512  10.625  0.4737  0.0536  0.7556
  114OSM    C3S11875   2.671   4.383  10.575 -0.8899 -0.2397  0.2375
  114OSM    H3S11876   2.698   4.287  10.525  1.8958  0.4393  0.3184
  114OSM     O311877   2.757   4.374  10.695  0.1161 -0.6888  0.8550
  114OSM    HO311878   2.700   4.348  10.767 -1.2564 -1.3835 -0.4565
  114OSM    C4S11879   2.717   4.494  10.476 -0.2847  0.5239  0.4584
  114OSM    H4S11880   2.711   4.462  10.371 -1.3029  1.1840  0.3079
  114OSM    C5S11881   2.758   4.620  10.506  0.4751 -0.2291  0.2953
  114OSM    H5S11882   2.758   4.661  10.607 -1.5215  3.5972 -1.1674
  114OSM    C6S11883   2.800   4.723  10.400  0.0980  0.1806 -0.1386
  114OSM    H6S11884   2.911   4.712  10.396 -0.0322 -1.3417 -0.1084
  114OSM    H6T11885   2.768   4.825  10.430  0.0378 -0.6412  2.7838
  114OSM    C7S11886   2.739   4.726  10.255 -0.3314 -0.4549  0.1003
  114OSM    H7S11887   2.636   4.767  10.265  0.4161  1.0480  1.8875
  114OSM    H7T11888   2.732   4.625  10.210  0.1231 -0.3170 -0.2940
  114OSM    C8S11889   2.815   4.820  10.162 -0.6988 -0.1788  0.3042
  114OSM    H8S11890   2.920   4.785  10.161  0.2242  2.4110 -2.2971
  114OSM    H8T11891   2.818   4.925  10.198  1.3959  0.2296 -0.9860
  114OSM    C9S11892   2.763   4.839  10.017 -0.0868 -0.3722  0.1843
  114OSM    H9S11893   2.681   4.915  10.014 -0.0218 -0.3762 -3.3780
  114OSM    H9T11894   2.718   4.746   9.977 -1.4184  0.8036 -1.1096
  114OSM   C10S11895   2.862   4.909   9.926  0.0638  0.9511 -0.1381
  114OSM   H10S11896   2.952   4.843   9.932  1.1798  1.9831 -4.0439
  114OSM   H10T11897   2.898   5.008   9.961  1.6174  0.5555 -0.5452
  114OSM   C11S11898   2.813   4.906   9.780 -0.1464 -0.5408  0.1723
  114OSM   H11S11899   2.873   4.978   9.721 -0.3286  0.4593  1.1807
  114OSM   H11T11900   2.710   4.946   9.788  1.1190  2.7104  1.3223
  114OSM   C12S11901   2.843   4.772   9.723  0.4389  0.3804  0.0018
  114OSM   H12S11902   2.766   4.699   9.755 -0.7882  2.5399  2.1178
  114OSM   H12T11903   2.941   4.741   9.763  0.5039  1.1675  0.4665
  114OSM   C13S11904   2.856   4.776   9.565  0.3722  0.7219  0.4826
  114OSM   H13S11905   2.942   4.714   9.532  0.6000  1.6247 -0.6764
  114OSM   H13T11906   2.874   4.881   9.535  0.2552  0.9012  1.0455
  114OSM   C14S11907   2.729   4.702   9.504 -0.0676  0.1141  0.1132
  114OSM   H14S11908   2.637   4.760   9.526  0.2588  0.4660  0.5644
  114OSM   H14T11909   2.730   4.610   9.566  4.8780 -1.9588 -2.7120
  114OSM   C15S11910   2.748   4.665   9.359 -0.3833 -0.3282 -0.8249
  114OSM   H15S11911   2.663   4.602   9.325  0.4490 -1.2322 -1.2685
  114OSM   H15T11912   2.839   4.602   9.348  1.0507  1.8371 -1.6894
  114OSM   C16S11913   2.754   4.793   9.271  0.1129 -0.1890 -0.4625
  114OSM   H16S11914   2.828   4.872   9.296  1.1111 -1.0318 -0.7103
  114OSM   H16T11915   2.655   4.836   9.296 -0.1799 -0.7577 -0.6206
  114OSM   C17S11916   2.757   4.761   9.116 -0.2794 -0.5327 -0.1021
  114OSM   H17S11917   2.690   4.677   9.088  0.3946 -0.7267 -1.1529
  114OSM   H17T11918   2.864   4.735   9.108  0.7380  2.7172  1.8253
  114OSM   C18S11919   2.709   4.885   9.034  0.5888 -0.2625 -0.3503
  114OSM   H18S11920   2.681   4.973   9.096  1.8289  0.0235 -0.1883
  114OSM   H18T11921   2.612   4.852   8.990 -0.2175  1.4542  0.0719
  114OSM   H18U11922   2.775   4.907   8.947  2.2461  1.3719  1.2835
  114OSM    C1F11923   2.315   4.432  10.477 -0.7242  1.0352 -0.7007
  114OSM     OF11924   2.263   4.501  10.561 -0.1041  0.0318 -0.2573
  114OSM    C2F11925   2.230   4.369  10.368 -0.3002 -0.3028 -0.5030
  114OSM    H2F11926   2.159   4.299  10.417 -0.9877  0.4944 -0.3510
  114OSM    H2G11927   2.297   4.321  10.293 -0.2613  0.5731 -1.0393
  114OSM    C3F11928   2.148   4.484  10.304 -0.2535 -0.0784 -0.1286
  114OSM    H3F11929   2.089   4.527  10.387  1.4150 -0.0568  1.0802
  114OSM    H3G11930   2.078   4.433  10.234  1.4324 -1.4913 -0.8477
  114OSM    C4F11931   2.228   4.590  10.234 -0.5967  0.1542  0.0421
  114OSM    H4F11932   2.304   4.624  10.308  1.6658  0.9728 -2.5747
  114OSM    H4G11933   2.159   4.672  10.206 -1.1394  0.2770  1.6580
  114OSM    C5F11934   2.299   4.547  10.093  0.1705  0.1643  0.2355
  114OSM    H5F11935   2.223   4.488  10.038 -0.5119  0.6227  0.6824
  114OSM    H5G11936   2.386   4.485  10.124  0.5835  1.3018  1.4101
  114OSM    C6F11937   2.356   4.665  10.017  0.3209 -0.0690  0.1289
  114OSM    H6F11938   2.419   4.630   9.932 -0.0296 -2.3682  0.7850
  114OSM    H6G11939   2.409   4.730  10.089  2.1582 -0.9651 -0.3930
  114OSM    C7F11940   2.239   4.749   9.955 -0.0270 -0.0181  0.2798
  114OSM    H7F11941   2.155   4.768  10.025 -1.6237 -1.2364 -1.2515
  114OSM    H7G11942   2.186   4.692   9.875  0.1977  1.1200 -0.6900
  114OSM    C8F11943   2.277   4.877   9.880 -0.4408 -0.0108  0.3690
  114OSM    H8F11944   2.314   4.955   9.950 -1.7100  1.8293 -0.9891
  114OSM    H8G11945   2.182   4.910   9.835  0.9483  0.9746 -1.8981
  114OSM    C9F11946   2.383   4.868   9.774 -0.4636 -0.6884 -0.1444
  114OSM    H9F11947   2.485   4.857   9.814 -0.0760  1.3901 -0.4622
  114OSM   C10F11948   2.381   4.890   9.644 -0.4556 -0.0123 -0.4511
  114OSM   H10F11949   2.473   4.879   9.585  0.1277 -1.4896  0.7008
  114OSM   C11F11950   2.258   4.912   9.558  0.1004  0.4513 -0.1478
  114OSM   H11F11951   2.164   4.915   9.618 -0.2794  0.3849 -0.7371
  114OSM   H11G11952   2.246   4.826   9.489  2.4758 -1.4279  1.7280
  114OSM   C12F11953   2.256   5.046   9.482  0.4757 -0.0072  0.0518
  114OSM   H12F11954   2.318   5.120   9.536  0.1009 -0.5092  1.1909
  114OSM   H12G11955   2.159   5.100   9.474  0.4985 -0.0806 -0.7638
  114OSM   C13F11956   2.318   5.035   9.340  0.4131  0.1839  0.0518
  114OSM   H13F11957   2.275   4.964   9.266  0.8227 -0.9548  0.8766
  114OSM   H13G11958   2.428   5.019   9.344  0.4595  0.5768  0.4129
  114OSM   C14F11959   2.287   5.173   9.279 -0.6258  0.3657  0.1265
  114OSM   H14F11960   2.325   5.255   9.345 -1.0034 -1.4048  2.6370
  114OSM   H14G11961   2.179   5.196   9.267 -0.5629  0.3962 -0.3793
  114OSM   C15F11962   2.350   5.200   9.146  0.2614  0.0129 -0.5924
  114OSM   H15F11963   2.330   5.126   9.065 -1.2253 -0.2011 -0.0360
  114OSM   H15G11964   2.459   5.199   9.166 -0.3511  0.7942  3.1116
  114OSM   C16F11965   2.327   5.350   9.098 -0.0557 -0.2562  0.3093
  114OSM   H16F11966   2.390   5.417   9.160  0.0651 -0.5866  0.5465
  114OSM   H16G11967   2.220   5.369   9.121 -0.9305 -4.7901  0.4530
  114OSM   C17F11968   2.356   5.356   8.946 -0.0490  0.2124 -0.0306
  114OSM   H17F11969   2.274   5.301   8.895 -1.9481  0.3560  2.7440
  114OSM   H17G11970   2.444   5.293   8.921 -1.5131 -1.6991 -0.5196
  114OSM   C18F11971   2.374   5.499   8.884 -0.0768  0.5769  0.0769
  114OSM   H18F11972   2.275   5.548   8.870 -0.8918 -0.7975  0.8755
  114OSM   H18G11973   2.417   5.481   8.783  1.2401  0.6792  0.6149
  114OSM   H18H11974   2.440   5.569   8.939 -1.3591  1.4448  0.5423
  115OSM      N11975   6.662   3.720  10.856  0.1936  0.3941 -0.3827
  115OSM    C1511976   6.607   3.670  10.993  0.1655 -0.5470 -1.0732
  115OSM   H15A11977   6.511   3.716  11.009  0.4963 -0.8642  2.1371
  115OSM   H15B11978   6.663   3.698  11.081 -1.9034 -0.6308  0.3167
  115OSM   H15C11979   6.588   3.563  10.992  1.8908 -0.8806 -0.3067
  115OSM    C1411980   6.802   3.671  10.846 -0.1360  0.3047 -0.3624
  115OSM   H14A11981   6.803   3.569  10.879  3.2139  0.6854  0.8828
  115OSM   H14B11982   6.864   3.724  10.917  0.4556  1.3769 -1.6483
  115OSM   H14C11983   6.848   3.684  10.749  2.9504 -1.7319  0.7653
  115OSM    C1311984   6.578   3.657  10.751 -0.2162  0.6954  0.0217
  115OSM   H13A11985   6.477   3.664  10.789 -0.2568  1.8536 -0.2681
  115OSM   H13B11986   6.608   3.554  10.743  1.6950  0.9360  3.0983
  115OSM   H13C11987   6.585   3.717  10.661  2.6373  0.1623 -0.1739
  115OSM    C1211988   6.643   3.875  10.844  0.2754  0.0056 -0.5685
  115OSM   H12A11989   6.689   3.899  10.749  2.3483 -3.1461 -0.4193
  115OSM   H12B11990   6.703   3.923  10.920 -1.8811 -0.1496  1.3124
  115OSM    C1111991   6.502   3.939  10.840 -0.3356  0.4482  0.3354
  115OSM   H11A11992   6.459   3.904  10.744  1.3245 -0.9514  0.0756
  115OSM   H11B11993   6.518   4.049  10.834 -0.8591  0.4119 -2.1824
  115OSM      P11994   6.272   3.871  10.949  0.4152  0.8553  0.1117
  115OSM    O1311995   6.254   3.737  11.007  0.0728 -0.5483  0.1992
  115OSM    O1411996   6.203   3.976  11.026 -0.3430 -0.7495  0.0330
  115OSM    O1111997   6.221   3.879  10.798  0.3921 -0.1977  0.1345
  115OSM    O1211998   6.432   3.894  10.950 -0.0871 -0.1633  0.6771
  115OSM    C1S11999   6.185   4.007  10.744  0.0351  0.1028 -0.3405
  115OSM    H1S12000   6.275   4.071  10.739 -0.7976  1.3290  0.1232
  115OSM    H1T12001   6.115   4.069  10.804 -1.2584 -1.1486 -0.5339
  115OSM     NF12002   6.178   4.104  10.519  0.2595  0.7390  0.1845
  115OSM    HNF12003   6.111   4.177  10.510  0.3329  0.6627 -1.1001
  115OSM    C2S12004   6.139   3.985  10.604  0.4862  0.3082  0.6321
  115OSM    H2S12005   6.195   3.900  10.559 -2.0281 -1.0999  0.0636
  115OSM    C3S12006   5.991   3.945  10.592 -0.2553  0.1752  0.2696
  115OSM    H3S12007   5.933   4.027  10.640 -1.0151  0.6868 -1.4930
  115OSM     O312008   5.947   3.840  10.675  0.3968  0.4046  0.0283
  115OSM    HO312009   6.016   3.819  10.739 -0.5425  1.2198  1.3339
  115OSM    C4S12010   5.942   3.924  10.456 -0.3909  0.3347  0.0355
  115OSM    H4S12011   5.877   4.007  10.424 -1.0241 -0.1082  0.1567
  115OSM    C5S12012   5.953   3.813  10.375  1.0461 -0.2940 -0.4071
  115OSM    H5S12013   5.986   3.715  10.413  1.0953  0.3814  1.3721
  115OSM    C6S12014   5.878   3.809  10.245  0.0118 -0.8172 -0.6801
  115OSM    H6S12015   5.851   3.910  10.208  2.7831 -0.8263 -2.9227
  115OSM    H6T12016   5.779   3.760  10.259 -0.1764 -0.3028 -0.2259
  115OSM    C7S12017   5.948   3.741  10.129 -0.3552  0.2921 -0.3216
  115OSM    H7S12018   6.000   3.651  10.169  0.1859  0.8207  0.1631
  115OSM    H7T12019   6.026   3.803  10.080 -1.9457  1.2082 -1.7651
  115OSM    C8S12020   5.843   3.683  10.029 -0.8216 -0.7090  0.2353
  115OSM    H8S12021   5.760   3.753  10.004 -0.5841 -0.5328 -0.0710
  115OSM    H8T12022   5.787   3.599  10.074  0.3354 -1.1637  0.8524
  115OSM    C9S12023   5.912   3.624   9.912  0.3182  0.0929  0.3217
  115OSM    H9S12024   5.989   3.550   9.942 -0.0556 -0.8432 -0.9875
  115OSM    H9T12025   5.959   3.713   9.866 -0.8310  0.7534  0.4055
  115OSM   C10S12026   5.815   3.558   9.814  0.4054 -0.3253 -0.0951
  115OSM   H10S12027   5.728   3.623   9.790  1.9847  2.2256  0.9395
  115OSM   H10T12028   5.761   3.473   9.860 -1.7418  0.3070 -1.3825
  115OSM   C11S12029   5.884   3.504   9.684 -0.3469 -0.6372  0.3911
  115OSM   H11S12030   5.883   3.393   9.694  2.6507 -0.9037 -1.5669
  115OSM   H11T12031   5.982   3.552   9.666 -1.2447  1.2862  0.4643
  115OSM   C12S12032   5.798   3.541   9.557 -0.0612  0.0897 -0.0301
  115OSM   H12S12033   5.762   3.646   9.551  1.3588  0.6046  0.2410
  115OSM   H12T12034   5.704   3.482   9.545  0.3515 -0.0864 -2.7263
  115OSM   C13S12035   5.879   3.513   9.432 -0.1564 -0.2424 -0.3071
  115OSM   H13S12036   5.931   3.416   9.449  0.9023  0.4413  0.4414
  115OSM   H13T12037   5.944   3.601   9.412 -0.0547  0.7991  4.1233
  115OSM   C14S12038   5.794   3.503   9.304  0.1237  0.0344  0.2029
  115OSM   H14S12039   5.766   3.607   9.276  0.1284 -0.7422 -2.8848
  115OSM   H14T12040   5.704   3.437   9.311  1.4973 -1.9261 -0.0913
  115OSM   C15S12041   5.880   3.444   9.185  0.3988 -0.0399 -0.1032
  115OSM   H15S12042   5.905   3.338   9.209  2.7469  0.8646  1.6707
  115OSM   H15T12043   5.975   3.502   9.193  0.0159  0.9110 -1.9961
  115OSM   C16S12044   5.806   3.438   9.049 -0.6589  0.0698 -1.1229
  115OSM   H16S12045   5.737   3.525   9.041 -0.8716 -0.0709 -0.8387
  115OSM   H16T12046   5.742   3.348   9.064 -2.3059  1.4336  0.4234
  115OSM   C17S12047   5.899   3.420   8.927 -0.3797 -0.0599  0.4109
  115OSM   H17S12048   5.969   3.339   8.956 -1.5018 -0.2140  2.8423
  115OSM   H17T12049   5.951   3.517   8.923 -2.1025  0.8716  0.1955
  115OSM   C18S12050   5.841   3.375   8.795  0.6722  0.5558 -0.1245
  115OSM   H18S12051   5.928   3.332   8.741  0.5859 -0.9827  0.9252
  115OSM   H18T12052   5.801   3.452   8.726  0.0567  0.6987  0.3926
  115OSM   H18U12053   5.776   3.289   8.822  1.6192 -0.3862 -0.8082
  115OSM    C1F12054   6.312   4.125  10.501  0.6105  0.4995  0.1064
  115OSM     OF12055   6.390   4.034  10.524  0.2780  0.1298 -0.2083
  115OSM    C2F12056   6.356   4.266  10.448 -0.9980 -0.4912  0.0485
  115OSM    H2F12057   6.458   4.290  10.484 -2.0128  0.6092  2.3148
  115OSM    H2G12058   6.289   4.338  10.500  0.7038  0.4887  0.9341
  115OSM    C3F12059   6.361   4.265  10.292  0.5261 -0.5973  0.0969
  115OSM    H3F12060   6.433   4.190  10.253  0.3091 -0.5766 -0.3397
  115OSM    H3G12061   6.392   4.365  10.255 -1.1769 -0.0471  0.1101
  115OSM    C4F12062   6.220   4.235  10.234  0.5712  0.3034  0.2793
  115OSM    H4F12063   6.148   4.300  10.288 -0.8363  0.0951 -1.2892
  115OSM    H4G12064   6.182   4.136  10.265  1.9016  0.2268  1.7220
  115OSM    C5F12065   6.207   4.237  10.087  0.1958  0.7460  0.0691
  115OSM    H5F12066   6.287   4.175  10.041  0.4912  1.1322  0.0516
  115OSM    H5G12067   6.218   4.343  10.054 -1.5089  1.1755  0.8323
  115OSM    C6F12068   6.078   4.188  10.042 -1.2852  0.3770  0.6665
  115OSM    H6F12069   6.006   4.251  10.098 -0.1127  0.9679  1.5433
  115OSM    H6G12070   6.047   4.083  10.063  0.1193 -1.0067 -3.6381
  115OSM    C7F12071   6.063   4.199   9.889  0.5603 -0.1317  0.1282
  115OSM    H7F12072   6.147   4.152   9.833 -0.1806  1.0306 -2.0523
  115OSM    H7G12073   6.074   4.310   9.882  1.8223 -0.3888 -2.7462
  115OSM    C8F12074   5.934   4.141   9.823  0.0278 -0.2486  0.3533
  115OSM    H8F12075   5.914   4.199   9.730  2.1981  0.1818  0.1301
  115OSM    H8G12076   5.847   4.155   9.891 -0.2865  3.0284 -0.6257
  115OSM    C9F12077   5.945   3.996   9.794  0.6768  0.2685  1.0214
  115OSM    H9F12078   5.946   3.928   9.880  0.2169 -0.1259  0.7126
  115OSM   C10F12079   5.961   3.935   9.676  1.0013 -0.8206  0.4899
  115OSM   H10F12080   5.950   3.826   9.662 -0.6039 -0.5797 -0.1792
  115OSM   C11F12081   5.978   4.008   9.547 -0.0081  0.5277 -0.0238
  115OSM   H11F12082   6.084   3.996   9.514 -0.3399 -2.0821 -0.2100
  115OSM   H11G12083   5.978   4.119   9.549 -0.6213  0.5142  1.7193
  115OSM   C12F12084   5.890   3.951   9.430 -0.0222 -0.6996 -0.6878
  115OSM   H12F12085   5.870   3.844   9.454  1.2840 -0.1537  3.2515
  115OSM   H12G12086   5.943   3.960   9.333  0.0462  2.9512 -0.3733
  115OSM   C13F12087   5.757   4.028   9.416  0.3718 -0.0205 -0.7615
  115OSM   H13F12088   5.770   4.138   9.429  0.6444 -0.5102  4.1326
  115OSM   H13G12089   5.687   3.997   9.496 -0.7715  0.6050 -1.5144
  115OSM   C14F12090   5.679   3.985   9.289 -0.3830 -0.1562  0.1635
  115OSM   H14F12091   5.673   3.874   9.283 -1.8623 -0.1003  0.5159
  115OSM   H14G12092   5.735   4.025   9.202  1.6796  0.5280  1.7729
  115OSM   C15F12093   5.537   4.040   9.266 -0.5144 -0.0524  0.0106
  115OSM   H15F12094   5.501   4.008   9.167 -1.2684  2.3251 -0.5239
  115OSM   H15G12095   5.533   4.151   9.265 -0.6909 -0.0653 -0.5650
  115OSM   C16F12096   5.445   3.995   9.379  0.1274  0.9255  0.3253
  115OSM   H16F12097   5.480   4.032   9.478  1.1148  2.3244 -0.5354
  115OSM   H16G12098   5.458   3.884   9.375 -0.7519  0.8754 -1.1322
  115OSM   C17F12099   5.296   4.034   9.358  0.5209  1.0633 -0.0054
  115OSM   H17F12100   5.276   4.010   9.252 -0.3834 -0.0090  0.4066
  115OSM   H17G12101   5.288   4.145   9.363 -2.6664  0.7900  2.2071
  115OSM   C18F12102   5.187   3.966   9.454 -0.2251  0.1063  0.2375
  115OSM   H18F12103   5.164   3.860   9.432 -1.2448  0.0836  1.4231
  115OSM   H18G12104   5.092   4.023   9.449 -0.5546 -0.6090 -2.5278
  115OSM   H18H12105   5.219   3.969   9.560  0.1724 -0.1273  0.1261
  116OSM      N12106   3.122   1.503  11.287 -0.1722  0.4007  0.0905
  116OSM    C1512107   3.071   1.630  11.359  0.8613  0.5779  0.5079
  116OSM   H15A12108   3.005   1.677  11.288  0.8091  0.8542  0.7379
  116OSM   H15B12109   3.161   1.690  11.358  3.5754 -3.3025 -1.6284
  116OSM   H15C12110   3.024   1.611  11.454 -4.7262  0.5024 -2.0932
  116OSM    C1412111   3.242   1.528  11.199  0.1256 -0.3901 -0.1393
  116OSM   H14A12112   3.321   1.574  11.256 -0.2473 -0.4400  0.4266
  116OSM   H14B12113   3.219   1.589  11.114 -2.7896 -0.5210  0.4761
  116OSM   H14C12114   3.277   1.432  11.165  0.1217 -1.1434  1.8721
  116OSM    C1312115   3.162   1.408  11.391 -0.7835 -0.3375  0.2216
  116OSM   H13A12116   3.193   1.316  11.344  0.7698 -1.0316  2.5089
  116OSM   H13B12117   3.083   1.371  11.455 -0.1072 -0.3070  1.0941
  116OSM   H13C12118   3.234   1.448  11.461 -0.2541 -1.4464  0.3282
  116OSM    C1212119   3.020   1.436  11.201  0.0326 -0.0973 -0.1337
  116OSM   H12A12120   2.971   1.517  11.149 -2.9708  0.4711  3.3414
  116OSM   H12B12121   2.950   1.394  11.272 -0.2515  0.0670 -0.3175
  116OSM    C1112122   3.053   1.334  11.091 -0.4158  0.0078  0.3782
  116OSM   H11A12123   3.093   1.397  11.008 -0.0108 -0.5943  0.1089
  116OSM   H11B12124   2.957   1.284  11.065 -1.8881  1.0883  3.4703
  116OSM      P12125   3.279   1.189  11.078 -0.0338  0.0682  0.1616
  116OSM    O1312126   3.381   1.290  11.097 -0.3590  0.1530 -0.0949
  116OSM    O1412127   3.318   1.056  11.136 -0.0494 -0.5415 -0.1555
  116OSM    O1112128   3.251   1.171  10.921 -0.7563  0.2067 -0.1726
  116OSM    O1212129   3.143   1.235  11.145  0.0069 -0.5496  0.7584
  116OSM    C1S12130   3.158   1.069  10.874 -0.1455  0.5366 -0.2159
  116OSM    H1S12131   3.065   1.063  10.935 -0.9750 -3.4021 -1.6942
  116OSM    H1T12132   3.203   0.967  10.873 -2.8434 -0.7580  2.5506
  116OSM     NF12133   3.001   0.994  10.683 -0.3038 -0.2574 -0.2477
  116OSM    HNF12134   3.044   0.919  10.634  0.3118 -1.3946  1.9421
  116OSM    C2S12135   3.093   1.096  10.729 -0.0803 -0.5772  0.2234
  116OSM    H2S12136   3.039   1.193  10.730 -1.5419 -1.3929  0.3422
  116OSM    C3S12137   3.208   1.109  10.622  0.0323  0.0318  0.6075
  116OSM    H3S12138   3.254   1.009  10.608  0.2287  0.0621  1.0084
  116OSM     O312139   3.319   1.201  10.657 -0.5255  0.1216 -0.4963
  116OSM    HO312140   3.333   1.175  10.748 -3.0607 -1.1268 -0.4189
  116OSM    C4S12141   3.158   1.149  10.488  0.0197  1.0902  0.3018
  116OSM    H4S12142   3.123   1.252  10.467  0.0760  0.6572 -2.1525
  116OSM    C5S12143   3.133   1.063  10.384 -0.0143 -0.4861  1.1480
  116OSM    H5S12144   3.152   0.955  10.395 -0.5168 -0.3794  3.2706
  116OSM    C6S12145   3.071   1.101  10.260 -0.2322  0.2990 -0.2977
  116OSM    H6S12146   3.021   1.196  10.285  3.6018  2.0906  0.8619
  116OSM    H6T12147   3.004   1.020  10.224  1.7356 -0.5765 -2.1413
  116OSM    C7S12148   3.169   1.127  10.144 -0.0046  0.1326 -0.1639
  116OSM    H7S12149   3.217   1.031  10.117  1.5513  1.4833 -2.2718
  116OSM    H7T12150   3.254   1.193  10.170 -1.6290  2.2955 -0.2200
  116OSM    C8S12151   3.097   1.175  10.020 -0.1291 -0.7847 -0.7838
  116OSM    H8S12152   3.038   1.266  10.044 -1.4562 -1.7726 -0.2460
  116OSM    H8T12153   3.031   1.091   9.989 -1.2424 -0.2184  0.0260
  116OSM    C9S12154   3.191   1.196   9.905  0.2808 -0.5960 -0.0444
  116OSM    H9S12155   3.264   1.113   9.909 -1.1175 -1.9033 -1.1367
  116OSM    H9T12156   3.235   1.298   9.905  0.8069 -0.8178  1.7752
  116OSM   C10S12157   3.104   1.203   9.780  0.1398  0.2119  0.2871
  116OSM   H10S12158   3.016   1.269   9.797  0.7208  0.6461  1.7287
  116OSM   H10T12159   3.056   1.103   9.785 -0.7277  0.5810 -0.3967
  116OSM   C11S12160   3.188   1.221   9.648 -0.2284  0.0194 -0.5971
  116OSM   H11S12161   3.265   1.142   9.655 -0.4421 -0.0546  0.9941
  116OSM   H11T12162   3.241   1.318   9.655  2.4566 -1.4947  0.6454
  116OSM   C12S12163   3.113   1.199   9.515 -0.2576 -0.4580 -0.0564
  116OSM   H12S12164   3.018   1.257   9.519 -0.6730 -1.1111 -0.2631
  116OSM   H12T12165   3.082   1.092   9.518  0.6488 -0.7098  0.3013
  116OSM   C13S12166   3.195   1.248   9.391 -0.7437 -0.4445  0.0463
  116OSM   H13S12167   3.295   1.199   9.378 -0.7717 -0.4266 -0.2456
  116OSM   H13T12168   3.199   1.359   9.395  0.4836 -0.4760  0.0962
  116OSM   C14S12169   3.132   1.227   9.251 -0.6241 -0.4959 -0.6236
  116OSM   H14S12170   3.043   1.291   9.230 -1.7451 -2.5202 -2.1811
  116OSM   H14T12171   3.117   1.118   9.237  1.5485 -1.0142  0.9516
  116OSM   C15S12172   3.238   1.275   9.139 -0.0270 -0.4658 -0.0282
  116OSM   H15S12173   3.215   1.217   9.046  0.0607  0.6567 -0.7543
  116OSM   H15T12174   3.343   1.263   9.172  0.3543  1.2111 -0.5807
  116OSM   C16S12175   3.220   1.428   9.120 -0.9828  0.3773  0.9463
  116OSM   H16S12176   3.237   1.467   9.223 -1.4995  0.2949  1.0614
  116OSM   H16T12177   3.119   1.456   9.083 -0.1435 -1.3636 -2.9249
  116OSM   C17S12178   3.334   1.478   9.028  0.3516 -0.1180  0.4590
  116OSM   H17S12179   3.306   1.443   8.926 -2.4791  1.6448  0.5987
  116OSM   H17T12180   3.433   1.429   9.042  0.7568  1.0080  1.5671
  116OSM   C18S12181   3.340   1.629   9.010 -0.2554 -0.1714  0.4344
  116OSM   H18S12182   3.341   1.669   9.114 -0.6014 -0.5330  0.5808
  116OSM   H18T12183   3.259   1.668   8.945  0.5828 -1.3647 -1.3320
  116OSM   H18U12184   3.439   1.651   8.965 -0.1842 -4.1753 -1.5263
  116OSM    C1F12185   2.879   0.974  10.721  0.7306 -1.3518 -0.5755
  116OSM     OF12186   2.815   1.063  10.778 -0.1919  0.5380  0.2407
  116OSM    C2F12187   2.828   0.832  10.708 -0.1197 -0.5929  0.7025
  116OSM    H2F12188   2.748   0.805  10.779 -0.7279 -0.3479  0.1175
  116OSM    H2G12189   2.902   0.752  10.724  0.7561  0.6176  2.8613
  116OSM    C3F12190   2.767   0.811  10.560  0.0588 -0.4402  0.1332
  116OSM    H3F12191   2.843   0.855  10.491 -0.2026 -1.9662 -1.1515
  116OSM    H3G12192   2.664   0.851  10.543 -0.2607 -1.7297 -1.0241
  116OSM    C4F12193   2.749   0.661  10.529  0.8179 -0.9528  0.0033
  116OSM    H4F12194   2.657   0.634  10.584  1.8647  0.2307  2.4048
  116OSM    H4G12195   2.833   0.614  10.583  0.3477 -1.3741  0.3643
  116OSM    C5F12196   2.732   0.630  10.383  0.2726 -0.0323  0.8078
  116OSM    H5F12197   2.833   0.631  10.338  0.6204 -0.3958  1.5719
  116OSM    H5G12198   2.662   0.702  10.335 -0.3795 -1.0905  0.1612
  116OSM    C6F12199   2.686   0.488  10.360 -0.2547  0.1208 -0.0171
  116OSM    H6F12200   2.587   0.467  10.406 -0.2202  0.3978  0.1832
  116OSM    H6G12201   2.766   0.416  10.389 -0.1137  0.6368  0.8796
  116OSM    C7F12202   2.667   0.457  10.210  0.1585 -0.8126 -0.3478
  116OSM    H7F12203   2.757   0.496  10.156 -1.3812  2.8210 -0.4276
  116OSM    H7G12204   2.581   0.507  10.161  0.7584  0.5518 -0.0384
  116OSM    C8F12205   2.670   0.305  10.181  0.5009 -0.0894  0.1624
  116OSM    H8F12206   2.758   0.255  10.225  1.1492  0.2596 -0.7178
  116OSM    H8G12207   2.692   0.300  10.072  1.3129 -0.1974  0.3321
  116OSM    C9F12208   2.544   0.223  10.230 -0.7748 -0.4999  0.0424
  116OSM    H9F12209   2.547   0.185  10.333  0.6649 -0.1117  0.1600
  116OSM   C10F12210   2.432   0.211  10.157 -0.5503 -0.2375 -0.6607
  116OSM   H10F12211   2.343   0.170  10.208 -0.0390 -1.9335 -1.1210
  116OSM   C11F12212   2.410   0.283  10.023 -0.6529 -0.2949  0.3783
  116OSM   H11F12213   2.463   0.380  10.017 -1.7962  0.3808  0.9950
  116OSM   H11G12214   2.305   0.317  10.026 -0.0158  1.7369  0.4447
  116OSM   C12F12215   2.432   0.185   9.913 -0.4858 -0.0178 -0.4825
  116OSM   H12F12216   2.372   0.094   9.935 -0.8823  0.6746  1.4108
  116OSM   H12G12217   2.538   0.152   9.920  0.0117  1.3240 -1.3307
  116OSM   C13F12218   2.402   0.237   9.771 -0.1845  0.3427  0.4312
  116OSM   H13F12219   2.476   0.314   9.741 -0.3238 -0.1800 -1.2895
  116OSM   H13G12220   2.301   0.285   9.763 -1.7052 -2.6339  1.1788
  116OSM   C14F12221   2.410   0.129   9.658  0.3491  0.1029 -0.6174
  116OSM   H14F12222   2.353   0.040   9.693  1.6804 -0.6146 -0.2351
  116OSM   H14G12223   2.515   0.094   9.642 -0.7748 -2.9214 -1.7255
  116OSM   C15F12224   2.343   0.190   9.533  0.3542  0.3171  1.1674
  116OSM   H15F12225   2.395   0.287   9.518 -3.3202  2.1186 -0.5122
  116OSM   H15G12226   2.245   0.228   9.568 -1.6100 -1.4198 -2.1995
  116OSM   C16F12227   2.333   0.104   9.406  0.0642 -0.1916 -0.4081
  116OSM   H16F12228   2.281   0.015   9.447  0.1369 -0.5351 -1.0590
  116OSM   H16G12229   2.431   0.071   9.367  0.8662  0.1080  1.2890
  116OSM   C17F12230   2.240   0.166   9.299 -0.1902 -0.1084  0.0033
  116OSM   H17F12231   2.221   0.089   9.221 -0.7235 -0.8962  0.8992
  116OSM   H17G12232   2.296   0.250   9.253  0.1602 -0.3363  0.0172
  116OSM   C18F12233   2.102   0.225   9.342  0.3442 -0.7773 -0.1529
  116OSM   H18F12234   2.060   0.268   9.248  0.1701  1.9707  1.1193
  116OSM   H18G12235   2.109   0.308   9.416  0.0565 -2.2002  1.5126
  116OSM   H18H12236   2.038   0.141   9.378  0.7058 -0.5220  1.1281
  117OSM      N12237   0.098   1.615  11.250 -0.2404  0.2821  0.1916
  117OSM    C1512238   0.012   1.720  11.318  0.0167  0.4766 -0.0652
  117OSM   H15A12239  -0.000   1.807  11.255 -2.0794  1.6033  1.8597
  117OSM   H15B12240   0.064   1.748  11.409  0.3742  0.2145 -0.1859
  117OSM   H15C12241  -0.080   1.675  11.349  0.5023 -0.5677 -0.1231
  117OSM    C1412242   0.240   1.664  11.265  0.0556 -0.6889  0.2645
  117OSM   H14A12243   0.256   1.693  11.368 -1.4928 -2.5124  1.0644
  117OSM   H14B12244   0.267   1.751  11.207  0.9345 -1.8257 -1.0643
  117OSM   H14C12245   0.306   1.586  11.229  0.8172  0.2647 -0.4227
  117OSM    C1312246   0.084   1.488  11.333 -0.4137 -0.2901 -0.2985
  117OSM   H13A12247   0.085   1.496  11.441  0.1401 -1.7586 -0.1804
  117OSM   H13B12248   0.152   1.410  11.303 -1.1871 -0.3502 -1.9032
  117OSM   H13C12249  -0.016   1.451  11.319  0.1213 -1.6647 -0.5434
  117OSM    C1212250   0.074   1.602  11.100 -0.7382  0.6087  0.2183
  117OSM   H12A12251   0.072   1.701  11.057  0.4012 -0.0841 -1.5066
  117OSM   H12B12252  -0.024   1.559  11.087  0.1753 -1.7892  0.9621
  117OSM    C1112253   0.184   1.532  11.018 -0.1003  0.1083 -0.4976
  117OSM   H11A12254   0.269   1.597  10.987 -0.2088 -0.0601 -1.1584
  117OSM   H11B12255   0.129   1.515  10.923 -1.3243 -0.7745  0.3531
  117OSM      P12256   0.187   1.270  11.036 -0.1004  0.0257  0.0659
  117OSM    O1312257   0.258   1.168  11.111 -0.2273  0.6157  0.2189
  117OSM    O1412258   0.040   1.261  11.032 -0.3090  0.7417 -0.0029
  117OSM    O1112259   0.234   1.263  10.883  0.4795  0.1143  0.6964
  117OSM    O1212260   0.234   1.416  11.081 -0.2976 -0.1628 -1.0389
  117OSM    C1S12261   0.359   1.303  10.843 -0.4561 -0.3454  1.0587
  117OSM    H1S12262   0.438   1.255  10.906  1.9335  0.1292 -1.4615
  117OSM    H1T12263   0.377   1.412  10.852  3.7076 -0.7755 -0.7460
  117OSM     NF12264   0.518   1.303  10.651  0.4291  0.2142  0.1693
  117OSM    HNF12265   0.534   1.392  10.608 -0.2751 -0.3998 -1.4220
  117OSM    C2S12266   0.386   1.270  10.690 -0.0620  0.4139 -1.5971
  117OSM    H2S12267   0.369   1.161  10.675 -2.6461  0.8452 -2.1340
  117OSM    C3S12268   0.279   1.339  10.600  0.3245  0.5563  0.1692
  117OSM    H3S12269   0.285   1.448  10.618 -0.8410  0.8548 -1.2397
  117OSM     O312270   0.143   1.312  10.638 -0.4238 -0.1299 -0.1936
  117OSM    HO312271   0.161   1.291  10.730  1.0221  0.2398 -0.3778
  117OSM    C4S12272   0.300   1.313  10.455  0.1231  0.2264 -0.1308
  117OSM    H4S12273   0.394   1.361  10.423 -1.4641  2.0104 -2.2490
  117OSM    C5S12274   0.228   1.241  10.366 -0.2890  1.2468  0.9309
  117OSM    H5S12275   0.153   1.171  10.407 -0.4467 -0.2693 -1.8143
  117OSM    C6S12276   0.261   1.217  10.217  0.1021  0.2708  0.1277
  117OSM    H6S12277   0.174   1.166  10.170  1.3868  0.2750 -2.3087
  117OSM    H6T12278   0.342   1.141  10.218  2.0653  2.3270 -0.7206
  117OSM    C7S12279   0.307   1.346  10.134  0.1044  0.9477 -0.7209
  117OSM    H7S12280   0.387   1.402  10.189  2.0174 -0.5746 -1.9050
  117OSM    H7T12281   0.223   1.418  10.126  0.4654  1.8238  2.5809
  117OSM    C8S12282   0.347   1.309   9.990  1.3472 -0.9266 -0.3025
  117OSM    H8S12283   0.268   1.252   9.938 -1.5283  0.4771  2.3410
  117OSM    H8T12284   0.431   1.236   9.992  0.6781 -1.9083 -4.3915
  117OSM    C9S12285   0.397   1.427   9.910  0.6022 -0.0114  0.0658
  117OSM    H9S12286   0.482   1.475   9.963  0.1056 -0.8842  1.6958
  117OSM    H9T12287   0.313   1.499   9.898 -1.5294 -1.9479  2.6463
  117OSM   C10S12288   0.456   1.389   9.770  0.1387  0.4311  0.4060
  117OSM   H10S12289   0.542   1.318   9.778 -0.1339  0.1814  1.1698
  117OSM   H10T12290   0.497   1.485   9.732  0.6634  0.9168  2.1546
  117OSM   C11S12291   0.342   1.339   9.674  0.4106 -0.1193  0.3389
  117OSM   H11S12292   0.254   1.403   9.695  0.0465 -0.7277  0.6715
  117OSM   H11T12293   0.322   1.234   9.704  0.7433  0.1814  1.6749
  117OSM   C12S12294   0.394   1.333   9.531 -0.4333 -0.1804 -0.2038
  117OSM   H12S12295   0.473   1.255   9.527 -0.6553 -0.5881  2.1981
  117OSM   H12T12296   0.443   1.425   9.493 -1.1033 -0.2065 -1.1304
  117OSM   C13S12297   0.283   1.304   9.435  0.4147  0.8576  0.0661
  117OSM   H13S12298   0.197   1.375   9.434 -0.1766  0.1692  0.9028
  117OSM   H13T12299   0.229   1.214   9.472  0.6572  0.1307 -1.3198
  117OSM   C14S12300   0.323   1.289   9.285 -0.4288  0.2470  0.3223
  117OSM   H14S12301   0.251   1.224   9.231  0.2526  1.4099 -2.0254
  117OSM   H14T12302   0.413   1.223   9.295 -0.3375  0.4193  0.6629
  117OSM   C15S12303   0.364   1.419   9.216 -0.4575 -0.4247  0.3399
  117OSM   H15S12304   0.435   1.467   9.287  0.5060  0.8235 -1.4210
  117OSM   H15T12305   0.271   1.480   9.211 -0.0356  0.2505  0.6246
  117OSM   C16S12306   0.430   1.399   9.075  0.6028 -0.5868 -0.3059
  117OSM   H16S12307   0.364   1.336   9.012  0.0152 -2.0594  1.7007
  117OSM   H16T12308   0.516   1.329   9.091  0.2572 -0.5330  1.9139
  117OSM   C17S12309   0.472   1.529   9.001  0.5249 -0.3935  0.7354
  117OSM   H17S12310   0.399   1.610   9.017  1.5779  0.7198 -0.0377
  117OSM   H17T12311   0.479   1.512   8.891  2.3202 -1.9784  1.0557
  117OSM   C18S12312   0.602   1.590   9.052  0.3860  0.4890 -0.3821
  117OSM   H18S12313   0.622   1.687   9.001  0.3916  1.0087  0.5876
  117OSM   H18T12314   0.690   1.526   9.031  1.2524  1.1084  1.2557
  117OSM   H18U12315   0.598   1.598   9.163  0.3362 -0.8995 -0.2722
  117OSM    C1F12316   0.626   1.230  10.686  0.2031 -0.1832 -0.7137
  117OSM     OF12317   0.621   1.124  10.747  0.1666  0.1116  0.7908
  117OSM    C2F12318   0.748   1.306  10.658  0.0870  0.5391 -0.3056
  117OSM    H2F12319   0.816   1.319  10.745  2.7076 -0.0679 -2.2314
  117OSM    H2G12320   0.708   1.406  10.629  1.4032  1.6026  1.4472
  117OSM    C3F12321   0.808   1.247  10.532 -0.1637 -0.2003 -0.5185
  117OSM    H3F12322   0.826   1.139  10.549 -0.5854 -0.2863 -0.6180
  117OSM    H3G12323   0.898   1.306  10.502 -1.3165  0.8332 -2.0226
  117OSM    C4F12324   0.720   1.262  10.403 -0.2088 -0.6680  0.2023
  117OSM    H4F12325   0.684   1.365  10.384 -1.9508 -0.9546  1.7571
  117OSM    H4G12326   0.626   1.204  10.418  0.8252 -2.5176 -0.3724
  117OSM    C5F12327   0.794   1.222  10.279 -0.5394  0.4568 -0.3022
  117OSM    H5F12328   0.842   1.124  10.300  0.9285  0.9471 -1.2791
  117OSM    H5G12329   0.872   1.298  10.255  0.1051 -0.2348 -0.4138
  117OSM    C6F12330   0.699   1.202  10.159  0.7158 -0.0307  0.3566
  117OSM    H6F12331   0.671   1.302  10.120 -1.9544 -0.4707  1.0475
  117OSM    H6G12332   0.606   1.154  10.198 -0.0371  1.3449  0.2922
  117OSM    C7F12333   0.766   1.120  10.057  0.0493  0.0556 -0.8990
  117OSM    H7F12334   0.760   1.013  10.084 -0.0953  0.4807  0.7830
  117OSM    H7G12335   0.875   1.136  10.042 -0.1498  1.7288 -0.6568
  117OSM    C8F12336   0.706   1.140   9.921 -0.1456  0.2466 -0.4194
  117OSM    H8F12337   0.737   1.243   9.895 -2.9757  1.2832  0.1669
  117OSM    H8G12338   0.595   1.139   9.928 -0.1166 -1.7726  0.0711
  117OSM    C9F12339   0.738   1.041   9.824 -0.3922 -0.3330 -0.0279
  117OSM    H9F12340   0.735   0.942   9.873 -2.0099  0.7857  2.2804
  117OSM   C10F12341   0.795   1.053   9.699  0.2946  0.4827 -0.4382
  117OSM   H10F12342   0.812   0.958   9.645  0.8164  0.1632  0.2837
  117OSM   C11F12343   0.824   1.188   9.629  0.3054 -0.5261 -0.4177
  117OSM   H11F12344   0.873   1.258   9.700 -0.1381 -1.1611  0.5309
  117OSM   H11G12345   0.729   1.240   9.603 -0.5114 -2.3342 -1.1071
  117OSM   C12F12346   0.903   1.173   9.500  0.2920 -0.0223 -0.7126
  117OSM   H12F12347   0.989   1.104   9.510 -0.5215 -1.1877 -1.5436
  117OSM   H12G12348   0.927   1.277   9.470 -2.8866  0.2561 -2.5283
  117OSM   C13F12349   0.800   1.119   9.396  0.0739 -0.4427  0.2719
  117OSM   H13F12350   0.697   1.114   9.439  0.5098 -0.5558  1.3139
  117OSM   H13G12351   0.838   1.018   9.369 -1.4860 -0.9565 -0.0370
  117OSM   C14F12352   0.801   1.192   9.261  0.1081  0.2676  0.3739
  117OSM   H14F12353   0.758   1.293   9.273  0.9965  0.5234  1.5227
  117OSM   H14G12354   0.721   1.152   9.195 -0.6641  1.9916  0.2425
  117OSM   C15F12355   0.947   1.188   9.196  0.6695 -0.2040  0.4840
  117OSM   H15F12356   1.006   1.099   9.223  0.9474 -0.5153 -1.1154
  117OSM   H15G12357   1.004   1.279   9.226  0.2456  0.2106  0.0571
  117OSM   C16F12358   0.946   1.188   9.043  0.2551  0.2457  0.8261
  117OSM   H16F12359   0.904   1.097   8.995  1.3103  0.9647 -1.5313
  117OSM   H16G12360   1.051   1.197   9.008  0.3043 -0.2955  0.8360
  117OSM   C17F12361   0.868   1.308   8.985  0.0109 -0.0386  0.4607
  117OSM   H17F12362   0.904   1.399   9.036  1.2166 -0.7295  0.8622
  117OSM   H17G12363   0.759   1.308   9.009 -0.2591 -0.2296 -0.7045
  117OSM   C18F12364   0.885   1.325   8.840 -0.3254 -0.4499  0.4058
  117OSM   H18F12365   0.842   1.418   8.798  0.7284 -1.8600 -4.1650
  117OSM   H18G12366   0.835   1.246   8.780  1.1831 -0.1955 -1.2298
  117OSM   H18H12367   0.993   1.325   8.813 -1.1211  1.1297 -3.1285
  118OSM      N12368   0.797   2.274  11.205  0.1626 -0.4952 -0.1794
  118OSM    C1512369   0.945   2.293  11.204 -0.4148 -0.4652  0.0871
  118OSM   H15A12370   1.006   2.233  11.139 -0.4465  2.7692 -3.0791
  118OSM   H15B12371   0.975   2.294  11.308  1.6953 -1.2577 -0.4815
  118OSM   H15C12372   0.957   2.395  11.168 -0.9409 -0.3544  0.2278
  118OSM    C1412373   0.779   2.136  11.259  0.0496  0.3544  0.2296
  118OSM   H14A12374   0.673   2.130  11.282  0.2071 -0.2079  0.8148
  118OSM   H14B12375   0.841   2.122  11.346  0.9757  4.1110  0.2577
  118OSM   H14C12376   0.806   2.065  11.182 -2.0336  0.7420 -0.9145
  118OSM    C1312377   0.739   2.380  11.287  0.7304 -0.0871 -0.0984
  118OSM   H13A12378   0.784   2.477  11.272  1.3021 -0.5756 -1.6467
  118OSM   H13B12379   0.745   2.351  11.391 -0.0695  1.3974  0.3739
  118OSM   H13C12380   0.633   2.375  11.267  0.2095 -0.3145  2.5067
  118OSM    C1212381   0.760   2.286  11.064  0.2346  0.2655 -0.6215
  118OSM   H12A12382   0.787   2.199  11.005  1.1054  1.2641 -1.7077
  118OSM   H12B12383   0.806   2.376  11.026  1.5379 -0.3730 -0.5888
  118OSM    C1112384   0.607   2.291  11.031  0.7712 -0.1377 -0.1562
  118OSM   H11A12385   0.562   2.201  11.077 -0.1176 -0.0461 -0.8497
  118OSM   H11B12386   0.602   2.282  10.920 -2.2234 -0.2145 -0.0478
  118OSM      P12387   0.387   2.420  11.038 -0.0574  0.1679  0.9566
  118OSM    O1312388   0.333   2.285  11.020  0.2638  0.0161  0.0331
  118OSM    O1412389   0.314   2.505  11.130 -0.0237 -0.1884 -0.2978
  118OSM    O1112390   0.395   2.488  10.894 -0.5183  0.0938  0.2353
  118OSM    O1212391   0.540   2.412  11.079  0.7039  0.1607 -1.0015
  118OSM    C1S12392   0.425   2.633  10.891  0.0059 -0.2008 -0.3801
  118OSM    H1S12393   0.528   2.652  10.926 -0.0610  1.5128 -1.0766
  118OSM    H1T12394   0.351   2.701  10.937  1.0884  2.2984 -2.2008
  118OSM     NF12395   0.509   2.796  10.716  0.5771  0.3841  0.0935
  118OSM    HNF12396   0.455   2.869  10.675 -0.8582 -1.0539 -0.6425
  118OSM    C2S12397   0.428   2.674  10.738 -0.2749  0.1757 -0.2739
  118OSM    H2S12398   0.479   2.593  10.682 -1.3325 -0.0584 -0.9214
  118OSM    C3S12399   0.280   2.687  10.687  0.7263 -0.1628 -0.6355
  118OSM    H3S12400   0.235   2.784  10.720  2.0584  0.6666 -1.1926
  118OSM     O312401   0.190   2.590  10.739  0.0816  0.2774 -0.3448
  118OSM    HO312402   0.236   2.530  10.797 -2.0592 -2.4122 -1.2760
  118OSM    C4S12403   0.280   2.686  10.540 -0.1101  0.2308 -0.1261
  118OSM    H4S12404   0.311   2.785  10.504  0.9736  0.1243  0.5235
  118OSM    C5S12405   0.237   2.591  10.454  0.0367 -0.3571  0.7533
  118OSM    H5S12406   0.181   2.507  10.496  0.2732 -0.4478  0.8823
  118OSM    C6S12407   0.230   2.604  10.302  0.2192 -0.2747  0.5924
  118OSM    H6S12408   0.132   2.562  10.270  0.7274 -1.2008  0.2263
  118OSM    H6T12409   0.310   2.557  10.241 -1.5731  2.0674 -3.7482
  118OSM    C7S12410   0.229   2.748  10.248 -0.0179  0.4930 -0.0250
  118OSM    H7S12411   0.306   2.809  10.298 -0.6581  0.3081  1.1897
  118OSM    H7T12412   0.128   2.792  10.259 -0.1146  0.1503  0.4877
  118OSM    C8S12413   0.264   2.759  10.099 -0.0647  0.2115 -0.0855
  118OSM    H8S12414   0.365   2.716  10.089  0.6501  1.9084 -0.4227
  118OSM    H8T12415   0.268   2.867  10.071  0.0432  0.0991 -0.5018
  118OSM    C9S12416   0.182   2.681   9.997 -0.8070  0.6131 -0.2433
  118OSM    H9S12417   0.077   2.710  10.017 -1.0199 -0.0570 -0.3693
  118OSM    H9T12418   0.185   2.571  10.012  1.4958  0.0018 -4.4225
  118OSM   C10S12419   0.221   2.701   9.847  0.3363  0.3000  0.3670
  118OSM   H10S12420   0.326   2.664   9.848  1.2302  2.6659 -1.7427
  118OSM   H10T12421   0.213   2.810   9.830 -1.0764  0.3114  1.0412
  118OSM   C11S12422   0.140   2.617   9.746 -0.3315 -0.7698 -0.0433
  118OSM   H11S12423   0.044   2.667   9.725  1.3928  1.7201 -2.3698
  118OSM   H11T12424   0.131   2.509   9.770  0.6815 -0.8992 -0.2265
  118OSM   C12S12425   0.217   2.604   9.617  0.1212 -0.0414  0.3387
  118OSM   H12S12426   0.295   2.525   9.630 -0.6551 -0.5929  1.8112
  118OSM   H12T12427   0.269   2.699   9.594  1.0777  0.0795  2.8356
  118OSM   C13S12428   0.113   2.574   9.506  0.1663 -0.2517 -0.5711
  118OSM   H13S12429   0.078   2.673   9.472 -0.7180 -0.5309 -0.4764
  118OSM   H13T12430   0.035   2.521   9.565  0.5382  1.8503  1.9117
  118OSM   C14S12431   0.164   2.495   9.383  0.0698  0.0635  0.1571
  118OSM   H14S12432   0.249   2.539   9.327 -0.5647  2.7904  1.2265
  118OSM   H14T12433   0.081   2.479   9.310  0.2723  0.4361 -0.1565
  118OSM   C15S12434   0.198   2.347   9.429  0.2022  0.4840  1.1083
  118OSM   H15S12435   0.103   2.317   9.479  0.3240 -1.9814 -0.0545
  118OSM   H15T12436   0.275   2.359   9.508 -0.0987  2.7960  1.0770
  118OSM   C16S12437   0.223   2.247   9.311 -0.5962  0.2071 -0.2929
  118OSM   H16S12438   0.122   2.233   9.267 -0.1040 -0.5843 -1.1925
  118OSM   H16T12439   0.260   2.149   9.349 -0.9909 -0.5086 -1.7351
  118OSM   C17S12440   0.319   2.310   9.210 -0.2267  0.1337 -0.1827
  118OSM   H17S12441   0.274   2.400   9.164 -0.9863 -1.3908 -2.5008
  118OSM   H17T12442   0.334   2.247   9.120 -0.2177 -1.9656  1.2371
  118OSM   C18S12443   0.462   2.333   9.261 -0.0700 -0.0507 -0.6064
  118OSM   H18S12444   0.508   2.242   9.305  0.6657  1.0730  1.0070
  118OSM   H18T12445   0.464   2.407   9.345  0.8855  0.2637 -0.8980
  118OSM   H18U12446   0.526   2.369   9.178 -1.8520 -0.2444 -2.1054
  118OSM    C1F12447   0.635   2.805  10.751  0.0605  0.0479  0.3743
  118OSM     OF12448   0.697   2.708  10.782 -0.0121  0.2424  0.6864
  118OSM    C2F12449   0.689   2.944  10.744 -0.1527  0.5237 -0.3028
  118OSM    H2F12450   0.714   2.967  10.850 -0.7796  3.0134 -0.6668
  118OSM    H2G12451   0.603   3.012  10.726 -0.2298 -0.1232 -2.5631
  118OSM    C3F12452   0.790   2.962  10.632  0.5402 -0.8451 -0.0491
  118OSM    H3F12453   0.742   2.949  10.532  0.0479 -1.5805  0.2774
  118OSM    H3G12454   0.868   2.883  10.640  0.8168 -0.6936 -1.1641
  118OSM    C4F12455   0.869   3.094  10.633  0.1656  0.2312  0.1131
  118OSM    H4F12456   0.951   3.092  10.558 -1.5716  3.1783 -1.9969
  118OSM    H4G12457   0.919   3.117  10.729  2.6065 -1.2449 -0.7532
  118OSM    C5F12458   0.771   3.217  10.606  0.1686 -0.5006 -0.2416
  118OSM    H5F12459   0.707   3.210  10.696  0.2562  4.8926  0.4043
  118OSM    H5G12460   0.695   3.187  10.530 -0.1975  1.1185 -0.5395
  118OSM    C6F12461   0.846   3.350  10.589 -0.4393 -0.0784  0.5095
  118OSM    H6F12462   0.913   3.346  10.501 -1.2415 -0.0664 -0.0993
  118OSM    H6G12463   0.911   3.362  10.679 -1.3699 -2.7935  1.5802
  118OSM    C7F12464   0.754   3.467  10.594 -0.7876  0.1762 -0.8724
  118OSM    H7F12465   0.801   3.540  10.664  1.5703 -0.2727 -1.9164
  118OSM    H7G12466   0.654   3.435  10.629  0.0417 -2.3161 -0.6616
  118OSM    C8F12467   0.710   3.516  10.460  0.1848  0.1437  0.6151
  118OSM    H8F12468   0.626   3.588  10.453 -0.4316 -0.5365  0.8859
  118OSM    H8G12469   0.672   3.427  10.405 -0.5558 -0.0223  1.3816
  118OSM    C9F12470   0.824   3.574  10.388  0.0473  0.1451  0.8375
  118OSM    H9F12471   0.892   3.638  10.446 -0.6477  0.7142  1.0183
  118OSM   C10F12472   0.857   3.552  10.253  0.0232 -0.1721 -0.3093
  118OSM   H10F12473   0.948   3.597  10.210 -0.3792 -0.7046 -1.7484
  118OSM   C11F12474   0.765   3.475  10.167  0.2797  0.2167  0.9097
  118OSM   H11F12475   0.659   3.511  10.161 -0.3556 -1.8468 -0.9696
  118OSM   H11G12476   0.744   3.369  10.189  0.0883  0.3320  1.2792
  118OSM   C12F12477   0.835   3.480  10.028  0.4239 -0.4254  0.4600
  118OSM   H12F12478   0.934   3.433  10.046 -0.3151 -1.5374  1.7125
  118OSM   H12G12479   0.859   3.586  10.003 -1.9888 -0.3069 -1.5625
  118OSM   C13F12480   0.776   3.401   9.912  0.0754  0.8689 -0.4519
  118OSM   H13F12481   0.673   3.432   9.886  0.2509  0.1096 -2.1340
  118OSM   H13G12482   0.767   3.295   9.945  0.8616  1.7195  2.6617
  118OSM   C14F12483   0.845   3.415   9.773  0.2444 -0.0125 -0.1013
  118OSM   H14F12484   0.944   3.363   9.781  0.8455  0.4753 -3.7353
  118OSM   H14G12485   0.865   3.524   9.770  2.5433 -0.3339  1.4162
  118OSM   C15F12486   0.784   3.362   9.643  0.7779  0.0516  0.0353
  118OSM   H15F12487   0.688   3.418   9.642  0.8932  0.2391 -0.5669
  118OSM   H15G12488   0.762   3.253   9.655 -3.0040  0.5835 -1.2841
  118OSM   C16F12489   0.874   3.389   9.520  0.4913  0.6297  0.9231
  118OSM   H16F12490   0.973   3.354   9.558 -0.1091 -2.3038 -0.1371
  118OSM   H16G12491   0.896   3.492   9.483  0.0364  0.1533 -0.6851
  118OSM   C17F12492   0.837   3.292   9.393  0.3196 -0.2606 -0.1381
  118OSM   H17F12493   0.734   3.328   9.373  1.0855  1.5164 -1.0008
  118OSM   H17G12494   0.823   3.185   9.420 -1.8002 -0.3772 -1.5922
  118OSM   C18F12495   0.930   3.319   9.273 -0.2628  0.4529 -0.1266
  118OSM   H18F12496   0.888   3.406   9.218 -1.3223  0.4437  0.6550
  118OSM   H18G12497   0.927   3.233   9.204 -0.4224  1.9506 -2.0454
  118OSM   H18H12498   1.035   3.329   9.309 -0.6149  2.4233  0.4265
  119OSM      N12499   1.693   1.942  11.343 -0.5635 -0.3213  0.0613
  119OSM    C1512500   1.565   1.971  11.418 -0.4906 -0.3034  0.8238
  119OSM   H15A12501   1.490   1.895  11.403 -0.2242 -0.7806  1.8140
  119OSM   H15B12502   1.519   2.064  11.386 -0.0638 -0.1871  0.5528
  119OSM   H15C12503   1.575   1.982  11.525  0.0104 -0.9725  0.8451
  119OSM    C1412504   1.794   2.046  11.364  0.6354  0.5001  0.3200
  119OSM   H14A12505   1.882   2.031  11.303 -0.4675  1.0110 -1.4152
  119OSM   H14B12506   1.828   2.049  11.467  0.4148 -1.0913  0.4487
  119OSM   H14C12507   1.754   2.144  11.341  1.2805  0.3543 -1.4862
  119OSM    C1312508   1.751   1.822  11.411  0.3159 -1.1505 -0.3801
  119OSM   H13A12509   1.854   1.812  11.378  1.3788 -0.3842  2.5282
  119OSM   H13B12510   1.690   1.737  11.386 -3.3386  1.1746  0.2801
  119OSM   H13C12511   1.758   1.828  11.519  0.8212  2.7446 -0.5511
  119OSM    C1212512   1.657   1.924  11.199 -0.0165  0.3318 -0.2263
  119OSM   H12A12513   1.744   1.894  11.144  0.0816  1.0354 -0.4637
  119OSM   H12B12514   1.618   2.018  11.163 -0.2080  0.3379 -0.0052
  119OSM    C1112515   1.537   1.831  11.167 -0.0638 -0.0467  0.4887
  119OSM   H11A12516   1.522   1.839  11.057 -1.3423 -0.6482  0.6081
  119OSM   H11B12517   1.447   1.878  11.214 -0.0296 -1.3719  1.9260
  119OSM      P12518   1.624   1.589  11.122 -0.2771 -0.0170 -0.3676
  119OSM    O1312519   1.768   1.617  11.142  0.3523  0.4786 -0.0288
  119OSM    O1412520   1.568   1.447  11.146 -0.5158 -0.2973  0.2254
  119OSM    O1112521   1.602   1.636  10.971 -0.7866 -0.9630 -0.3071
  119OSM    O1212522   1.544   1.697  11.206 -0.0189 -0.4237  0.0440
  119OSM    C1S12523   1.485   1.588  10.904 -0.0120 -1.0093  0.3058
  119OSM    H1S12524   1.395   1.645  10.935 -0.0801 -0.2229 -1.3100
  119OSM    H1T12525   1.471   1.478  10.916  1.8535 -1.4523 -1.4386
  119OSM     NF12526   1.393   1.551  10.669  0.0707  0.3299 -0.5635
  119OSM    HNF12527   1.413   1.464  10.625  0.6470  0.8229 -1.2737
  119OSM    C2S12528   1.501   1.600  10.747  0.2643  0.0746  0.2479
  119OSM    H2S12529   1.511   1.708  10.724 -1.2624  0.3337  0.6924
  119OSM    C3S12530   1.632   1.538  10.698  0.2422 -0.1716  0.4316
  119OSM    H3S12531   1.639   1.433  10.736 -0.8277 -1.9375 -3.8750
  119OSM     O312532   1.748   1.601  10.752 -0.2164  0.1240  0.2226
  119OSM    HO312533   1.719   1.665  10.817  1.5724  2.3382 -1.1087
  119OSM    C4S12534   1.644   1.538  10.546  0.1773  0.2339 -0.0749
  119OSM    H4S12535   1.683   1.629  10.498  0.2304  1.2907  1.8913
  119OSM    C5S12536   1.626   1.426  10.475 -0.2598  0.5146  1.0440
  119OSM    H5S12537   1.617   1.335  10.537  1.2737  1.0231  2.0704
  119OSM    C6S12538   1.624   1.418  10.322  0.2303  0.3147 -0.4235
  119OSM    H6S12539   1.525   1.376  10.295 -1.2226  2.0644  1.9521
  119OSM    H6T12540   1.698   1.346  10.281  1.0244  1.1691 -0.5088
  119OSM    C7S12541   1.641   1.549  10.244  0.2040 -0.1325  0.2026
  119OSM    H7S12542   1.737   1.593  10.277  0.4332  0.5124 -1.2568
  119OSM    H7T12543   1.559   1.618  10.274  1.3050  3.0039 -3.4490
  119OSM    C8S12544   1.629   1.521  10.088  0.0378 -0.2599  0.4537
  119OSM    H8S12545   1.519   1.510  10.073 -0.1837  2.3669 -0.0010
  119OSM    H8T12546   1.685   1.427  10.068  3.3689  1.0218  3.1602
  119OSM    C9S12547   1.681   1.634  10.003 -0.3398 -0.5857 -0.5367
  119OSM    H9S12548   1.787   1.653  10.030  0.2250 -1.6870 -1.9093
  119OSM    H9T12549   1.617   1.724  10.016  0.0555 -0.2711 -0.7529
  119OSM   C10S12550   1.676   1.605   9.854 -0.3360 -0.3198 -0.4374
  119OSM   H10S12551   1.687   1.703   9.803  1.3901  0.1766  0.8325
  119OSM   H10T12552   1.577   1.561   9.832 -1.0288  0.8018  0.4357
  119OSM   C11S12553   1.789   1.525   9.808  0.0824 -0.2276  0.1473
  119OSM   H11S12554   1.820   1.451   9.884  3.1556  2.1685  1.3533
  119OSM   H11T12555   1.880   1.589   9.799 -0.3546  0.5418  1.0490
  119OSM   C12S12556   1.765   1.453   9.670  0.0879  0.3600  0.3548
  119OSM   H12S12557   1.661   1.416   9.663  0.6137 -1.1069  0.0868
  119OSM   H12T12558   1.832   1.365   9.662  1.0751  1.2864 -2.1322
  119OSM   C13S12559   1.790   1.530   9.537  0.3319  0.3555  0.8340
  119OSM   H13S12560   1.897   1.518   9.511  0.3523  0.7132  0.7512
  119OSM   H13T12561   1.758   1.634   9.561  1.6344  0.7378  0.9234
  119OSM   C14S12562   1.707   1.469   9.425 -0.4959 -0.1250  0.0452
  119OSM   H14S12563   1.598   1.468   9.446 -0.4628 -1.3529  0.1919
  119OSM   H14T12564   1.739   1.362   9.426 -0.7546 -0.2294 -1.8177
  119OSM   C15S12565   1.730   1.530   9.292 -0.1821 -0.0862 -0.4064
  119OSM   H15S12566   1.834   1.567   9.282 -0.7142  0.8736 -2.7597
  119OSM   H15T12567   1.681   1.630   9.298 -1.1196 -0.5775  0.2575
  119OSM   C16S12568   1.707   1.434   9.176 -0.3119 -0.2165  0.2649
  119OSM   H16S12569   1.600   1.429   9.149 -0.2210  1.4164 -0.4769
  119OSM   H16T12570   1.739   1.330   9.200 -2.9922 -1.1255  0.0536
  119OSM   C17S12571   1.775   1.491   9.050 -0.2407 -0.3981  0.5597
  119OSM   H17S12572   1.880   1.521   9.069  0.1615 -0.2310 -1.7686
  119OSM   H17T12573   1.732   1.586   9.013  2.2873  0.5958  0.0626
  119OSM   C18S12574   1.794   1.382   8.948 -0.9190  0.3341 -0.3130
  119OSM   H18S12575   1.840   1.288   8.988  0.3515  1.5704  1.2118
  119OSM   H18T12576   1.862   1.418   8.868  0.6302 -4.2930 -1.2633
  119OSM   H18U12577   1.691   1.366   8.911 -0.7353  1.4135 -1.3082
  119OSM    C1F12578   1.274   1.606  10.675  0.5524 -0.2054 -0.7786
  119OSM     OF12579   1.258   1.712  10.728  0.1298  0.0310  0.3816
  119OSM    C2F12580   1.163   1.522  10.633  0.3184  0.3574 -0.6981
  119OSM    H2F12581   1.102   1.494  10.722 -0.6990 -0.6307 -1.6974
  119OSM    H2G12582   1.199   1.423  10.598 -1.1173  0.0991 -1.4832
  119OSM    C3F12583   1.073   1.587  10.528 -0.0604 -0.5298 -0.0124
  119OSM    H3F12584   1.020   1.668  10.581  0.0153  0.0681 -0.8478
  119OSM    H3G12585   0.991   1.520  10.497 -1.0122  0.0440  1.2578
  119OSM    C4F12586   1.143   1.649  10.411 -0.2645  0.7590 -0.4827
  119OSM    H4F12587   1.231   1.714  10.434  1.1883 -1.4470  0.3359
  119OSM    H4G12588   1.072   1.719  10.362 -0.6182  0.0163 -1.0296
  119OSM    C5F12589   1.197   1.547  10.309  0.2631 -0.3145  0.4044
  119OSM    H5F12590   1.121   1.466  10.297  0.0545 -0.1732  0.7781
  119OSM    H5G12591   1.296   1.506  10.337  0.8712  2.7345  2.9465
  119OSM    C6F12592   1.222   1.625  10.176  0.1035  0.2476 -0.2316
  119OSM    H6F12593   1.318   1.681  10.183  2.8089 -3.6947 -3.4734
  119OSM    H6G12594   1.144   1.703  10.167  0.0169  0.1322 -0.4733
  119OSM    C7F12595   1.227   1.534  10.060 -0.5223  0.0176  0.4816
  119OSM    H7F12596   1.123   1.505  10.036 -0.3192 -1.5268  1.4046
  119OSM    H7G12597   1.293   1.447  10.082  1.3228  1.6942  1.7567
  119OSM    C8F12598   1.282   1.600   9.932 -0.1274 -0.4266  0.1570
  119OSM    H8F12599   1.387   1.630   9.954 -0.3842  0.0894  0.6842
  119OSM    H8G12600   1.237   1.701   9.922  1.2567  0.1697 -0.2473
  119OSM    C9F12601   1.279   1.525   9.804  0.3074 -0.5610 -0.1275
  119OSM    H9F12602   1.293   1.416   9.808  1.4856 -0.3675  1.7645
  119OSM   C10F12603   1.252   1.571   9.679  0.1401 -0.9021 -0.0464
  119OSM   H10F12604   1.251   1.496   9.599  0.5017  0.4656 -1.3686
  119OSM   C11F12605   1.233   1.713   9.630  0.6949  0.7314 -0.4920
  119OSM   H11F12606   1.203   1.769   9.721 -1.2887 -2.0586  0.6318
  119OSM   H11G12607   1.146   1.718   9.562  0.9372 -0.3799 -0.8968
  119OSM   C12F12608   1.354   1.783   9.566 -0.3340 -1.0024  0.7101
  119OSM   H12F12609   1.427   1.812   9.645 -1.9046 -1.0908  2.2419
  119OSM   H12G12610   1.307   1.873   9.519 -1.0257 -0.7582  1.8220
  119OSM   C13F12611   1.405   1.698   9.444  0.3090 -0.7965 -0.5701
  119OSM   H13F12612   1.400   1.588   9.457 -2.1961 -0.4704  1.7470
  119OSM   H13G12613   1.510   1.724   9.420  0.2973  0.4614  0.6919
  119OSM   C14F12614   1.319   1.727   9.329  0.3363  0.3089 -0.0353
  119OSM   H14F12615   1.326   1.833   9.298 -1.7294  0.1031 -1.3387
  119OSM   H14G12616   1.212   1.704   9.352  0.0109  0.8921 -0.9467
  119OSM   C15F12617   1.354   1.641   9.207 -0.5387  0.4066 -0.3183
  119OSM   H15F12618   1.360   1.533   9.232 -0.1709  0.5851  0.3932
  119OSM   H15G12619   1.451   1.688   9.178 -0.2740  0.3890  0.5167
  119OSM   C16F12620   1.245   1.656   9.096  0.4037 -0.5857  0.0689
  119OSM   H16F12621   1.225   1.764   9.080  0.7215 -0.2758  1.7078
  119OSM   H16G12622   1.160   1.609   9.149 -0.1480  0.5487  0.1850
  119OSM   C17F12623   1.283   1.600   8.962 -0.2023 -0.5002  0.1488
  119OSM   H17F12624   1.314   1.496   8.989  0.0477 -0.4351  0.1174
  119OSM   H17G12625   1.370   1.649   8.913 -1.1091  0.4155 -0.5526
  119OSM   C18F12626   1.163   1.583   8.861 -0.3964 -0.3557 -0.4072
  119OSM   H18F12627   1.078   1.539   8.917 -1.6788  1.1603 -1.1334
  119OSM   H18G12628   1.189   1.520   8.774 -0.8082  1.0781 -1.5859
  119OSM   H18H12629   1.130   1.683   8.826  0.3213 -0.1111 -0.4025
  120OSM      N12630   0.087   5.387  10.848 -0.5300 -0.1938 -0.5898
  120OSM    C1512631   0.207   5.327  10.914  0.0939  0.2232  0.7723
  120OSM   H15A12632   0.227   5.226  10.882  1.2915  1.3412 -2.1882
  120OSM   H15B12633   0.203   5.343  11.021  0.7665  0.9688  0.6879
  120OSM   H15C12634   0.290   5.387  10.879  0.3892 -1.2515 -1.1540
  120OSM    C1412635  -0.034   5.295  10.876 -0.2098  0.9705 -0.1183
  120OSM   H14A12636  -0.024   5.214  10.805 -1.2960  1.9546 -1.4243
  120OSM   H14B12637  -0.132   5.338  10.861 -0.3860  1.1648  1.4455
  120OSM   H14C12638  -0.027   5.264  10.980 -2.6648 -1.0767 -0.5167
  120OSM    C1312639   0.053   5.521  10.912  0.4054 -0.3674  0.7354
  120OSM   H13A12640  -0.026   5.576  10.864  1.1032 -0.5466 -0.6249
  120OSM   H13B12641   0.142   5.582  10.907 -0.3531  0.8455  1.5989
  120OSM   H13C12642   0.024   5.515  11.016 -2.6617  3.2590  0.1971
  120OSM    C1212643   0.102   5.392  10.699 -0.1131  0.0719 -0.3571
  120OSM   H12A12644   0.017   5.435  10.648  1.4242  1.3157 -1.9153
  120OSM   H12B12645   0.121   5.293  10.661  0.0279 -0.1494  0.2757
  120OSM    C1112646   0.231   5.468  10.634 -1.0063  0.4581  0.2396
  120OSM   H11A12647   0.237   5.570  10.676  0.4908  1.0232 -1.2883
  120OSM   H11B12648   0.215   5.474  10.524  0.0163 -1.2478 -0.0357
  120OSM      P12649   0.376   5.268  10.564 -0.0576 -0.0346  1.0180
  120OSM    O1312650   0.510   5.213  10.599 -0.0163 -0.1147 -0.0786
  120OSM    O1412651   0.264   5.176  10.574 -0.3781  0.8811 -0.2329
  120OSM    O1112652   0.386   5.338  10.420  0.2535  0.3470 -0.0220
  120OSM    O1212653   0.349   5.397  10.665  0.3885  0.7751 -0.4554
  120OSM    C1S12654   0.459   5.449  10.392  0.1904 -0.0631 -0.2854
  120OSM    H1S12655   0.544   5.466  10.462 -0.3910 -1.5994  0.8430
  120OSM    H1T12656   0.395   5.539  10.382  1.1592  0.4042 -2.4235
  120OSM     NF12657   0.623   5.537  10.243  0.2126 -0.4353  0.2388
  120OSM    HNF12658   0.591   5.620  10.198  2.0210 -0.1316 -0.5541
  120OSM    C2S12659   0.538   5.422  10.257  0.1398 -0.2351 -0.2431
  120OSM    H2S12660   0.594   5.326  10.266 -1.3754 -1.1729 -0.6607
  120OSM    C3S12661   0.443   5.412  10.139 -0.5539  0.2136  0.5011
  120OSM    H3S12662   0.391   5.510  10.133  0.1342  0.4762 -1.8712
  120OSM     O312663   0.329   5.321  10.157  0.1536  0.4418 -0.2227
  120OSM    HO312664   0.334   5.310  10.252  1.1435  1.2046 -0.1831
  120OSM    C4S12665   0.515   5.380  10.008 -0.1022  0.1006  0.2787
  120OSM    H4S12666   0.546   5.472   9.956 -3.0646  0.4627 -0.9488
  120OSM    C5S12667   0.538   5.257   9.958  0.4505 -1.0656 -0.8774
  120OSM    H5S12668   0.497   5.177  10.022  1.9109 -0.5960  0.6802
  120OSM    C6S12669   0.618   5.220   9.836  0.3635 -0.1063  0.1223
  120OSM    H6S12670   0.581   5.124   9.794  1.6775 -1.1024  1.1920
  120OSM    H6T12671   0.717   5.195   9.879  0.6601  0.1258 -0.4308
  120OSM    C7S12672   0.644   5.328   9.731  0.7993 -0.3084 -0.6621
  120OSM    H7S12673   0.696   5.412   9.781 -0.9653  0.0797  0.5873
  120OSM    H7T12674   0.546   5.364   9.691  0.2533 -2.2237 -1.1328
  120OSM    C8S12675   0.726   5.295   9.606  0.4127 -0.2861 -0.3112
  120OSM    H8S12676   0.829   5.279   9.645  0.6211  1.5686 -0.0200
  120OSM    H8T12677   0.724   5.377   9.530 -0.2535  1.0765  1.1398
  120OSM    C9S12678   0.663   5.170   9.537  0.3519  0.1325  0.2285
  120OSM    H9S12679   0.554   5.158   9.556 -0.0833  1.0160 -1.6496
  120OSM    H9T12680   0.707   5.078   9.582 -2.7493 -0.7208  1.6930
  120OSM   C10S12681   0.704   5.175   9.385  0.3644  0.1745  0.4933
  120OSM   H10S12682   0.802   5.226   9.370 -0.6826  2.1582  0.2232
  120OSM   H10T12683   0.624   5.242   9.346 -0.3643 -1.6765 -1.3413
  120OSM   C11S12684   0.708   5.043   9.314 -0.3961  0.5379  0.2349
  120OSM   H11S12685   0.612   4.987   9.324  1.6993 -3.5653 -1.2124
  120OSM   H11T12686   0.796   4.986   9.352  1.4881  3.1763 -0.0808
  120OSM   C12S12687   0.744   5.062   9.165 -0.7010  0.0609  0.3840
  120OSM   H12S12688   0.830   5.132   9.165  0.6203 -1.5089  1.1303
  120OSM   H12T12689   0.662   5.108   9.107  0.5059  2.5886  0.6260
  120OSM   C13S12690   0.786   4.936   9.095 -0.5710 -0.1928 -0.1688
  120OSM   H13S12691   0.862   4.888   9.160  1.8189  1.1226 -1.9045
  120OSM   H13T12692   0.840   4.969   9.003  1.0729 -0.5886  0.6297
  120OSM   C14S12693   0.668   4.853   9.042 -0.5128 -0.2404 -0.1912
  120OSM   H14S12694   0.598   4.928   8.998  0.2101  1.3525  1.2931
  120OSM   H14T12695   0.597   4.816   9.119  0.2557 -2.0436 -0.3448
  120OSM   C15S12696   0.711   4.733   8.956  0.1224  0.4958 -0.2329
  120OSM   H15S12697   0.619   4.686   8.915 -0.7625  0.4154  1.7617
  120OSM   H15T12698   0.772   4.663   9.017 -0.6670 -1.5749 -1.7680
  120OSM   C16S12699   0.786   4.765   8.829  0.3037  0.2811  0.1696
  120OSM   H16S12700   0.823   4.674   8.777 -0.1597 -0.2407  0.7419
  120OSM   H16T12701   0.876   4.827   8.848 -1.0940  1.9140  1.6890
  120OSM   C17S12702   0.684   4.847   8.734 -0.0494 -0.3649 -0.5872
  120OSM   H17S12703   0.660   4.943   8.786  1.8910 -0.8173  1.1997
  120OSM   H17T12704   0.602   4.776   8.712  0.0921 -0.9117  0.6694
  120OSM   C18S12705   0.748   4.885   8.609  0.4043  0.6329  0.7082
  120OSM   H18S12706   0.823   4.966   8.617  1.7045 -0.1692 -2.4961
  120OSM   H18T12707   0.688   4.900   8.517  1.4339 -1.5469 -0.3739
  120OSM   H18U12708   0.808   4.794   8.585 -0.1078  0.7044 -0.8561
  120OSM    C1F12709   0.740   5.546  10.299 -0.0345  1.4962  0.5543
  120OSM     OF12710   0.783   5.442  10.357  0.2211  0.1974 -0.3126
  120OSM    C2F12711   0.817   5.675  10.293  0.4457  1.2852 -0.5997
  120OSM    H2F12712   0.798   5.731  10.387 -2.0458 -0.4544 -0.0256
  120OSM    H2G12713   0.768   5.729  10.210 -2.5333  0.4536  0.5777
  120OSM    C3F12714   0.969   5.649  10.264 -0.3223 -0.0056 -0.5522
  120OSM    H3F12715   1.014   5.614  10.360 -2.3317 -2.9452 -0.5846
  120OSM    H3G12716   1.008   5.749  10.237  1.6462  0.0757  2.4042
  120OSM    C4F12717   1.010   5.557  10.148  0.1931 -0.1093  0.8513
  120OSM    H4F12718   0.961   5.457  10.150  1.0312 -0.5224  1.0243
  120OSM    H4G12719   1.119   5.535  10.155  0.5618  0.3992 -2.5837
  120OSM    C5F12720   0.981   5.624  10.016  0.1995 -0.4646 -0.2596
  120OSM    H5F12721   1.050   5.710  10.005  0.1741 -0.2380  1.2586
  120OSM    H5G12722   0.876   5.654   9.999  0.9485  1.0651 -2.4115
  120OSM    C6F12723   1.014   5.532   9.900 -0.3850 -0.2030  0.8837
  120OSM    H6F12724   0.938   5.451   9.895 -1.2552  0.7063 -1.7771
  120OSM    H6G12725   1.111   5.484   9.924  1.9138  1.0444 -4.9291
  120OSM    C7F12726   1.025   5.609   9.767  0.1979  0.1968 -0.8642
  120OSM    H7F12727   1.134   5.630   9.759  0.4683 -0.7839  0.0409
  120OSM    H7G12728   0.971   5.703   9.787  2.8407  1.6821 -0.4645
  120OSM    C8F12729   0.975   5.532   9.638  0.2098  0.0300 -0.0620
  120OSM    H8F12730   0.865   5.529   9.654  0.4064 -1.7218  1.1429
  120OSM    H8G12731   1.019   5.430   9.630  0.6517  0.2691 -0.6883
  120OSM    C9F12732   1.017   5.604   9.513 -0.4001 -0.4754 -0.0850
  120OSM    H9F12733   1.002   5.713   9.507  0.8158 -0.3458 -0.9612
  120OSM   C10F12734   1.079   5.548   9.402 -0.0763 -0.0501 -0.5573
  120OSM   H10F12735   1.101   5.614   9.317  1.3032 -2.4541 -2.1196
  120OSM   C11F12736   1.119   5.400   9.393 -0.3378  0.0324  0.1401
  120OSM   H11F12737   1.034   5.336   9.427 -0.4270  1.2703  2.3240
  120OSM   H11G12738   1.207   5.385   9.461  0.5244  1.7043 -0.5916
  120OSM   C12F12739   1.179   5.367   9.253  0.2285 -0.3061 -0.6134
  120OSM   H12F12740   1.235   5.271   9.248 -0.1334 -0.7700  2.8532
  120OSM   H12G12741   1.259   5.443   9.238  0.5000 -0.7740 -1.5797
  120OSM   C13F12742   1.082   5.375   9.138  0.1155 -0.3847  0.8971
  120OSM   H13F12743   1.027   5.471   9.140 -0.7733 -0.8923  0.7916
  120OSM   H13G12744   1.001   5.304   9.163  1.1153 -1.4941  1.0454
  120OSM   C14F12745   1.137   5.340   8.999  0.3279 -0.2096 -0.3452
  120OSM   H14F12746   1.166   5.233   9.002 -0.3838 -0.4136 -0.4488
  120OSM   H14G12747   1.218   5.406   8.962  0.8635 -1.7226 -1.9367
  120OSM   C15F12748   1.012   5.335   8.900  0.3769  0.2438  0.2714
  120OSM   H15F12749   0.988   5.441   8.877 -2.2574 -0.5513 -0.9355
  120OSM   H15G12750   0.926   5.296   8.959 -0.0551  0.0548 -0.4802
  120OSM   C16F12751   1.027   5.251   8.765  0.7941  0.1033 -0.4946
  120OSM   H16F12752   0.922   5.240   8.729  1.2118  1.8058 -2.2972
  120OSM   H16G12753   1.064   5.152   8.800  1.5600  0.7109  0.4475
  120OSM   C17F12754   1.115   5.316   8.657  0.4019 -0.9710 -1.1929
  120OSM   H17F12755   1.213   5.348   8.697  1.0247 -2.1479 -1.7651
  120OSM   H17G12756   1.064   5.412   8.632  0.5331  0.1487  2.4848
  120OSM   C18F12757   1.140   5.222   8.533  0.0666  0.1012 -0.3641
  120OSM   H18F12758   1.210   5.270   8.461  1.1882 -2.7954 -1.2462
  120OSM   H18G12759   1.043   5.204   8.483  0.4251 -1.7217 -0.4416
  120OSM   H18H12760   1.191   5.128   8.561  0.5898  0.5458  0.2058
  121OSM      N12761   6.104   1.876  10.921 -0.6770 -1.0080 -0.2309
  121OSM    C1512762   6.130   1.985  11.022  0.2291  0.9456 -0.2043
  121OSM   H15A12763   6.074   1.958  11.110 -2.8452  6.2974 -0.3323
  121OSM   H15B12764   6.086   2.080  10.994 -2.4245  0.0442  0.8240
  121OSM   H15C12765   6.237   1.995  11.038  0.5409 -1.8393 -0.2402
  121OSM    C1412766   5.958   1.869  10.887  0.3706 -0.2646  0.1568
  121OSM   H14A12767   5.902   1.831  10.972  0.1025  1.9743  1.0171
  121OSM   H14B12768   5.947   1.803  10.802 -2.0738 -2.4431  2.0669
  121OSM   H14C12769   5.925   1.969  10.862 -0.3308 -0.8758 -1.3987
  121OSM    C1312770   6.164   1.936  10.796  1.0717  0.1401  0.0567
  121OSM   H13A12771   6.114   2.030  10.781 -0.2459 -0.3549  1.1705
  121OSM   H13B12772   6.139   1.877  10.710  0.9023 -0.8128  0.7469
  121OSM   H13C12773   6.268   1.965  10.806  1.5965 -1.7015  0.2555
  121OSM    C1212774   6.163   1.741  10.955  0.2290  0.2199 -0.4773
  121OSM   H12A12775   6.121   1.659  10.898  2.8622 -1.5842  0.0936
  121OSM   H12B12776   6.149   1.716  11.059 -1.8995 -1.9575 -1.2265
  121OSM    C1112777   6.313   1.729  10.944 -0.0234  0.1183 -0.2259
  121OSM   H11A12778   6.353   1.824  10.986 -0.4648  0.4613 -0.5698
  121OSM   H11B12779   6.344   1.718  10.838 -1.2448  0.9892 -0.6800
  121OSM      P12780   6.493   1.610  11.079  0.2174 -0.1808  0.0680
  121OSM    O1312781   6.505   1.718  11.179  0.0886 -0.0756  0.0702
  121OSM    O1412782   6.525   1.474  11.133  0.1760 -0.0967  0.2630
  121OSM    O1112783   6.590   1.646  10.954 -0.1799 -0.4139 -0.0236
  121OSM    O1212784   6.354   1.616  11.019 -0.1508 -0.6342  0.1330
  121OSM    C1S12785   6.609   1.544  10.846  0.2044  0.7562 -0.3406
  121OSM    H1S12786   6.513   1.493  10.825  1.0987 -0.7386 -0.8730
  121OSM    H1T12787   6.685   1.472  10.883 -0.3802 -0.4209 -1.3822
  121OSM     NF12788   6.682   1.491  10.622  0.3020 -0.1081  0.0848
  121OSM    HNF12789   6.778   1.462  10.618  0.3692  0.1261 -0.0137
  121OSM    C2S12790   6.662   1.605  10.715  0.1854  0.4048 -0.0816
  121OSM    H2S12791   6.586   1.669  10.667 -1.7973 -1.7360  0.1140
  121OSM    C3S12792   6.782   1.693  10.739 -0.6549 -0.6424 -0.5191
  121OSM    H3S12793   6.865   1.621  10.758 -0.4787 -0.2700  0.1316
  121OSM     O312794   6.776   1.777  10.853  0.5400  0.0370  0.5933
  121OSM    HO312795   6.705   1.734  10.901  1.5098 -0.4396  1.5859
  121OSM    C4S12796   6.829   1.774  10.615  0.9885 -0.3382 -0.4511
  121OSM    H4S12797   6.755   1.847  10.581  0.6150 -0.4071  0.2227
  121OSM    C5S12798   6.950   1.749  10.554  0.4364  0.6464  0.0783
  121OSM    H5S12799   7.010   1.662  10.583  1.1571  0.2933 -2.3717
  121OSM    C6S12800   6.999   1.815  10.424  0.1451  0.3689 -0.1272
  121OSM    H6S12801   7.096   1.864  10.446 -0.3154  1.2175  0.0281
  121OSM    H6T12802   6.931   1.899  10.400 -0.2535 -0.2426 -1.1748
  121OSM    C7S12803   7.009   1.724  10.301  0.2486 -0.2117 -0.5886
  121OSM    H7S12804   6.930   1.647  10.314  0.1066  0.4271  2.6898
  121OSM    H7T12805   7.106   1.670  10.294  0.0923 -0.4396 -1.0482
  121OSM    C8S12806   6.995   1.804  10.168 -1.1015 -0.7994  0.8847
  121OSM    H8S12807   6.910   1.875  10.171 -1.2585 -0.9478 -0.0784
  121OSM    H8T12808   6.970   1.725  10.094  0.3916 -1.1464  0.7237
  121OSM    C9S12809   7.127   1.871  10.116 -0.1228  0.0356  0.1277
  121OSM    H9S12810   7.196   1.784  10.112  1.0935  1.0567 -1.9716
  121OSM    H9T12811   7.178   1.945  10.182 -1.3744  0.2912  0.8106
  121OSM   C10S12812   7.115   1.925   9.972  0.3116 -0.0927  0.0038
  121OSM   H10S12813   7.194   2.003   9.961  0.3953  0.0510  1.5644
  121OSM   H10T12814   7.018   1.977   9.960  0.4844  0.1352 -0.4329
  121OSM   C11S12815   7.125   1.809   9.865 -0.1871  0.2408  0.4538
  121OSM   H11S12816   7.052   1.726   9.878  0.0408 -0.0160  0.0972
  121OSM   H11T12817   7.224   1.760   9.873 -0.7525 -1.1234 -0.7659
  121OSM   C12S12818   7.087   1.877   9.727  0.0636 -0.0014  0.6323
  121OSM   H12S12819   7.150   1.968   9.717 -0.2450  0.0839 -0.6489
  121OSM   H12T12820   6.979   1.904   9.723  0.0704 -0.1875 -1.1715
  121OSM   C13S12821   7.126   1.792   9.610  0.3830  0.8420 -0.7800
  121OSM   H13S12822   7.066   1.699   9.606 -0.6232  1.4167  0.7541
  121OSM   H13T12823   7.235   1.773   9.624  0.5500  2.2128 -0.1700
  121OSM   C14S12824   7.126   1.864   9.475  0.1830 -0.3533 -0.0833
  121OSM   H14S12825   7.203   1.944   9.469 -1.3174  1.0692 -0.4538
  121OSM   H14T12826   7.027   1.913   9.471  0.2306 -0.3870 -2.6395
  121OSM   C15S12827   7.163   1.762   9.363 -0.5353  0.5183 -0.1157
  121OSM   H15S12828   7.090   1.679   9.357 -1.1628  1.0710 -0.2186
  121OSM   H15T12829   7.265   1.724   9.387 -0.9477 -1.0256 -0.7616
  121OSM   C16S12830   7.160   1.842   9.228 -0.3503  0.0124 -0.0385
  121OSM   H16S12831   7.068   1.904   9.227 -1.3240 -1.3483 -4.0917
  121OSM   H16T12832   7.154   1.770   9.143 -3.4996  3.3023 -2.8099
  121OSM   C17S12833   7.284   1.923   9.205  0.0105 -0.3451  0.0411
  121OSM   H17S12834   7.373   1.857   9.221  0.8630  0.4907 -1.1792
  121OSM   H17T12835   7.281   2.013   9.271 -4.8409  0.2813 -0.8682
  121OSM   C18S12836   7.285   1.977   9.065 -0.0066  0.0398 -0.4439
  121OSM   H18S12837   7.375   2.042   9.056  1.9676 -2.6186 -0.5104
  121OSM   H18T12838   7.202   2.050   9.053 -1.4126 -1.0874  2.0174
  121OSM   H18U12839   7.292   1.902   8.984 -0.8876 -1.7854  1.1289
  121OSM    C1F12840   6.589   1.409  10.569 -0.6903  0.1436 -0.2080
  121OSM     OF12841   6.468   1.430  10.589  0.3219 -0.0285 -0.1919
  121OSM    C2F12842   6.638   1.292  10.497 -0.1986  0.1962  0.5261
  121OSM    H2F12843   6.685   1.213  10.560 -0.3853 -0.2815  0.0669
  121OSM    H2G12844   6.709   1.333  10.423  0.1196 -0.5769  0.3981
  121OSM    C3F12845   6.527   1.231  10.411  0.0678 -0.9173 -0.4809
  121OSM    H3F12846   6.449   1.305  10.384 -1.3896 -1.2837  2.4410
  121OSM    H3G12847   6.486   1.144  10.468  1.5353 -1.1545  0.2222
  121OSM    C4F12848   6.582   1.176  10.283  0.9074 -0.0197  0.3211
  121OSM    H4F12849   6.516   1.107  10.227  0.6955  1.3740 -1.1774
  121OSM    H4G12850   6.664   1.108  10.315 -1.4257 -1.5015  3.3774
  121OSM    C5F12851   6.635   1.281  10.185  0.1541  0.0327  0.4367
  121OSM    H5F12852   6.702   1.357  10.231  0.1646  0.5152 -0.3603
  121OSM    H5G12853   6.556   1.348  10.145 -0.2203 -1.1954 -0.9131
  121OSM    C6F12854   6.696   1.218  10.064  0.2422 -0.4837  0.2998
  121OSM    H6F12855   6.757   1.128  10.088 -0.3003 -0.3189  2.4406
  121OSM    H6G12856   6.758   1.301  10.023  0.6740  0.0742  2.0162
  121OSM    C7F12857   6.588   1.180   9.960 -0.2020  0.0100 -0.0950
  121OSM    H7F12858   6.539   1.273   9.925  1.5713  0.9081 -0.2763
  121OSM    H7G12859   6.513   1.113  10.008 -2.0443  0.7982 -1.8067
  121OSM    C8F12860   6.645   1.105   9.833 -0.4492  0.1746  0.4829
  121OSM    H8F12861   6.549   1.086   9.780  0.6475  0.9246 -1.8095
  121OSM    H8G12862   6.697   1.017   9.876 -0.6228  0.0726  0.4838
  121OSM    C9F12863   6.754   1.174   9.757 -0.3872 -0.0558 -0.2436
  121OSM    H9F12864   6.832   1.222   9.817 -0.0765 -1.3671  0.4136
  121OSM   C10F12865   6.746   1.210   9.627  0.2923 -0.0118 -0.7157
  121OSM   H10F12866   6.836   1.248   9.576  0.4478 -1.9401 -1.9168
  121OSM   C11F12867   6.629   1.191   9.531  0.1109  0.7445  0.2763
  121OSM   H11F12868   6.607   1.280   9.468  1.8075  0.4470 -0.7557
  121OSM   H11G12869   6.536   1.161   9.585  1.1099  1.5434  2.4710
  121OSM   C12F12870   6.673   1.065   9.446 -0.1789  0.3559  0.2305
  121OSM   H12F12871   6.579   1.029   9.398 -1.0166  2.1432  0.4828
  121OSM   H12G12872   6.712   0.981   9.507 -0.3920 -0.6137 -0.9365
  121OSM   C13F12873   6.765   1.105   9.330  0.3360  0.1986  0.4037
  121OSM   H13F12874   6.843   1.026   9.320 -1.6682 -1.9768  1.3134
  121OSM   H13G12875   6.799   1.211   9.337  1.4694 -0.1016 -0.3317
  121OSM   C14F12876   6.691   1.095   9.191  0.1122  0.1646 -0.0008
  121OSM   H14F12877   6.605   1.164   9.203 -1.1438 -1.0788 -1.6288
  121OSM   H14G12878   6.653   0.991   9.192  2.3819 -0.7662 -2.7903
  121OSM   C15F12879   6.774   1.113   9.068 -0.4058 -0.2200 -0.2547
  121OSM   H15F12880   6.840   1.025   9.051 -0.9407 -0.8390  0.8380
  121OSM   H15G12881   6.841   1.195   9.100 -2.2336  2.1874 -2.4472
  121OSM   C16F12882   6.695   1.134   8.941  0.3783  0.4844  0.4665
  121OSM   H16F12883   6.619   1.214   8.953  1.0255  1.2487 -0.3630
  121OSM   H16G12884   6.637   1.042   8.921  0.3682  0.5465  0.1976
  121OSM   C17F12885   6.786   1.171   8.821 -0.3821 -0.2827  1.0529
  121OSM   H17F12886   6.737   1.144   8.725 -0.2721  0.1949  0.8622
  121OSM   H17G12887   6.880   1.113   8.829  1.4978  1.9354 -3.3516
  121OSM   C18F12888   6.834   1.316   8.804 -0.0912 -0.1338  0.3728
  121OSM   H18F12889   6.899   1.339   8.718  2.1750 -0.2555  2.0176
  121OSM   H18G12890   6.887   1.358   8.892  2.1079 -3.0279  0.4813
  121OSM   H18H12891   6.741   1.375   8.790 -0.0473  0.0393  0.7936
  122OSM      N12892   1.048   6.217  10.834 -0.2039  0.0142 -0.8114
  122OSM    C1512893   1.183   6.144  10.800  0.9064  0.3667  0.2493
  122OSM   H15A12894   1.256   6.153  10.879  1.7722 -0.0814 -0.4950
  122OSM   H15B12895   1.220   6.176  10.704 -1.0267 -1.0323 -0.9952
  122OSM   H15C12896   1.171   6.037  10.792  3.7088  0.0160  0.3493
  122OSM    C1412897   0.962   6.205  10.712  0.1693 -0.7199 -1.0019
  122OSM   H14A12898   1.004   6.253  10.625  0.4913 -0.9487 -0.9704
  122OSM   H14B12899   0.869   6.259  10.725 -0.8061 -2.6068  0.1455
  122OSM   H14C12900   0.942   6.104  10.678 -2.6217 -0.2348 -0.9275
  122OSM    C1312901   0.984   6.150  10.949 -0.0457  0.2162 -0.1335
  122OSM   H13A12902   1.048   6.109  11.025 -0.5591 -1.0092 -0.3578
  122OSM   H13B12903   0.923   6.070  10.910 -0.5857  0.6612 -0.2283
  122OSM   H13C12904   0.922   6.227  10.992 -0.5534 -1.2916  1.8726
  122OSM    C1212905   1.077   6.366  10.869 -0.0905  0.1824  0.7247
  122OSM   H12A12906   1.136   6.400  10.785  2.2633 -0.5495  2.0367
  122OSM   H12B12907   1.130   6.371  10.963  3.2190 -1.7741 -0.9895
  122OSM    C1112908   0.958   6.469  10.888 -1.1067 -0.0522 -0.0894
  122OSM   H11A12909   0.889   6.421  10.961 -0.6859 -1.5389 -0.6412
  122OSM   H11B12910   0.905   6.477  10.791  0.2331  0.3917 -0.7997
  122OSM      P12911   1.014   6.716  10.855 -0.0595  0.2009 -0.1802
  122OSM    O1312912   0.889   6.793  10.866 -0.8483  0.0168 -0.0554
  122OSM    O1412913   1.132   6.793  10.902  0.1566  0.0719 -0.0893
  122OSM    O1112914   1.026   6.661  10.704 -0.2781  0.0731  0.6903
  122OSM    O1212915   1.008   6.592  10.946  0.5128 -0.8730  0.2985
  122OSM    C1S12916   1.153   6.646  10.649 -0.0409  0.6692  0.3410
  122OSM    H1S12917   1.215   6.598  10.727  0.0750 -0.9618 -0.7227
  122OSM    H1T12918   1.194   6.748  10.631  2.6608  0.1119  3.0784
  122OSM     NF12919   1.283   6.509  10.493  0.7057  0.0984 -0.6252
  122OSM    HNF12920   1.323   6.559  10.417  1.4074  0.1462 -0.2262
  122OSM    C2S12921   1.147   6.551  10.526  0.4461 -0.6836  0.7389
  122OSM    H2S12922   1.092   6.464  10.569  0.4893 -0.0021  2.2264
  122OSM    C3S12923   1.062   6.609  10.414  0.8231  0.3128  0.9199
  122OSM    H3S12924   1.114   6.704  10.389  1.1560  0.7744  3.2507
  122OSM     O312925   0.926   6.646  10.461 -0.0111  0.3026 -0.4648
  122OSM    HO312926   0.938   6.646  10.556 -3.0842 -2.6694  0.0047
  122OSM    C4S12927   1.046   6.518  10.302  1.1142  0.5717  0.8814
  122OSM    H4S12928   0.988   6.426  10.317 -1.2636  1.9378  0.3543
  122OSM    C5S12929   1.101   6.538  10.185  0.7242 -0.0041  0.2176
  122OSM    H5S12930   1.176   6.616  10.168 -0.9318  1.6398  0.3419
  122OSM    C6S12931   1.089   6.444  10.071  0.5116 -0.3115  0.0598
  122OSM    H6S12932   1.068   6.340  10.105  0.3050 -0.7747 -1.4590
  122OSM    H6T12933   1.189   6.442  10.023  0.6382  0.1708  0.2947
  122OSM    C7S12934   0.979   6.477   9.967 -0.7362 -0.0802 -0.0399
  122OSM    H7S12935   1.000   6.581   9.933 -1.8093 -0.1862 -1.0846
  122OSM    H7T12936   0.880   6.483  10.017 -0.6616  0.4443  0.0509
  122OSM    C8S12937   0.967   6.391   9.833 -0.4135 -0.0921 -0.6404
  122OSM    H8S12938   0.959   6.286   9.869 -1.0686  0.1626 -0.0273
  122OSM    H8T12939   1.062   6.392   9.776  0.7268 -1.5129  1.1548
  122OSM    C9S12940   0.839   6.451   9.767 -0.5628  0.1682  0.1729
  122OSM    H9S12941   0.843   6.562   9.766  2.2244  0.1195  0.7040
  122OSM    H9T12942   0.750   6.423   9.827 -1.4353 -1.3886 -1.7753
  122OSM   C10S12943   0.804   6.401   9.623  0.2317 -0.3891  0.3430
  122OSM   H10S12944   0.715   6.462   9.596  2.8233  2.6602 -1.5921
  122OSM   H10T12945   0.787   6.292   9.636 -2.3511  0.1303  1.6406
  122OSM   C11S12946   0.913   6.432   9.522 -0.0485 -0.6048  0.2946
  122OSM   H11S12947   0.887   6.360   9.441 -0.8047 -0.4381  0.3840
  122OSM   H11T12948   1.013   6.407   9.562  0.1113 -0.5677 -0.0820
  122OSM   C12S12949   0.914   6.583   9.468 -0.0161  0.9034  0.0256
  122OSM   H12S12950   0.956   6.644   9.550  1.3703 -1.9653  1.5190
  122OSM   H12T12951   0.810   6.619   9.451 -0.4498 -0.5436 -0.5010
  122OSM   C13S12952   1.005   6.614   9.343  0.0825  0.1219  0.0248
  122OSM   H13S12953   1.025   6.723   9.345  0.3817  0.0840 -0.8737
  122OSM   H13T12954   0.952   6.589   9.248  2.9476  1.2010 -1.9074
  122OSM   C14S12955   1.143   6.544   9.345  0.2355  0.3362 -1.1775
  122OSM   H14S12956   1.132   6.433   9.346  0.4803  0.3101  1.5998
  122OSM   H14T12957   1.187   6.584   9.439 -1.9799 -0.9370  0.4496
  122OSM   C15S12958   1.230   6.586   9.223  0.4457 -0.1821  0.3889
  122OSM   H15S12959   1.331   6.543   9.244  0.4316 -0.8863 -0.9002
  122OSM   H15T12960   1.237   6.697   9.223 -1.1661 -0.0668 -0.6382
  122OSM   C16S12961   1.186   6.532   9.091 -0.5151 -0.3898  1.0817
  122OSM   H16S12962   1.107   6.601   9.054  0.7720  0.4060 -0.2439
  122OSM   H16T12963   1.144   6.430   9.107  0.0707 -0.8842 -0.4458
  122OSM   C17S12964   1.289   6.510   8.983  0.2594  0.6887  0.6895
  122OSM   H17S12965   1.365   6.443   9.030 -0.2278 -0.0113  0.4789
  122OSM   H17T12966   1.341   6.603   8.950 -0.1752  0.6429 -0.1354
  122OSM   C18S12967   1.236   6.433   8.860  0.2556 -0.2446  0.3446
  122OSM   H18S12968   1.188   6.339   8.896  1.2873 -0.9938 -0.2399
  122OSM   H18T12969   1.320   6.411   8.791 -0.0866 -1.0212  0.1727
  122OSM   H18U12970   1.156   6.482   8.800 -0.2363 -1.7292 -0.2350
  122OSM    C1F12971   1.351   6.424  10.568  0.5566  0.0208 -0.1713
  122OSM     OF12972   1.306   6.380  10.674 -0.6349 -0.4647  0.1686
  122OSM    C2F12973   1.485   6.371  10.527  0.7403 -0.3542  0.3006
  122OSM    H2F12974   1.546   6.349  10.617  1.1442 -2.2200 -0.4080
  122OSM    H2G12975   1.528   6.456  10.469 -0.4695 -0.5134 -0.8470
  122OSM    C3F12976   1.485   6.248  10.430 -0.2282  0.0581  0.0806
  122OSM    H3F12977   1.465   6.162  10.497 -2.7466  0.0600 -0.5880
  122OSM    H3G12978   1.592   6.250  10.400 -0.4560  2.7037 -0.7315
  122OSM    C4F12979   1.393   6.262  10.309 -0.5246 -0.1512 -0.5511
  122OSM    H4F12980   1.448   6.321  10.232  0.7671 -0.8297 -0.1596
  122OSM    H4G12981   1.301   6.320  10.331 -0.5719  0.0574 -1.3064
  122OSM    C5F12982   1.373   6.127  10.241 -0.7711  0.4744 -0.0620
  122OSM    H5F12983   1.303   6.068  10.304  1.9377 -2.3341  0.4108
  122OSM    H5G12984   1.475   6.088  10.223 -0.1318  1.5259  1.1828
  122OSM    C6F12985   1.292   6.152  10.109 -0.1122  0.2128  0.1439
  122OSM    H6F12986   1.341   6.240  10.062  1.1304 -0.6767 -0.2298
  122OSM    H6G12987   1.188   6.180  10.135 -0.8038  0.9901 -3.2124
  122OSM    C7F12988   1.301   6.034  10.005  0.7168  0.1911  0.0850
  122OSM    H7F12989   1.280   5.941  10.061  0.8121  1.6921  2.7171
  122OSM    H7G12990   1.398   6.027   9.953 -0.1249  1.8983 -1.7981
  122OSM    C8F12991   1.199   6.064   9.889  0.1297  0.7244 -0.2985
  122OSM    H8F12992   1.197   6.169   9.856 -1.1328  1.2909  1.4874
  122OSM    H8G12993   1.099   6.052   9.937  1.2620  0.6988  2.1116
  122OSM    C9F12994   1.205   5.952   9.782 -0.1282 -0.1412 -0.2282
  122OSM    H9F12995   1.188   5.849   9.816 -2.1401  0.9168  2.1342
  122OSM   C10F12996   1.211   5.967   9.645  0.0799 -0.6808 -0.6655
  122OSM   H10F12997   1.219   5.881   9.576  1.9657  1.2196 -2.8894
  122OSM   C11F12998   1.221   6.097   9.570 -0.0909  0.0637  0.1385
  122OSM   H11F12999   1.318   6.099   9.516 -0.3864  1.1632 -0.3757
  122OSM   H11G13000   1.194   6.184   9.634 -1.6958  0.2497 -0.7493
  122OSM   C12F13001   1.108   6.104   9.460  0.4458 -0.5794 -0.8374
  122OSM   H12F13002   1.118   6.204   9.413  0.9430  0.6312  1.7459
  122OSM   H12G13003   1.005   6.091   9.498  1.9312 -4.0241  2.3935
  122OSM   C13F13004   1.123   5.989   9.352 -0.7040  0.1278  0.5187
  122OSM   H13F13005   1.076   5.893   9.382 -0.6240  0.2887  1.1502
  122OSM   H13G13006   1.233   5.975   9.344 -0.5670  2.1562 -1.8802
  122OSM   C14F13007   1.070   6.032   9.213 -0.6483  0.5811 -0.4036
  122OSM   H14F13008   1.090   6.139   9.193  0.0065  0.1873 -1.9453
  122OSM   H14G13009   0.960   6.037   9.201 -0.5548  1.8562 -0.8230
  122OSM   C15F13010   1.144   5.956   9.104 -0.2013  0.6774  0.7857
  122OSM   H15F13011   1.107   5.853   9.091  0.3520  0.7744 -1.8778
  122OSM   H15G13012   1.248   5.979   9.137 -0.0036  0.6445  0.1902
  122OSM   C16F13013   1.122   6.022   8.962 -0.3044 -0.4825 -0.3417
  122OSM   H16F13014   1.146   6.130   8.974 -1.1148 -0.6775  3.5423
  122OSM   H16G13015   1.013   6.016   8.942 -0.5035 -0.8591  0.8152
  122OSM   C17F13016   1.211   5.979   8.844 -0.0853  0.3520  0.6025
  122OSM   H17F13017   1.190   5.872   8.825  1.9681 -0.0535  0.5633
  122OSM   H17G13018   1.311   5.989   8.891  0.3098  0.3132 -0.2144
  122OSM   C18F13019   1.189   6.052   8.714 -0.6217  0.8361  0.0676
  122OSM   H18F13020   1.259   6.035   8.630 -0.3573  1.0406  0.2459
  122OSM   H18G13021   1.172   6.162   8.722 -3.0462  0.3856  1.8651
  122OSM   H18H13022   1.084   6.028   8.686 -0.7062 -0.4189  1.3990
  123OSM      N13023   5.017   3.994   5.612  0.1013  0.6854  0.1758
  123OSM    C1513024   5.048   4.130   5.557 -0.5845  0.1981  0.0217
  123OSM   H15A13025   5.153   4.154   5.553 -0.7545  0.9095 -0.1956
  123OSM   H15B13026   5.001   4.209   5.615  0.1489  1.2280 -0.7814
  123OSM   H15C13027   5.003   4.143   5.460  1.0727 -2.0349 -1.0815
  123OSM    C1413028   4.871   3.964   5.579  0.1582 -0.4806 -0.3076
  123OSM   H14A13029   4.809   4.052   5.578  2.2461  1.0387  0.1945
  123OSM   H14B13030   4.820   3.886   5.634  1.3698 -0.4907  0.8312
  123OSM   H14C13031   4.865   3.924   5.479  2.7276 -3.4669  0.6282
  123OSM    C1313032   5.095   3.889   5.536  0.3334  0.2977 -0.0301
  123OSM   H13A13033   5.196   3.881   5.574 -0.0138  0.1194  0.8584
  123OSM   H13B13034   5.099   3.917   5.432  0.0333 -1.5298 -0.5438
  123OSM   H13C13035   5.047   3.792   5.536  3.5535 -1.4620 -4.0182
  123OSM    C1213036   5.057   3.976   5.754  0.3228  0.4397 -0.3751
  123OSM   H12A13037   5.164   3.965   5.762  0.4889  0.4699 -2.2219
  123OSM   H12B13038   5.010   3.881   5.776 -1.6337  1.3552 -0.5481
  123OSM    C1113039   5.002   4.063   5.866 -0.1186  0.0201  0.2813
  123OSM   H11A13040   5.017   4.171   5.842  0.1999  0.1655  1.1030
  123OSM   H11B13041   5.060   4.048   5.960 -2.3791  0.5363  1.8013
  123OSM      P13042   4.811   3.916   5.966 -0.0475 -0.4907 -0.0503
  123OSM    O1313043   4.663   3.901   5.937  0.6825  0.5687  0.3157
  123OSM    O1413044   4.903   3.801   5.922 -0.0012  0.1212  0.0075
  123OSM    O1113045   4.841   3.952   6.114  0.4909 -0.3835 -0.0970
  123OSM    O1213046   4.861   4.044   5.887 -0.8326 -0.3018 -0.0422
  123OSM    C1S13047   4.800   4.082   6.175 -0.1192  0.4501 -0.8293
  123OSM    H1S13048   4.693   4.100   6.150 -0.5650  0.6142  1.1703
  123OSM    H1T13049   4.848   4.161   6.113  1.1137  0.0722 -0.3551
  123OSM     NF13050   4.746   4.206   6.378  0.6236 -0.0405 -0.8889
  123OSM    HNF13051   4.803   4.288   6.387 -0.2001  0.6473 -1.8075
  123OSM    C2S13052   4.827   4.093   6.331 -0.6902 -0.4978  0.2614
  123OSM    H2S13053   4.794   4.002   6.386  1.9644  0.0525  2.9107
  123OSM    C3S13054   4.978   4.110   6.342 -0.2483 -0.4394  0.4196
  123OSM    H3S13055   4.999   4.213   6.306 -0.9010 -0.5468 -0.2806
  123OSM     O313056   5.060   4.016   6.277 -0.1227  0.4261 -0.0178
  123OSM    HO313057   5.000   3.951   6.240  1.5980 -0.3390 -1.5362
  123OSM    C4S13058   5.015   4.100   6.489  0.2592  0.8173  0.3187
  123OSM    H4S13059   4.964   4.023   6.547 -0.3019  0.2206 -0.9435
  123OSM    C5S13060   5.095   4.190   6.547 -0.0757 -0.8093  0.2146
  123OSM    H5S13061   5.136   4.277   6.494 -0.9371 -1.6647 -1.9220
  123OSM    C6S13062   5.125   4.189   6.692 -0.1802 -0.5189 -0.0533
  123OSM    H6S13063   5.091   4.095   6.741 -1.9543  0.3102  0.3421
  123OSM    H6T13064   5.073   4.276   6.738  0.1985  0.4370 -1.3999
  123OSM    C7S13065   5.277   4.196   6.717  0.6451 -0.2133 -0.6091
  123OSM    H7S13066   5.327   4.282   6.667  0.3190 -0.3798 -1.2326
  123OSM    H7T13067   5.315   4.102   6.673  0.3987 -1.0078  0.8449
  123OSM    C8S13068   5.319   4.207   6.865 -0.2066 -0.0184 -0.3480
  123OSM    H8S13069   5.415   4.155   6.887  0.6082  1.5725 -0.0678
  123OSM    H8T13070   5.252   4.148   6.931  3.1563 -0.7801  2.5386
  123OSM    C9S13071   5.330   4.355   6.923 -0.3691  0.0510 -0.8413
  123OSM    H9S13072   5.252   4.425   6.885  0.1896  0.0319 -2.0518
  123OSM    H9T13073   5.430   4.394   6.896  0.3553 -1.8964 -1.0368
  123OSM   C10S13074   5.324   4.350   7.080 -0.0882  0.2667  0.5686
  123OSM   H10S13075   5.370   4.252   7.104 -1.2313 -0.5656 -0.5126
  123OSM   H10T13076   5.215   4.351   7.104 -0.1040 -1.0373  0.5943
  123OSM   C11S13077   5.419   4.463   7.133  0.1861  0.4168 -0.7817
  123OSM   H11S13078   5.374   4.557   7.095 -1.7493 -1.3436 -3.0217
  123OSM   H11T13079   5.519   4.450   7.088  0.1864  2.6386 -1.5007
  123OSM   C12S13080   5.442   4.460   7.291  0.3427  0.6321  0.4298
  123OSM   H12S13081   5.493   4.368   7.327  0.8851  0.1842 -1.4490
  123OSM   H12T13082   5.339   4.467   7.333 -0.3012 -1.4641 -0.7446
  123OSM   C13S13083   5.511   4.587   7.347  0.5693 -0.2720  0.4192
  123OSM   H13S13084   5.445   4.670   7.312 -2.3621 -3.3871 -1.7637
  123OSM   H13T13085   5.611   4.593   7.299  0.1578 -2.1352 -0.7479
  123OSM   C14S13086   5.525   4.599   7.499  0.1344  0.5167 -0.2019
  123OSM   H14S13087   5.427   4.576   7.546  1.1330  2.1257  2.8137
  123OSM   H14T13088   5.542   4.703   7.535 -1.1148  0.4906  0.4590
  123OSM   C15S13089   5.632   4.522   7.575  0.2813 -0.0309  0.6382
  123OSM   H15S13090   5.732   4.537   7.528  0.3908  0.7106  1.1106
  123OSM   H15T13091   5.615   4.412   7.571 -3.2362  0.5037 -0.0902
  123OSM   C16S13092   5.626   4.549   7.731  0.0763  0.4062 -0.2995
  123OSM   H16S13093   5.636   4.656   7.758  0.9557  0.2326  0.0800
  123OSM   H16T13094   5.709   4.492   7.778 -0.2290  1.5141  1.6323
  123OSM   C17S13095   5.499   4.494   7.803 -0.8574  0.1146 -0.3054
  123OSM   H17S13096   5.481   4.388   7.776 -0.2324 -0.4139  1.2685
  123OSM   H17T13097   5.413   4.550   7.762  0.4836  1.9875 -0.6539
  123OSM   C18S13098   5.493   4.516   7.950  0.7772 -0.5840  0.5896
  123OSM   H18S13099   5.517   4.621   7.974  0.6548 -0.5917  0.7443
  123OSM   H18T13100   5.568   4.463   8.013  0.8201 -1.5416 -0.2555
  123OSM   H18U13101   5.389   4.501   7.986 -0.1292  0.8573 -1.3431
  123OSM    C1F13102   4.619   4.203   6.413  0.3245  0.8313 -0.6309
  123OSM     OF13103   4.552   4.099   6.418  0.1534 -0.2864  0.4034
  123OSM    C2F13104   4.551   4.327   6.455 -0.2609 -0.5344  0.3800
  123OSM    H2F13105   4.458   4.344   6.397 -0.1955 -2.0868 -0.1951
  123OSM    H2G13106   4.620   4.411   6.434  0.5385 -0.7924  1.8640
  123OSM    C3F13107   4.525   4.327   6.608  0.5987 -0.1114 -0.4081
  123OSM    H3F13108   4.446   4.254   6.633  0.6285 -0.0076  0.0052
  123OSM    H3G13109   4.482   4.427   6.630  2.8943  1.0704 -1.1367
  123OSM    C4F13110   4.650   4.308   6.697 -0.1451  0.0031 -0.4202
  123OSM    H4F13111   4.740   4.363   6.661 -0.8126  1.4941  0.1171
  123OSM    H4G13112   4.690   4.205   6.688  1.3388  0.5236  0.0247
  123OSM    C5F13113   4.608   4.347   6.839  0.3972  0.4667  0.1579
  123OSM    H5F13114   4.501   4.322   6.854  0.2852 -0.7124 -2.2758
  123OSM    H5G13115   4.609   4.458   6.843 -0.4011  0.4856 -0.1341
  123OSM    C6F13116   4.692   4.280   6.948  0.4228 -0.6295 -0.2448
  123OSM    H6F13117   4.681   4.342   7.039  2.1666  0.9977 -1.0986
  123OSM    H6G13118   4.795   4.278   6.906 -0.2211 -0.0331 -1.9047
  123OSM    C7F13119   4.635   4.138   6.993 -0.3255 -0.4000 -0.2967
  123OSM    H7F13120   4.645   4.068   6.907  2.8570 -2.5699  1.7152
  123OSM    H7G13121   4.527   4.147   7.019  0.0262  1.8662  0.4207
  123OSM    C8F13122   4.715   4.086   7.119  0.5090  0.4787 -0.2667
  123OSM    H8F13123   4.671   3.991   7.158 -0.7149  0.5817 -1.3599
  123OSM    H8G13124   4.699   4.158   7.202 -0.3102  0.0425 -0.0375
  123OSM    C9F13125   4.862   4.061   7.090 -0.3914 -0.5863  0.0698
  123OSM    H9F13126   4.878   3.992   7.006  1.0860 -0.4451  0.2187
  123OSM   C10F13127   4.964   4.130   7.140  0.9323  0.9919  0.1328
  123OSM   H10F13128   5.060   4.101   7.095  0.2337 -2.6112  0.8187
  123OSM   C11F13129   4.976   4.246   7.233 -0.1063  0.3473  0.0468
  123OSM   H11F13130   4.874   4.288   7.244  0.7926  2.2757  1.2682
  123OSM   H11G13131   5.037   4.334   7.204 -0.1837  0.1804 -0.6178
  123OSM   C12F13132   5.019   4.197   7.367 -0.1321 -0.3116  0.3744
  123OSM   H12F13133   5.105   4.126   7.363 -1.3263 -1.7077 -1.4040
  123OSM   H12G13134   4.931   4.145   7.409  0.2042  0.8055  2.5388
  123OSM   C13F13135   5.069   4.318   7.460  0.1726 -0.4187  0.3823
  123OSM   H13F13136   4.988   4.393   7.452 -0.8577 -1.6588 -1.1316
  123OSM   H13G13137   5.164   4.365   7.429  0.2443 -0.6391  0.2674
  123OSM   C14F13138   5.078   4.278   7.610 -0.8206  1.1038 -0.2299
  123OSM   H14F13139   5.175   4.227   7.626 -0.9140  0.9899 -0.0171
  123OSM   H14G13140   4.989   4.219   7.639  0.0023  1.2275  2.7268
  123OSM   C15F13141   5.064   4.397   7.708  0.2167  0.4163 -0.0309
  123OSM   H15F13142   4.974   4.456   7.684 -0.4712 -0.3919  0.5396
  123OSM   H15G13143   5.156   4.457   7.694  1.7204 -1.4796  1.2824
  123OSM   C16F13144   5.076   4.370   7.864  0.1544 -0.5186  0.7454
  123OSM   H16F13145   5.164   4.303   7.876  0.9130  0.8626  3.5982
  123OSM   H16G13146   4.991   4.307   7.897 -0.7101  1.1696  1.8346
  123OSM   C17F13147   5.088   4.491   7.946 -0.4697 -0.5883 -0.0669
  123OSM   H17F13148   5.154   4.556   7.885 -0.7824 -1.3437 -1.2270
  123OSM   H17G13149   5.141   4.456   8.037  2.4479  1.3507 -0.9293
  123OSM   C18F13150   4.955   4.555   7.978  0.0059 -0.5037  0.1751
  123OSM   H18F13151   4.976   4.641   8.045 -0.8463  1.8237 -2.4714
  123OSM   H18G13152   4.899   4.475   8.031  1.3832 -1.3070  0.4477
  123OSM   H18H13153   4.896   4.590   7.891  0.3710  2.9258  1.2176
  124OSM      N13154   0.506   2.449   6.190  0.2123 -0.3355 -0.2100
  124OSM    C1513155   0.538   2.589   6.148 -0.3251  0.6947 -0.2217
  124OSM   H15A13156   0.453   2.655   6.141 -2.1992 -1.6388  0.0213
  124OSM   H15B13157   0.599   2.610   6.061 -3.0530  0.7545 -2.1579
  124OSM   H15C13158   0.602   2.635   6.222  1.6799 -1.4800 -0.5156
  124OSM    C1413159   0.410   2.449   6.302 -0.5080  0.5430 -0.5698
  124OSM   H14A13160   0.313   2.490   6.278 -1.0071 -0.0286  0.4312
  124OSM   H14B13161   0.450   2.507   6.384  1.2456 -0.0836 -0.9618
  124OSM   H14C13162   0.395   2.349   6.340 -1.2406 -0.1821 -2.6844
  124OSM    C1313163   0.441   2.373   6.076  0.1262 -0.5378  0.6403
  124OSM   H13A13164   0.353   2.427   6.043  1.5643  1.0459 -0.6877
  124OSM   H13B13165   0.408   2.278   6.115  0.3100 -0.2055  1.6189
  124OSM   H13C13166   0.505   2.358   5.990  0.4444  1.8023  0.4478
  124OSM    C1213167   0.639   2.383   6.230  0.1682 -0.8725  0.2479
  124OSM   H12A13168   0.718   2.397   6.158 -0.4646  3.1709  0.2551
  124OSM   H12B13169   0.623   2.276   6.225 -1.5386 -0.6921  1.4380
  124OSM    C1113170   0.696   2.417   6.375 -0.3457  0.2479  0.0604
  124OSM   H11A13171   0.791   2.362   6.391  0.4940  2.1745  1.7896
  124OSM   H11B13172   0.623   2.388   6.454 -0.6644 -2.1909 -1.0654
  124OSM      P13173   0.841   2.640   6.338  0.2125 -0.5164 -0.3517
  124OSM    O1313174   0.924   2.557   6.244  0.2825  0.3620  0.9419
  124OSM    O1413175   0.787   2.760   6.281  0.1213 -0.2766  0.2813
  124OSM    O1113176   0.913   2.660   6.470 -0.1727 -0.8707 -0.4687
  124OSM    O1213177   0.722   2.553   6.390  0.5116  0.4771 -0.0403
  124OSM    C1S13178   0.960   2.545   6.552 -0.4567  0.1022  0.1163
  124OSM    H1S13179   1.037   2.483   6.501  1.0881  0.5753  1.8499
  124OSM    H1T13180   0.870   2.485   6.579 -0.7364 -0.1515 -1.3116
  124OSM     NF13181   1.104   2.506   6.766 -0.1005 -0.0839  0.9122
  124OSM    HNF13182   1.057   2.468   6.846  0.6680 -1.9224  0.5307
  124OSM    C2S13183   1.023   2.605   6.687  0.5061 -0.8740  0.8051
  124OSM    H2S13184   1.087   2.691   6.659 -2.1431  0.4959 -1.2747
  124OSM    C3S13185   0.908   2.679   6.762  0.0700 -0.4212  0.2078
  124OSM    H3S13186   0.824   2.608   6.777 -0.8207  0.7468  0.7927
  124OSM     O313187   0.837   2.773   6.686  0.0285 -0.2482 -0.0686
  124OSM    HO313188   0.849   2.755   6.592  3.3434  2.8845 -0.3879
  124OSM    C4S13189   0.953   2.716   6.904  0.6495 -0.4901 -0.2397
  124OSM    H4S13190   0.949   2.624   6.965  1.7579  0.4592  1.3021
  124OSM    C5S13191   0.992   2.837   6.955  0.2383 -0.2517 -0.5038
  124OSM    H5S13192   0.992   2.930   6.897 -0.9926 -1.5390 -2.6577
  124OSM    C6S13193   1.038   2.869   7.094 -0.3035 -0.6454  0.4847
  124OSM    H6S13194   1.074   2.973   7.109 -1.6927 -0.5638  3.7926
  124OSM    H6T13195   1.131   2.811   7.117 -0.2930 -1.9609 -2.6787
  124OSM    C7S13196   0.924   2.844   7.191  0.6592 -0.6240 -0.3816
  124OSM    H7S13197   0.921   2.734   7.208  2.8716 -0.9807 -1.9912
  124OSM    H7T13198   0.825   2.878   7.153  1.5830 -0.5252 -2.8328
  124OSM    C8S13199   0.959   2.916   7.325  0.1027 -0.8476  0.0260
  124OSM    H8S13200   0.875   2.882   7.389 -0.1467  2.0388  1.3360
  124OSM    H8T13201   0.948   3.026   7.309 -2.2291 -1.2474 -1.3719
  124OSM    C9S13202   1.090   2.870   7.384  0.0994 -0.1170  0.3239
  124OSM    H9S13203   1.172   2.937   7.348 -1.1149  2.4597  2.1849
  124OSM    H9T13204   1.118   2.770   7.346  0.5000  0.2325 -0.3113
  124OSM   C10S13205   1.077   2.881   7.534  0.3183 -0.4707 -1.1213
  124OSM   H10S13206   0.977   2.837   7.556 -0.6497  1.0827 -2.3883
  124OSM   H10T13207   1.076   2.987   7.566 -1.3042 -0.5673 -0.7721
  124OSM   C11S13208   1.179   2.790   7.597 -0.2691  0.0323 -0.4584
  124OSM   H11S13209   1.276   2.841   7.580 -0.7062  1.1855  0.4035
  124OSM   H11T13210   1.173   2.691   7.547 -0.0581  0.7170 -1.8663
  124OSM   C12S13211   1.151   2.776   7.747  0.8180  0.5861 -0.0546
  124OSM   H12S13212   1.222   2.701   7.789  0.3254  0.2769  0.2321
  124OSM   H12T13213   1.047   2.738   7.753  1.2606 -0.8204 -1.0580
  124OSM   C13S13214   1.171   2.902   7.837 -0.6710  0.0234 -0.3171
  124OSM   H13S13215   1.096   2.974   7.797  1.2183  1.7176 -0.8861
  124OSM   H13T13216   1.275   2.940   7.823 -0.9792  0.9775 -0.0588
  124OSM   C14S13217   1.159   2.880   7.992  0.3764  0.5899 -0.2862
  124OSM   H14S13218   1.245   2.817   8.023  2.3753  1.0645 -4.4645
  124OSM   H14T13219   1.073   2.813   8.012 -0.8518  2.2572  0.1659
  124OSM   C15S13220   1.148   3.003   8.084 -0.3991 -0.3099  0.2823
  124OSM   H15S13221   1.111   2.977   8.185  0.6862 -0.5740  0.6148
  124OSM   H15T13222   1.065   3.063   8.039  0.0759 -1.3179 -1.9879
  124OSM   C16S13223   1.272   3.092   8.083  0.7109 -0.5272  0.0859
  124OSM   H16S13224   1.242   3.187   8.132  0.5652 -0.8030  0.5305
  124OSM   H16T13225   1.318   3.115   7.984 -2.3325  3.4727 -0.5434
  124OSM   C17S13226   1.375   3.034   8.174 -0.5296  0.1717 -0.5391
  124OSM   H17S13227   1.387   2.927   8.151  0.2526  0.1334  0.0454
  124OSM   H17T13228   1.339   3.045   8.279  1.1631 -1.5911  0.2565
  124OSM   C18S13229   1.493   3.126   8.164  0.7151  0.6048  0.6501
  124OSM   H18S13230   1.585   3.107   8.223  1.0403 -1.5397 -0.4979
  124OSM   H18T13231   1.464   3.230   8.191 -2.3866 -0.5143  1.7575
  124OSM   H18U13232   1.523   3.151   8.060 -0.1550 -0.0596  0.2411
  124OSM    C1F13233   1.214   2.453   6.712 -0.8275 -0.1119  0.4673
  124OSM     OF13234   1.255   2.491   6.604  0.6780 -0.0507  0.0974
  124OSM    C2F13235   1.294   2.353   6.791 -0.0799  0.0026  0.4406
  124OSM    H2F13236   1.235   2.259   6.783  1.4617 -0.9894  0.5564
  124OSM    H2G13237   1.297   2.406   6.889 -2.6487 -0.5136  0.8263
  124OSM    C3F13238   1.438   2.314   6.751 -0.4065 -0.2632 -0.5938
  124OSM    H3F13239   1.493   2.410   6.736  2.4047 -1.4126  1.7855
  124OSM    H3G13240   1.440   2.261   6.654  3.4790 -0.1743 -0.6290
  124OSM    C4F13241   1.515   2.235   6.860 -0.3401  0.2605  0.0672
  124OSM    H4F13242   1.610   2.204   6.810 -0.1037  0.7765  0.1969
  124OSM    H4G13243   1.452   2.145   6.877 -0.8922  0.7675  0.6582
  124OSM    C5F13244   1.534   2.304   6.995 -0.5482 -0.5286 -0.5778
  124OSM    H5F13245   1.432   2.315   7.039 -0.1459  2.0971 -0.1953
  124OSM    H5G13246   1.579   2.404   6.977  0.7780 -0.3857  3.0996
  124OSM    C6F13247   1.613   2.225   7.108 -0.3165 -0.2992 -0.4567
  124OSM    H6F13248   1.694   2.158   7.073  0.5682 -0.7134  2.2440
  124OSM    H6G13249   1.538   2.150   7.141  0.7124 -1.6907 -1.2613
  124OSM    C7F13250   1.664   2.317   7.216  0.1847 -0.1233  0.4816
  124OSM    H7F13251   1.575   2.374   7.250  0.5877  0.7060  0.1642
  124OSM    H7G13252   1.728   2.395   7.170 -1.2750 -0.9019 -3.0096
  124OSM    C8F13253   1.734   2.238   7.328  0.1823  0.0923 -0.2705
  124OSM    H8F13254   1.835   2.207   7.294  1.3632  1.8729  1.4701
  124OSM    H8G13255   1.679   2.144   7.350  1.1186  0.0427  1.9063
  124OSM    C9F13256   1.733   2.325   7.456  0.1864  0.2560 -0.2824
  124OSM    H9F13257   1.694   2.427   7.444  2.2125  0.9582 -1.1362
  124OSM   C10F13258   1.773   2.286   7.576 -0.0133  0.5811 -0.0584
  124OSM   H10F13259   1.755   2.350   7.664 -1.7538 -0.6147  0.4783
  124OSM   C11F13260   1.814   2.147   7.607  0.1235  0.0229 -0.0340
  124OSM   H11F13261   1.925   2.156   7.610  0.0248  1.0268  1.7515
  124OSM   H11G13262   1.784   2.082   7.523 -2.1079 -0.9916  1.4941
  124OSM   C12F13263   1.747   2.086   7.730 -0.2815 -0.2004  0.2598
  124OSM   H12F13264   1.780   1.984   7.759  0.3798 -0.3580 -1.0028
  124OSM   H12G13265   1.637   2.071   7.727 -0.3154 -0.0707  0.7582
  124OSM   C13F13266   1.774   2.175   7.860  0.8572 -0.5861 -0.3252
  124OSM   H13F13267   1.710   2.266   7.861  2.4003  0.5104  0.6622
  124OSM   H13G13268   1.880   2.207   7.850  0.5127  1.1966  1.2917
  124OSM   C14F13269   1.774   2.094   7.991  0.4318  0.1423 -0.1479
  124OSM   H14F13270   1.863   2.029   7.987 -0.1560 -0.6637 -0.1511
  124OSM   H14G13271   1.686   2.029   8.008  0.9528 -0.8301 -1.1762
  124OSM   C15F13272   1.790   2.186   8.109  0.1494  0.3003  0.2461
  124OSM   H15F13273   1.693   2.240   8.117  0.7785  1.5839 -0.6832
  124OSM   H15G13274   1.864   2.265   8.085  0.3456  0.8236  2.4222
  124OSM   C16F13275   1.827   2.108   8.234 -0.6460  0.0115  0.1996
  124OSM   H16F13276   1.911   2.039   8.211 -0.6066  0.4325 -0.9403
  124OSM   H16G13277   1.754   2.028   8.257 -0.1125 -0.8698 -1.1454
  124OSM   C17F13278   1.845   2.189   8.365  0.2126  0.1559 -0.1276
  124OSM   H17F13279   1.749   2.234   8.399  0.1724 -0.9770  1.3252
  124OSM   H17G13280   1.916   2.270   8.339 -0.6771  1.9218  2.6428
  124OSM   C18F13281   1.900   2.090   8.471 -0.8762  0.3458 -0.1931
  124OSM   H18F13282   1.993   2.048   8.427 -1.3987 -2.9775  1.7465
  124OSM   H18G13283   1.820   2.013   8.477 -1.3969  0.8738 -0.3319
  124OSM   H18H13284   1.922   2.144   8.565 -1.3335  0.2602 -0.0387
  125OSM      N13285   0.289   4.140   6.035 -0.3885  0.8768  0.5542
  125OSM    C1513286   0.215   4.228   5.942  0.2189  0.4101 -0.1033
  125OSM   H15A13287   0.152   4.298   5.996 -1.4378  1.3548 -3.1912
  125OSM   H15B13288   0.153   4.170   5.876  1.7180  1.6460 -2.6452
  125OSM   H15C13289   0.280   4.289   5.880  1.4323 -1.0215 -0.2670
  125OSM    C1413290   0.189   4.080   6.129 -0.5202  0.5054  0.2795
  125OSM   H14A13291   0.120   4.015   6.078  0.6809 -0.4295 -0.1914
  125OSM   H14B13292   0.131   4.139   6.198 -1.1678 -0.1317  0.2894
  125OSM   H14C13293   0.248   4.021   6.197 -0.6754  1.6175  1.3994
  125OSM    C1313294   0.370   4.045   5.957  0.5231 -0.3998  0.9143
  125OSM   H13A13295   0.412   4.081   5.864  3.6530 -0.7228  2.1225
  125OSM   H13B13296   0.310   3.959   5.932 -1.3878  0.5654  2.0886
  125OSM   H13C13297   0.454   4.008   6.014  1.1537  1.7024  1.4273
  125OSM    C1213298   0.384   4.227   6.121 -0.6588  0.0579  0.0437
  125OSM   H12A13299   0.322   4.266   6.200 -0.0742 -2.4635  1.8182
  125OSM   H12B13300   0.428   4.306   6.062  1.1316 -2.4459 -2.1253
  125OSM    C1113301   0.492   4.152   6.201 -0.0395 -0.5929 -0.0830
  125OSM   H11A13302   0.543   4.220   6.272 -1.5823 -2.0129  2.5007
  125OSM   H11B13303   0.567   4.114   6.129 -0.6161  0.3916 -1.2057
  125OSM      P13304   0.490   3.905   6.294  0.0589 -0.2331 -0.0099
  125OSM    O1313305   0.409   3.827   6.388 -0.3136 -0.2740  0.3959
  125OSM    O1413306   0.506   3.843   6.156  0.8659 -0.6032 -0.0843
  125OSM    O1113307   0.634   3.938   6.346 -0.9040 -0.1552  0.4863
  125OSM    O1213308   0.424   4.047   6.280 -0.3029  0.3906  0.0546
  125OSM    C1S13309   0.667   4.009   6.464  0.8533 -0.2770  0.8926
  125OSM    H1S13310   0.593   4.087   6.491  0.4703  0.1757 -1.3602
  125OSM    H1T13311   0.759   4.069   6.448  0.3009  0.2685 -0.2610
  125OSM     NF13312   0.674   3.990   6.709  0.7278  0.6853  0.5025
  125OSM    HNF13313   0.757   4.025   6.751  1.6147 -1.4361  0.5692
  125OSM    C2S13314   0.687   3.917   6.587  0.3475  0.3669 -0.1557
  125OSM    H2S13315   0.610   3.838   6.589  1.6230 -0.9024 -0.2139
  125OSM    C3S13316   0.822   3.836   6.561  0.3091 -0.2501  0.3163
  125OSM    H3S13317   0.903   3.910   6.542 -0.4481  1.4810  3.4207
  125OSM     O313318   0.823   3.756   6.445  0.2442 -0.2776  0.0120
  125OSM    HO313319   0.739   3.771   6.401 -0.6561 -0.5432  1.6031
  125OSM    C4S13320   0.846   3.751   6.681  0.1281  0.7842  0.1221
  125OSM    H4S13321   0.757   3.707   6.728 -0.2892  0.5848 -0.8535
  125OSM    C5S13322   0.963   3.753   6.749 -0.2180 -0.3607  0.5889
  125OSM    H5S13323   1.041   3.812   6.700 -1.0890  1.9846  1.9417
  125OSM    C6S13324   1.000   3.689   6.884 -0.1421 -0.2309 -0.1594
  125OSM    H6S13325   1.013   3.764   6.965 -1.3962  0.6571 -0.7565
  125OSM    H6T13326   1.095   3.635   6.869 -0.8201 -0.7818 -2.7316
  125OSM    C7S13327   0.899   3.581   6.936  0.3496  0.0250  0.0328
  125OSM    H7S13328   0.874   3.506   6.857  1.6353 -3.1438  2.4905
  125OSM    H7T13329   0.803   3.632   6.959  0.7690  0.4458  0.8507
  125OSM    C8S13330   0.953   3.496   7.063 -0.1359  0.0725  1.0082
  125OSM    H8S13331   1.055   3.459   7.042 -0.2565  0.9491 -1.3171
  125OSM    H8T13332   0.895   3.401   7.069  0.5935 -0.4820 -0.4734
  125OSM    C9S13333   0.938   3.546   7.202  0.0410  0.0039 -1.0350
  125OSM    H9S13334   0.829   3.555   7.220  0.4409 -0.3654  1.7019
  125OSM    H9T13335   0.976   3.650   7.209 -2.6481  0.8218  2.8193
  125OSM   C10S13336   1.007   3.467   7.319 -0.2851 -0.1200 -0.1208
  125OSM   H10S13337   1.111   3.498   7.346 -0.0623 -0.5006 -0.5420
  125OSM   H10T13338   1.008   3.357   7.305 -3.0869 -0.0470 -1.2649
  125OSM   C11S13339   0.931   3.474   7.448  0.1883  0.2823 -0.8191
  125OSM   H11S13340   0.830   3.430   7.433 -0.0197  0.0801  1.0752
  125OSM   H11T13341   0.906   3.576   7.484 -2.4458  0.1056 -2.0369
  125OSM   C12S13342   0.993   3.389   7.562  0.6853  0.0088  0.1520
  125OSM   H12S13343   1.098   3.424   7.577  0.6356  0.6148 -0.8784
  125OSM   H12T13344   0.993   3.282   7.535 -0.7943  0.4169 -1.4795
  125OSM   C13S13345   0.932   3.403   7.698  0.2055  0.1059  0.2304
  125OSM   H13S13346   0.825   3.431   7.687  0.4780  1.6461  1.3277
  125OSM   H13T13347   0.977   3.493   7.746  2.6546  0.4336 -2.5434
  125OSM   C14S13348   0.959   3.285   7.792 -0.1379  1.1524  0.3384
  125OSM   H14S13349   1.069   3.269   7.792 -0.3553 -0.4991 -0.7116
  125OSM   H14T13350   0.906   3.196   7.750  0.0316  0.9715  0.5035
  125OSM   C15S13351   0.905   3.308   7.932  0.2889 -0.0861  0.3394
  125OSM   H15S13352   0.930   3.214   7.986  1.9498 -0.9398 -1.8346
  125OSM   H15T13353   0.796   3.311   7.914 -0.0470 -0.7162  2.2212
  125OSM   C16S13354   0.955   3.436   8.003 -0.1094 -0.0024  0.0190
  125OSM   H16S13355   0.882   3.517   7.980  1.6461  1.7829  0.6233
  125OSM   H16T13356   1.052   3.465   7.958 -0.7271  1.8801 -0.1333
  125OSM   C17S13357   0.957   3.409   8.148  0.6694  0.1699  0.3565
  125OSM   H17S13358   1.024   3.320   8.158 -0.3325 -0.7350 -0.8428
  125OSM   H17T13359   0.855   3.382   8.182  0.4693  0.7223  0.1815
  125OSM   C18S13360   1.002   3.517   8.247  0.0729  0.0397  0.6508
  125OSM   H18S13361   1.005   3.474   8.349 -1.2387  1.4264  1.3016
  125OSM   H18T13362   0.937   3.606   8.260 -2.7648 -1.7979 -0.4484
  125OSM   H18U13363   1.098   3.563   8.214 -1.5136  1.2560 -2.5537
  125OSM    C1F13364   0.545   4.023   6.754  0.3327  0.5722 -0.1566
  125OSM     OF13365   0.445   3.971   6.697  0.0804  0.4905  0.8099
  125OSM    C2F13366   0.537   4.125   6.859  0.3526  0.5380  0.7771
  125OSM    H2F13367   0.604   4.211   6.840 -0.7048  0.8423 -1.8169
  125OSM    H2G13368   0.544   4.072   6.957 -1.4560 -0.3844  0.4377
  125OSM    C3F13369   0.391   4.177   6.863 -0.1737  0.0344 -0.1723
  125OSM    H3F13370   0.321   4.091   6.873 -1.0035  0.6693 -0.4865
  125OSM    H3G13371   0.378   4.241   6.774 -1.2385  2.4391  1.6493
  125OSM    C4F13372   0.373   4.275   6.977 -0.3131  0.5157  0.5638
  125OSM    H4F13373   0.273   4.318   6.955 -0.3551  0.1464  0.0198
  125OSM    H4G13374   0.443   4.361   6.969  1.0865 -0.4392  2.1152
  125OSM    C5F13375   0.383   4.209   7.114 -0.3387 -0.3706  0.4581
  125OSM    H5F13376   0.488   4.189   7.143  1.2172  3.0985 -2.3643
  125OSM    H5G13377   0.334   4.112   7.095 -2.2391  0.6516  0.0372
  125OSM    C6F13378   0.314   4.279   7.231 -0.0699 -0.2993  0.4284
  125OSM    H6F13379   0.211   4.304   7.198 -0.3991 -1.5959  0.4417
  125OSM    H6G13380   0.362   4.374   7.263  1.5689 -1.3112  1.0222
  125OSM    C7F13381   0.300   4.173   7.343 -0.3225 -0.5470 -0.4863
  125OSM    H7F13382   0.393   4.115   7.359  0.9029  1.1792 -1.2272
  125OSM    H7G13383   0.222   4.102   7.308 -2.0019  1.3830 -0.7740
  125OSM    C8F13384   0.262   4.236   7.485  0.2744 -0.1801  0.3848
  125OSM    H8F13385   0.220   4.153   7.546  2.5457 -1.1505  0.6753
  125OSM    H8G13386   0.177   4.304   7.467  0.6428  0.8767  2.5342
  125OSM    C9F13387   0.369   4.301   7.574  0.1690  0.7677  0.6426
  125OSM    H9F13388   0.467   4.253   7.584 -0.4884 -0.2755  2.1875
  125OSM   C10F13389   0.353   4.414   7.641 -0.0096 -0.4987  0.4940
  125OSM   H10F13390   0.438   4.455   7.698  1.1690 -1.5876 -0.4433
  125OSM   C11F13391   0.226   4.495   7.634 -0.1275 -0.5671 -0.7122
  125OSM   H11F13392   0.131   4.455   7.673 -0.0895  0.0554  0.0310
  125OSM   H11G13393   0.201   4.520   7.528 -0.3205  1.3965 -0.2287
  125OSM   C12F13394   0.237   4.615   7.735 -0.1902 -0.4847  0.8657
  125OSM   H12F13395   0.141   4.670   7.721  0.3613  0.4618  0.7620
  125OSM   H12G13396   0.328   4.671   7.706 -0.9061  1.1427  1.7315
  125OSM   C13F13397   0.229   4.573   7.880 -0.4427  0.5932  0.2149
  125OSM   H13F13398   0.332   4.548   7.914  0.8819  1.3787 -3.0898
  125OSM   H13G13399   0.150   4.496   7.891  0.6100 -0.1073  3.6811
  125OSM   C14F13400   0.192   4.693   7.976  0.0065 -0.0783  0.4034
  125OSM   H14F13401   0.092   4.728   7.943  0.4207  0.5582 -0.1844
  125OSM   H14G13402   0.266   4.775   7.966 -1.8071  1.5136 -0.4501
  125OSM   C15F13403   0.178   4.662   8.127  0.6019  0.7922 -0.0451
  125OSM   H15F13404   0.277   4.673   8.175  1.7930  0.1722 -2.2636
  125OSM   H15G13405   0.143   4.557   8.135  0.8459  0.9340  3.8096
  125OSM   C16F13406   0.092   4.754   8.200 -0.2360 -0.0348 -0.2018
  125OSM   H16F13407  -0.007   4.758   8.150 -0.3401 -0.3825 -0.0211
  125OSM   H16G13408   0.127   4.860   8.196 -0.5970  0.2292  2.4440
  125OSM   C17F13409   0.063   4.693   8.341  0.2043  0.1465  0.2176
  125OSM   H17F13410   0.161   4.679   8.391  0.2717  1.6453  0.5060
  125OSM   H17G13411   0.024   4.589   8.330 -0.3908  0.3314  0.5895
  125OSM   C18F13412  -0.038   4.768   8.425  0.6259  0.4260 -0.7458
  125OSM   H18F13413  -0.026   4.735   8.530  0.7344 -1.1182 -1.2248
  125OSM   H18G13414  -0.136   4.750   8.375  0.8884  0.2062 -1.1892
  125OSM   H18H13415  -0.021   4.877   8.418  1.9695  0.3219  0.8049
  126OSM      N13416   4.731   2.863   6.687  0.6154 -0.3507  0.3562
  126OSM    C1513417   4.587   2.819   6.683  0.1743 -0.3336  0.4781
  126OSM   H15A13418   4.584   2.756   6.595 -2.0144  0.9105 -0.3904
  126OSM   H15B13419   4.510   2.894   6.671 -1.3218 -1.4789  2.5020
  126OSM   H15C13420   4.546   2.757   6.762 -2.4546  0.5002 -0.1865
  126OSM    C1413421   4.730   2.983   6.775  0.4822 -0.1211 -0.2881
  126OSM   H14A13422   4.690   2.968   6.874  1.3933 -0.3561  0.0507
  126OSM   H14B13423   4.666   3.060   6.734 -0.0571  2.1214  4.4428
  126OSM   H14C13424   4.832   3.018   6.770  1.0665 -1.8853 -1.1288
  126OSM    C1313425   4.806   2.758   6.762  0.2821  0.2879 -0.0443
  126OSM   H13A13426   4.907   2.788   6.782  0.3630 -0.4401  0.6643
  126OSM   H13B13427   4.820   2.675   6.694 -1.8662 -0.4698  0.3962
  126OSM   H13C13428   4.757   2.727   6.853 -1.2975  1.6912 -0.3780
  126OSM    C1213429   4.800   2.893   6.558 -0.8618  0.3160  0.0701
  126OSM   H12A13430   4.739   2.967   6.508 -0.0028  1.3283  0.5254
  126OSM   H12B13431   4.782   2.805   6.498 -0.6936 -1.2833  2.2989
  126OSM    C1113432   4.946   2.923   6.554  0.2797  0.8045 -0.0595
  126OSM   H11A13433   4.977   2.998   6.630  0.2137  0.8575 -0.0861
  126OSM   H11B13434   4.963   2.969   6.454  1.4708  1.3122  0.3659
  126OSM      P13435   5.158   2.767   6.509 -0.1467  0.5165  0.2391
  126OSM    O1313436   5.145   2.662   6.406 -0.2616  0.1962 -0.0422
  126OSM    O1413437   5.220   2.893   6.462 -0.4185  1.0205  0.7384
  126OSM    O1113438   5.225   2.716   6.639 -0.3050 -0.0290 -0.3941
  126OSM    O1213439   5.026   2.802   6.575 -0.3986  0.1017 -0.3313
  126OSM    C1S13440   5.230   2.796   6.758  0.3641  0.2535  0.2802
  126OSM    H1S13441   5.173   2.890   6.743 -2.0241 -1.4696 -1.8482
  126OSM    H1T13442   5.337   2.806   6.790 -0.5773  1.2600  3.3097
  126OSM     NF13443   5.181   2.823   6.995  0.4140 -0.3171 -0.5757
  126OSM    HNF13444   5.253   2.796   7.058 -1.2734 -0.9537  1.1189
  126OSM    C2S13445   5.165   2.728   6.883 -0.1404 -0.1007  0.4733
  126OSM    H2S13446   5.057   2.724   6.854  0.1497  0.3487 -0.7076
  126OSM    C3S13447   5.222   2.584   6.898  0.9403 -0.5198  0.1468
  126OSM    H3S13448   5.330   2.599   6.923  0.8107 -0.9528  0.9774
  126OSM     O313449   5.227   2.500   6.787 -0.6926 -0.0748 -0.2178
  126OSM    HO313450   5.222   2.558   6.710  0.4380 -2.1454 -1.8840
  126OSM    C4S13451   5.161   2.509   7.014 -0.1384 -0.1740 -0.3684
  126OSM    H4S13452   5.217   2.526   7.106 -0.6796 -1.9465  0.3019
  126OSM    C5S13453   5.045   2.439   7.019 -0.4751 -0.1009  0.5064
  126OSM    H5S13454   4.983   2.437   6.929 -0.4606  2.2090  0.4174
  126OSM    C6S13455   4.981   2.354   7.127  0.0613 -0.1223 -0.2100
  126OSM    H6S13456   4.966   2.256   7.075 -1.3726 -0.4150  0.7251
  126OSM    H6T13457   4.885   2.398   7.162  1.5290  3.3880 -0.4082
  126OSM    C7S13458   5.062   2.300   7.251  0.6293  0.8251  0.7427
  126OSM    H7S13459   5.153   2.245   7.218  0.3296  0.1474  1.0308
  126OSM    H7T13460   4.999   2.236   7.317 -0.5900 -0.0327 -1.2405
  126OSM    C8S13461   5.109   2.405   7.346 -0.1497 -0.2972  0.1131
  126OSM    H8S13462   5.022   2.466   7.377  0.6099 -0.1925  2.1553
  126OSM    H8T13463   5.176   2.466   7.282 -1.9291  0.1603 -1.3471
  126OSM    C9S13464   5.185   2.354   7.470  0.6729 -0.1350 -0.3094
  126OSM    H9S13465   5.282   2.303   7.453 -0.1453 -1.9178  0.2736
  126OSM    H9T13466   5.115   2.280   7.515  0.4717 -0.1584 -0.6599
  126OSM   C10S13467   5.208   2.473   7.564 -0.0538 -0.0431  0.3269
  126OSM   H10S13468   5.109   2.522   7.576 -0.3695 -0.2934 -1.0696
  126OSM   H10T13469   5.268   2.546   7.506  0.2742 -1.0106 -0.5725
  126OSM   C11S13470   5.266   2.430   7.702 -0.3864  0.9651 -0.0947
  126OSM   H11S13471   5.248   2.325   7.732 -0.9324  1.0477 -0.1123
  126OSM   H11T13472   5.217   2.488   7.783 -2.3820 -1.2351  0.3378
  126OSM   C12S13473   5.415   2.468   7.725  0.4636  0.4213  0.0252
  126OSM   H12S13474   5.431   2.573   7.693  0.5338  0.6807  0.9210
  126OSM   H12T13475   5.470   2.402   7.654 -0.1428 -0.7084  0.5872
  126OSM   C13S13476   5.457   2.434   7.870  0.5596 -0.1559 -0.0682
  126OSM   H13S13477   5.414   2.337   7.901  0.6939 -0.3131 -0.3643
  126OSM   H13T13478   5.430   2.510   7.946 -1.9208 -0.7801 -0.2803
  126OSM   C14S13479   5.605   2.407   7.883 -0.3853 -0.0983 -0.0985
  126OSM   H14S13480   5.651   2.506   7.903  0.4825  0.0506 -2.6103
  126OSM   H14T13481   5.649   2.354   7.795 -2.2640 -1.2484 -0.3741
  126OSM   C15S13482   5.620   2.318   8.002  0.3555  0.0019 -0.3301
  126OSM   H15S13483   5.590   2.213   7.986 -0.9178  0.6245 -2.1324
  126OSM   H15T13484   5.553   2.350   8.084  0.6720  1.2517 -0.5388
  126OSM   C16S13485   5.767   2.303   8.058 -0.3553 -0.1846 -0.3488
  126OSM   H16S13486   5.763   2.235   8.146  2.4547 -0.4687 -0.3993
  126OSM   H16T13487   5.815   2.397   8.092  0.0038  0.0726 -1.5548
  126OSM   C17S13488   5.870   2.247   7.956 -0.5497  0.8149  0.4766
  126OSM   H17S13489   5.889   2.324   7.878 -0.2625 -1.3231 -1.6216
  126OSM   H17T13490   5.817   2.159   7.914  0.9684 -0.7697  1.7744
  126OSM   C18S13491   5.996   2.204   8.023 -0.8604 -0.3204  0.5220
  126OSM   H18S13492   5.973   2.122   8.094 -2.1727 -1.1749 -0.8816
  126OSM   H18T13493   6.037   2.290   8.081 -0.6340  0.0186 -0.1350
  126OSM   H18U13494   6.068   2.183   7.941  0.0652  1.3913  0.8573
  126OSM    C1F13495   5.117   2.942   6.996 -0.4177 -0.0929 -0.2954
  126OSM     OF13496   5.032   2.976   6.910 -1.1108  0.3932 -0.0345
  126OSM    C2F13497   5.158   3.031   7.109 -0.1983  0.4780  0.0023
  126OSM    H2F13498   5.264   3.059   7.088 -0.7282  2.3685 -0.2930
  126OSM    H2G13499   5.153   2.984   7.210 -2.4690  2.3195  0.7876
  126OSM    C3F13500   5.071   3.149   7.104  0.0337  0.0686 -0.7107
  126OSM    H3F13501   4.966   3.118   7.120 -0.0649  1.8216  2.4720
  126OSM    H3G13502   5.074   3.213   7.013  0.9637  1.6464  0.3991
  126OSM    C4F13503   5.099   3.252   7.220 -0.4654 -0.2003 -0.4261
  126OSM    H4F13504   5.030   3.339   7.208  1.1084  1.1409  0.0879
  126OSM    H4G13505   5.203   3.286   7.201 -0.3159 -0.6494 -0.4292
  126OSM    C5F13506   5.088   3.206   7.363  0.3107  0.2046 -0.1326
  126OSM    H5F13507   5.169   3.132   7.374 -0.2470 -0.6465 -1.5554
  126OSM    H5G13508   4.996   3.144   7.365  1.0089 -0.7853  3.6155
  126OSM    C6F13509   5.085   3.324   7.460 -0.8220 -0.0304 -0.4208
  126OSM    H6F13510   5.056   3.285   7.560  1.7333 -1.0201 -0.0296
  126OSM    H6G13511   5.004   3.394   7.430 -1.6505 -0.1167  1.5417
  126OSM    C7F13512   5.219   3.401   7.473 -0.3992 -0.3037 -0.0186
  126OSM    H7F13513   5.228   3.451   7.374 -0.5828 -0.6817 -0.2264
  126OSM    H7G13514   5.309   3.337   7.484  0.8697  1.1623 -1.6909
  126OSM    C8F13515   5.207   3.501   7.585  0.2460 -0.1322  0.3489
  126OSM    H8F13516   5.194   3.441   7.678 -3.1346 -1.0377 -0.6554
  126OSM    H8G13517   5.115   3.562   7.578  0.0780 -0.5258 -1.0732
  126OSM    C9F13518   5.318   3.596   7.603 -0.1376 -0.0250  0.6742
  126OSM    H9F13519   5.378   3.617   7.513  0.5800 -0.5411  1.0293
  126OSM   C10F13520   5.357   3.643   7.720  0.1175  0.3740  0.3388
  126OSM   H10F13521   5.451   3.699   7.726  0.1524  0.4269 -0.5997
  126OSM   C11F13522   5.291   3.617   7.853  0.4727  0.4294 -0.1898
  126OSM   H11F13523   5.192   3.569   7.838  0.5061  0.7971 -1.6298
  126OSM   H11G13524   5.278   3.719   7.894  1.3365 -0.3767  2.1861
  126OSM   C12F13525   5.363   3.540   7.962  1.1949  0.3147  0.5250
  126OSM   H12F13526   5.427   3.461   7.918 -1.9745 -2.2061  0.2297
  126OSM   H12G13527   5.285   3.480   8.015 -2.4967  1.7400 -3.0139
  126OSM   C13F13528   5.446   3.634   8.050  0.2656 -0.3294  0.6126
  126OSM   H13F13529   5.379   3.718   8.078  0.1486 -0.6700  1.3547
  126OSM   H13G13530   5.537   3.663   7.993 -0.3175 -1.9134 -1.2178
  126OSM   C14F13531   5.496   3.559   8.172  0.2377 -0.1775 -0.4043
  126OSM   H14F13532   5.537   3.463   8.135  0.1321 -0.8962  1.3255
  126OSM   H14G13533   5.407   3.534   8.234 -0.4442  0.1069 -1.2593
  126OSM   C15F13534   5.594   3.635   8.261 -0.1190 -0.1903 -0.0618
  126OSM   H15F13535   5.565   3.740   8.280  1.7095  0.3580 -0.1702
  126OSM   H15G13536   5.681   3.653   8.194 -0.2920 -3.9742 -1.4401
  126OSM   C16F13537   5.639   3.568   8.392 -0.3528  0.8314  0.0958
  126OSM   H16F13538   5.730   3.622   8.428 -0.0038  0.7227 -0.6083
  126OSM   H16G13539   5.679   3.468   8.367  0.6427  1.0870  0.5941
  126OSM   C17F13540   5.532   3.556   8.499 -0.4882  0.2551 -1.2573
  126OSM   H17F13541   5.559   3.495   8.588 -1.1226  0.2718 -1.0527
  126OSM   H17G13542   5.444   3.502   8.457 -0.0517 -1.7726  0.3854
  126OSM   C18F13543   5.483   3.694   8.538 -0.0174 -0.0001  0.5774
  126OSM   H18F13544   5.465   3.755   8.448  0.7053 -1.8072 -0.8207
  126OSM   H18G13545   5.563   3.758   8.580 -1.2787  2.5678 -0.8100
  126OSM   H18H13546   5.398   3.684   8.609 -0.1800 -3.0551  0.0107
  127OSM      N13547   6.538   1.523   6.131  0.2437  0.5454  0.4547
  127OSM    C1513548   6.396   1.469   6.143 -0.2707  0.2454  0.4332
  127OSM   H15A13549   6.361   1.428   6.050  1.2029  1.0609 -0.5014
  127OSM   H15B13550   6.323   1.545   6.165 -1.5128 -1.2946  1.7440
  127OSM   H15C13551   6.388   1.404   6.229 -0.9527  1.0927  1.0217
  127OSM    C1413552   6.545   1.604   6.012  0.5870  0.1444  0.1321
  127OSM   H14A13553   6.646   1.630   5.984  0.6926  0.6621  0.9658
  127OSM   H14B13554   6.487   1.693   6.032  1.5515  0.4287  1.6914
  127OSM   H14C13555   6.488   1.559   5.932  1.2289  0.1037 -0.2994
  127OSM    C1313556   6.585   1.612   6.250 -1.1579  0.0910 -0.1410
  127OSM   H13A13557   6.679   1.654   6.217 -1.5156  0.3391 -0.8578
  127OSM   H13B13558   6.606   1.555   6.339  0.6205 -0.9505 -1.1994
  127OSM   H13C13559   6.518   1.691   6.280 -0.9692  0.5430 -0.8786
  127OSM    C1213560   6.627   1.402   6.114  0.3598 -0.4524 -0.3375
  127OSM   H12A13561   6.729   1.431   6.092 -0.6439  2.2782 -1.5942
  127OSM   H12B13562   6.600   1.346   6.025 -0.1338 -0.1695 -0.3643
  127OSM    C1113563   6.636   1.308   6.236  0.2673  0.1544  0.6631
  127OSM   H11A13564   6.531   1.280   6.261  0.3264 -2.4656 -1.7851
  127OSM   H11B13565   6.677   1.371   6.318  1.0939  0.8292 -0.2653
  127OSM      P13566   6.654   1.066   6.140 -0.2744  0.1560  0.1972
  127OSM    O1313567   6.548   1.096   6.040  0.2372  0.1806 -0.4729
  127OSM    O1413568   6.764   0.984   6.090 -0.0829  0.1282 -0.3321
  127OSM    O1113569   6.594   0.989   6.261  0.2363  0.1793  0.4451
  127OSM    O1213570   6.711   1.191   6.204 -0.5677  0.2067 -0.4120
  127OSM    C1S13571   6.662   0.999   6.385 -0.2663 -0.7233 -0.4071
  127OSM    H1S13572   6.632   1.089   6.443  0.7634 -0.3390 -0.4572
  127OSM    H1T13573   6.773   0.993   6.383 -0.1287  1.6200 -1.4305
  127OSM     NF13574   6.673   0.917   6.618  0.3246 -0.3548 -0.1318
  127OSM    HNF13575   6.770   0.898   6.633  0.3005 -0.3072  0.0855
  127OSM    C2S13576   6.625   0.875   6.487 -0.0310 -0.8420 -0.2100
  127OSM    H2S13577   6.515   0.859   6.498  0.2098 -2.9436 -0.6577
  127OSM    C3S13578   6.705   0.750   6.424 -0.1052 -0.8205 -0.5692
  127OSM    H3S13579   6.803   0.786   6.386  0.0386 -0.6810 -0.0710
  127OSM     O313580   6.647   0.698   6.300 -0.4705 -0.0937 -0.3804
  127OSM    HO313581   6.590   0.766   6.262 -1.5758 -0.2090  1.0444
  127OSM    C4S13582   6.714   0.642   6.525 -0.2407 -0.3043  0.1203
  127OSM    H4S13583   6.818   0.622   6.556 -0.3993  0.6181  1.3072
  127OSM    C5S13584   6.623   0.549   6.568 -0.4291  0.0504 -0.2281
  127OSM    H5S13585   6.517   0.565   6.540 -1.2251 -2.5766  1.1694
  127OSM    C6S13586   6.658   0.434   6.660  0.2594 -0.0509  1.1183
  127OSM    H6S13587   6.762   0.449   6.695  0.8246 -0.9917 -0.1257
  127OSM    H6T13588   6.662   0.337   6.606  0.4863 -0.3776  1.7167
  127OSM    C7S13589   6.569   0.431   6.790  0.5220  0.6176 -0.5548
  127OSM    H7S13590   6.597   0.341   6.848 -0.3985  1.2875  0.9531
  127OSM    H7T13591   6.465   0.439   6.753  1.3423 -1.2578 -3.4627
  127OSM    C8S13592   6.603   0.556   6.880  0.5245 -0.5287 -0.3004
  127OSM    H8S13593   6.560   0.649   6.838 -0.5083 -1.2080 -0.7743
  127OSM    H8T13594   6.712   0.569   6.895  0.6115  1.0025 -2.1734
  127OSM    C9S13595   6.547   0.533   7.015  0.9311 -0.9682 -0.2896
  127OSM    H9S13596   6.575   0.440   7.070  2.5997 -1.0728 -1.2712
  127OSM    H9T13597   6.437   0.526   7.004  0.7923 -1.8843  1.4257
  127OSM   C10S13598   6.571   0.646   7.120 -0.1233  0.1939  1.5843
  127OSM   H10S13599   6.523   0.743   7.093  3.1940  1.1085 -1.3147
  127OSM   H10T13600   6.679   0.669   7.115  0.0506 -0.5762  1.7754
  127OSM   C11S13601   6.538   0.596   7.260 -0.4109  0.4338 -0.2465
  127OSM   H11S13602   6.553   0.487   7.273 -0.9516  0.5270  1.2018
  127OSM   H11T13603   6.429   0.612   7.270  0.0060  2.2461  1.6197
  127OSM   C12S13604   6.614   0.674   7.370  0.0371 -0.6826  0.2314
  127OSM   H12S13605   6.622   0.781   7.342  1.2099 -1.1747 -1.4113
  127OSM   H12T13606   6.717   0.637   7.353 -0.4671 -1.2625 -1.6875
  127OSM   C13S13607   6.578   0.658   7.519  0.2130  0.1695  0.0811
  127OSM   H13S13608   6.571   0.548   7.535 -3.8151 -0.2084 -3.3666
  127OSM   H13T13609   6.473   0.691   7.530  0.2782  0.7706 -1.0499
  127OSM   C14S13610   6.652   0.745   7.623 -0.1271  0.3491 -0.4516
  127OSM   H14S13611   6.643   0.854   7.604 -2.0189  0.3318  0.2521
  127OSM   H14T13612   6.759   0.714   7.632  0.2734  1.9524  0.5473
  127OSM   C15S13613   6.594   0.722   7.770  0.0959  0.2276 -0.2915
  127OSM   H15S13614   6.483   0.727   7.763 -0.0009 -2.5108 -1.2660
  127OSM   H15T13615   6.623   0.801   7.843 -0.0802  0.5042 -0.5238
  127OSM   C16S13616   6.647   0.596   7.844  0.3755 -0.1813  0.1348
  127OSM   H16S13617   6.744   0.579   7.792 -0.4615 -0.7088 -1.2752
  127OSM   H16T13618   6.583   0.506   7.833  0.3978 -0.3524  1.3283
  127OSM   C17S13619   6.665   0.631   7.988 -0.3818  0.2366  0.3190
  127OSM   H17S13620   6.561   0.645   8.024 -0.5006  0.6401 -0.1711
  127OSM   H17T13621   6.717   0.727   8.010 -0.7876  0.1348  1.7786
  127OSM   C18S13622   6.730   0.513   8.065  0.2586 -0.1101  0.0679
  127OSM   H18S13623   6.833   0.482   8.036 -0.4330 -1.1999 -1.3035
  127OSM   H18T13624   6.667   0.423   8.050 -0.4114  0.2902  0.4465
  127OSM   H18U13625   6.733   0.533   8.174  0.8325 -0.6533  0.1508
  127OSM    C1F13626   6.593   0.997   6.694  0.0879  0.4812  0.2650
  127OSM     OF13627   6.479   1.033   6.656 -0.5902  0.4772 -0.2013
  127OSM    C2F13628   6.652   1.060   6.814 -0.2498 -0.3325 -0.0023
  127OSM    H2F13629   6.679   1.164   6.786 -0.4781  0.4362  2.4695
  127OSM    H2G13630   6.738   0.994   6.838 -1.0148 -0.2879  3.0405
  127OSM    C3F13631   6.555   1.050   6.934  0.8909 -0.5183 -0.5486
  127OSM    H3F13632   6.529   0.942   6.943  3.9578 -1.1272  1.7659
  127OSM    H3G13633   6.464   1.111   6.914  0.8061  0.3954  2.4625
  127OSM    C4F13634   6.608   1.092   7.073 -0.0355  0.1406  0.0482
  127OSM    H4F13635   6.668   1.185   7.065 -0.3502  0.2900 -0.6338
  127OSM    H4G13636   6.678   1.017   7.115 -0.7025 -1.4751 -1.6718
  127OSM    C5F13637   6.497   1.115   7.180 -0.6564  0.2954  0.1460
  127OSM    H5F13638   6.431   1.027   7.193  0.6355 -0.7715 -0.3952
  127OSM    H5G13639   6.437   1.204   7.149 -1.9032 -0.0483  1.4929
  127OSM    C6F13640   6.559   1.138   7.318  0.2079  0.3811 -0.6276
  127OSM    H6F13641   6.593   1.244   7.323 -0.0272  0.3917  1.0062
  127OSM    H6G13642   6.648   1.071   7.322 -0.4443 -0.4587  0.0430
  127OSM    C7F13643   6.470   1.109   7.426 -0.5257  0.0811  0.6000
  127OSM    H7F13644   6.433   1.005   7.424 -4.3394  1.3794  0.4371
  127OSM    H7G13645   6.380   1.173   7.415 -0.0003  0.8764  0.8699
  127OSM    C8F13646   6.527   1.136   7.564  0.4757  0.1788 -0.0373
  127OSM    H8F13647   6.557   1.242   7.558 -1.7675  0.8668  0.4803
  127OSM    H8G13648   6.615   1.067   7.562  0.6117  0.3648 -3.4643
  127OSM    C9F13649   6.425   1.115   7.677  0.7969  0.0419 -0.0201
  127OSM    H9F13650   6.357   1.030   7.659 -0.5642  1.2085 -0.4771
  127OSM   C10F13651   6.408   1.189   7.784  0.4024  0.3795 -0.6108
  127OSM   H10F13652   6.319   1.172   7.846  0.0185  3.3737 -0.2470
  127OSM   C11F13653   6.475   1.317   7.818 -0.8091 -0.1496 -0.1541
  127OSM   H11F13654   6.521   1.355   7.725 -2.3593  0.8372 -0.5326
  127OSM   H11G13655   6.557   1.311   7.893 -0.8332  0.5584 -0.0687
  127OSM   C12F13656   6.378   1.425   7.871  0.3770 -0.3929  0.0469
  127OSM   H12F13657   6.314   1.448   7.783  1.0895 -0.8750 -0.5958
  127OSM   H12G13658   6.451   1.507   7.888  0.1992  0.0114 -1.1099
  127OSM   C13F13659   6.322   1.405   8.018 -0.0205  0.4808  0.1135
  127OSM   H13F13660   6.410   1.393   8.085 -0.1016  1.1834  0.3445
  127OSM   H13G13661   6.267   1.309   8.011 -0.3420  0.7548 -1.2772
  127OSM   C14F13662   6.242   1.517   8.075 -0.0325  1.5030  0.0898
  127OSM   H14F13663   6.193   1.483   8.169 -0.0153 -1.0247 -0.7736
  127OSM   H14G13664   6.159   1.534   8.004 -0.9389 -1.0022  0.5010
  127OSM   C15F13665   6.317   1.645   8.094  0.6927  0.5420  0.2858
  127OSM   H15F13666   6.349   1.682   7.994  0.6701 -1.2099 -0.3711
  127OSM   H15G13667   6.415   1.630   8.145  1.5354 -0.9710 -1.7161
  127OSM   C16F13668   6.229   1.750   8.161  0.3961 -0.4519 -0.1443
  127OSM   H16F13669   6.124   1.753   8.125  0.6585  1.1881 -0.8308
  127OSM   H16G13670   6.269   1.853   8.148  0.8348 -0.7942 -1.6404
  127OSM   C17F13671   6.215   1.740   8.311  1.0417 -0.1571 -0.0896
  127OSM   H17F13672   6.315   1.729   8.358  1.0858  0.9776  0.1067
  127OSM   H17G13673   6.156   1.649   8.335  2.4216 -0.7101  1.3015
  127OSM   C18F13674   6.150   1.861   8.374  0.6711 -0.2415  0.2636
  127OSM   H18F13675   6.153   1.866   8.485 -0.0916  0.8379  0.2362
  127OSM   H18G13676   6.049   1.868   8.330  1.3612  0.4125 -1.2711
  127OSM   H18H13677   6.205   1.952   8.342  2.0433 -1.5289 -1.1651
  128OSM      N13678   1.744   4.586   6.039  0.2229 -0.4077  0.5205
  128OSM    C1513679   1.670   4.704   5.987  0.2357 -0.2068  0.2359
  128OSM   H15A13680   1.595   4.681   5.913 -0.9876 -2.0133  1.9634
  128OSM   H15B13681   1.732   4.762   5.921  1.3470 -1.2529  0.3458
  128OSM   H15C13682   1.631   4.766   6.067  1.5876  1.0545 -0.0677
  128OSM    C1413683   1.646   4.515   6.140  0.2954  0.3168  0.2712
  128OSM   H14A13684   1.631   4.582   6.223 -1.3513 -2.0998  2.0059
  128OSM   H14B13685   1.703   4.430   6.175  2.5338  1.9575  0.7266
  128OSM   H14C13686   1.552   4.477   6.101  0.0637  0.6440  0.5098
  128OSM    C1313687   1.774   4.495   5.929  0.0460 -0.0557  0.1350
  128OSM   H13A13688   1.810   4.398   5.959 -0.3608 -0.4111 -0.4914
  128OSM   H13B13689   1.852   4.540   5.871  0.2487  1.4276  1.5342
  128OSM   H13C13690   1.682   4.468   5.878  0.6259 -0.3555 -0.7553
  128OSM    C1213691   1.869   4.617   6.118  0.1239 -1.3454 -0.2806
  128OSM   H12A13692   1.931   4.687   6.063  1.1831 -1.8076  0.2983
  128OSM   H12B13693   1.935   4.533   6.132  0.7184 -1.0731 -1.4297
  128OSM    C1113694   1.849   4.698   6.245 -0.0253  0.1330  0.6195
  128OSM   H11A13695   1.803   4.630   6.319 -1.3361  0.9988  0.6223
  128OSM   H11B13696   1.777   4.781   6.230 -0.1385 -0.5078 -2.8134
  128OSM      P13697   2.008   4.893   6.307 -0.0472  0.7101  0.0292
  128OSM    O1313698   2.114   4.912   6.404 -0.0153  0.2850 -0.2272
  128OSM    O1413699   2.031   4.938   6.170  0.7006 -0.0399  0.3321
  128OSM    O1113700   1.873   4.954   6.363 -0.0390 -0.1097  0.1948
  128OSM    O1213701   1.975   4.734   6.294 -0.2587  0.2584  0.1794
  128OSM    C1S13702   1.814   4.898   6.484 -0.5293 -0.6633  0.3153
  128OSM    H1S13703   1.858   4.798   6.503 -2.2625 -0.9682  3.0188
  128OSM    H1T13704   1.703   4.903   6.486 -0.4594  1.0761  1.5916
  128OSM     NF13705   1.805   4.900   6.733  0.0119  0.0519 -0.8816
  128OSM    HNF13706   1.719   4.936   6.766 -1.1605 -1.1059 -2.5584
  128OSM    C2S13707   1.858   4.973   6.620 -0.4617  0.0406  0.4413
  128OSM    H2S13708   1.969   4.967   6.621 -0.3950  1.2814  1.0547
  128OSM    C3S13709   1.817   5.122   6.620  0.5717 -0.4225  0.3168
  128OSM    H3S13710   1.708   5.145   6.617  0.1903 -1.7916  2.6766
  128OSM     O313711   1.881   5.208   6.521 -0.1242  0.0965  0.4150
  128OSM    HO313712   1.926   5.144   6.466 -1.0979 -0.3453  0.1253
  128OSM    C4S13713   1.850   5.176   6.764  0.0499 -0.1089  0.1049
  128OSM    H4S13714   1.768   5.161   6.835  0.6694  1.5114  1.1781
  128OSM    C5S13715   1.965   5.239   6.800 -0.8968  0.1511  0.5256
  128OSM    H5S13716   2.046   5.251   6.727 -0.4655  0.1683  1.0064
  128OSM    C6S13717   1.993   5.300   6.936 -0.3609 -0.7340  0.2507
  128OSM    H6S13718   1.958   5.405   6.934 -0.3922 -0.7487  0.0154
  128OSM    H6T13719   2.101   5.279   6.954  0.5977  1.6015 -2.3634
  128OSM    C7S13720   1.916   5.237   7.058 -0.0910  1.0410  0.1956
  128OSM    H7S13721   1.937   5.128   7.055 -1.0138  0.8809 -0.4849
  128OSM    H7T13722   1.810   5.269   7.049 -0.1475  0.6354 -0.6351
  128OSM    C8S13723   1.963   5.298   7.187  0.1002  0.3366 -0.2501
  128OSM    H8S13724   1.959   5.409   7.186  0.7947  0.3629 -0.5815
  128OSM    H8T13725   2.070   5.268   7.184 -0.2673 -1.0161 -0.4128
  128OSM    C9S13726   1.896   5.246   7.318  0.5055  0.2481 -0.1130
  128OSM    H9S13727   1.891   5.136   7.326 -0.0188  0.1659 -1.5504
  128OSM    H9T13728   1.792   5.283   7.305  1.1210  1.4741 -1.7523
  128OSM   C10S13729   1.938   5.306   7.454  0.8166 -0.4370 -0.3369
  128OSM   H10S13730   1.936   5.417   7.456 -1.6289 -0.4582  1.2789
  128OSM   H10T13731   2.042   5.278   7.478  1.5339  2.5717  0.2897
  128OSM   C11S13732   1.852   5.247   7.573 -0.2536  0.2432  0.0502
  128OSM   H11S13733   1.856   5.143   7.534  0.8567 -0.3088  1.6029
  128OSM   H11T13734   1.748   5.286   7.561 -0.7535 -1.3465 -1.0962
  128OSM   C12S13735   1.911   5.248   7.714 -0.4451 -0.9435 -0.2041
  128OSM   H12S13736   1.927   5.354   7.742 -0.0443 -0.5638 -1.8588
  128OSM   H12T13737   2.011   5.202   7.700 -0.6356 -0.8945 -1.8299
  128OSM   C13S13738   1.832   5.177   7.818 -0.2054  0.1256 -0.7987
  128OSM   H13S13739   1.867   5.073   7.830  2.6931  1.1238 -0.3551
  128OSM   H13T13740   1.722   5.188   7.805 -0.3959  0.3190  0.8799
  128OSM   C14S13741   1.854   5.237   7.954 -0.6159  0.0959  0.5464
  128OSM   H14S13742   1.790   5.327   7.968  0.0927  0.8513 -0.9348
  128OSM   H14T13743   1.961   5.265   7.963  0.5051 -2.5260 -3.3600
  128OSM   C15S13744   1.818   5.143   8.070 -0.2011  0.0912  0.4420
  128OSM   H15S13745   1.873   5.047   8.062 -0.3807 -0.1219  1.5767
  128OSM   H15T13746   1.710   5.118   8.062 -0.3297 -0.0810  2.3458
  128OSM   C16S13747   1.818   5.220   8.209  0.1850  0.2683  1.0576
  128OSM   H16S13748   1.760   5.313   8.193 -0.1921 -0.2549 -0.6990
  128OSM   H16T13749   1.922   5.235   8.245 -0.2324  0.0067  2.3793
  128OSM   C17S13750   1.746   5.129   8.306  0.0881  0.0046 -0.0300
  128OSM   H17S13751   1.795   5.155   8.402  0.4477 -0.3533 -0.1166
  128OSM   H17T13752   1.766   5.022   8.281  2.4363  0.2257  0.8212
  128OSM   C18S13753   1.599   5.158   8.321  0.6976 -0.0268  0.0232
  128OSM   H18S13754   1.559   5.087   8.396  0.0910  2.2227  1.8741
  128OSM   H18T13755   1.550   5.154   8.221  0.7504 -1.3037  0.0456
  128OSM   H18U13756   1.589   5.264   8.353 -2.1649 -0.4558  0.6622
  128OSM    C1F13757   1.838   4.775   6.776 -0.3725  0.6421 -0.1573
  128OSM     OF13758   1.908   4.697   6.715 -1.0424 -0.3140  0.7229
  128OSM    C2F13759   1.764   4.732   6.891 -0.9114  0.1685  0.0219
  128OSM    H2F13760   1.668   4.689   6.857 -1.8089  1.3249  1.0690
  128OSM    H2G13761   1.761   4.816   6.963 -2.9515  0.2261 -0.1227
  128OSM    C3F13762   1.833   4.618   6.974 -0.3289  0.1161 -0.1267
  128OSM    H3F13763   1.935   4.656   6.992 -0.7533  0.2215  2.1764
  128OSM    H3G13764   1.840   4.527   6.909  1.2956  1.0675 -1.3130
  128OSM    C4F13765   1.757   4.587   7.111 -0.8136  0.2935  0.1155
  128OSM    H4F13766   1.805   4.497   7.155 -2.4276 -0.8799 -0.5269
  128OSM    H4G13767   1.653   4.560   7.085 -0.2246 -2.1313  0.1335
  128OSM    C5F13768   1.761   4.707   7.207 -0.6302  0.4746  0.4104
  128OSM    H5F13769   1.685   4.784   7.182 -0.2066  0.8705  0.3420
  128OSM    H5G13770   1.856   4.760   7.184  0.6091 -1.5058  0.8416
  128OSM    C6F13771   1.751   4.661   7.355 -0.0897  0.2761 -0.2899
  128OSM    H6F13772   1.849   4.624   7.393 -0.9146 -0.1045  1.5175
  128OSM    H6G13773   1.674   4.586   7.382  0.7161 -0.6541 -0.5270
  128OSM    C7F13774   1.720   4.785   7.447  0.0175  0.2953  0.9875
  128OSM    H7F13775   1.620   4.827   7.424  0.9072  2.4269  0.8840
  128OSM    H7G13776   1.803   4.859   7.438  1.1439 -0.8305  1.9219
  128OSM    C8F13777   1.730   4.745   7.594  0.3008  0.6832 -0.3445
  128OSM    H8F13778   1.826   4.691   7.610 -0.7598 -0.5105  2.3680
  128OSM    H8G13779   1.652   4.669   7.617  0.4938  0.1273 -1.5242
  128OSM    C9F13780   1.723   4.868   7.677 -0.0428 -0.2515  0.3270
  128OSM    H9F13781   1.794   4.949   7.653 -0.2125  0.6213  2.6536
  128OSM   C10F13782   1.630   4.897   7.771 -0.0915  0.1214  0.5951
  128OSM   H10F13783   1.631   4.982   7.840  0.0901 -0.0164  0.7630
  128OSM   C11F13784   1.521   4.807   7.820  0.1070 -0.5823  0.1519
  128OSM   H11F13785   1.486   4.757   7.727  2.0058  2.4484 -2.2887
  128OSM   H11G13786   1.435   4.864   7.860 -0.0349 -1.1008  0.6042
  128OSM   C12F13787   1.543   4.700   7.935  0.3089  0.4696  0.0201
  128OSM   H12F13788   1.612   4.620   7.900  0.7695  1.8133 -2.2983
  128OSM   H12G13789   1.443   4.654   7.949  0.5478  0.1149  0.5706
  128OSM   C13F13790   1.598   4.753   8.073  0.5527  0.5853 -0.6962
  128OSM   H13F13791   1.538   4.843   8.101  1.3949  0.6009  1.1096
  128OSM   H13G13792   1.703   4.781   8.054  0.8478  1.4602  1.9994
  128OSM   C14F13793   1.595   4.641   8.175  0.8238  0.0612  0.6400
  128OSM   H14F13794   1.665   4.570   8.125 -1.7939 -2.4168  0.3988
  128OSM   H14G13795   1.496   4.591   8.179  0.7108 -0.1886 -2.9011
  128OSM   C15F13796   1.639   4.690   8.320 -0.0939 -0.0451  0.5995
  128OSM   H15F13797   1.565   4.764   8.354 -0.1429  1.0172 -1.7137
  128OSM   H15G13798   1.735   4.745   8.309  1.1856 -2.3001  0.0957
  128OSM   C16F13799   1.656   4.584   8.422 -0.0002 -0.4743  0.0718
  128OSM   H16F13800   1.737   4.512   8.398  1.4934  2.0390 -2.8211
  128OSM   H16G13801   1.559   4.530   8.431 -1.5243  1.8161 -2.0034
  128OSM   C17F13802   1.687   4.640   8.564 -0.3075 -0.4602  0.3160
  128OSM   H17F13803   1.595   4.692   8.599 -0.4090  0.8243 -1.7787
  128OSM   H17G13804   1.769   4.714   8.548 -0.4729 -0.3449  0.0100
  128OSM   C18F13805   1.707   4.536   8.668  0.3267  0.3557  0.1727
  128OSM   H18F13806   1.637   4.451   8.677  1.2000 -0.2771  1.2488
  128OSM   H18G13807   1.714   4.595   8.762 -3.0963 -0.2567  0.8667
  128OSM   H18H13808   1.808   4.490   8.656 -0.1019 -0.1565 -1.6177
  129OSM      N13809   5.708   1.923   6.501 -1.0476 -0.2723 -0.2754
  129OSM    C1513810   5.577   1.969   6.459 -0.7157  0.2144  0.1538
  129OSM   H15A13811   5.504   1.975   6.538 -0.9746  0.2581 -0.0882
  129OSM   H15B13812   5.540   1.919   6.370  4.3857 -2.2831 -0.7227
  129OSM   H15C13813   5.587   2.072   6.427  1.8588  0.0730  0.4162
  129OSM    C1413814   5.747   2.008   6.615 -0.6337 -0.6064  0.1529
  129OSM   H14A13815   5.676   1.993   6.695 -0.9584  0.7446  0.1399
  129OSM   H14B13816   5.743   2.112   6.586  0.0726 -0.4881  0.4860
  129OSM   H14C13817   5.849   1.995   6.649 -0.2869 -0.8287 -0.9433
  129OSM    C1313818   5.706   1.772   6.549 -0.1978  0.1585 -0.0989
  129OSM   H13A13819   5.675   1.709   6.467  1.3657  0.1059 -0.6764
  129OSM   H13B13820   5.640   1.759   6.634 -0.8005  1.2074 -0.3971
  129OSM   H13C13821   5.806   1.738   6.571  0.1055  0.2945 -1.2237
  129OSM    C1213822   5.814   1.941   6.390  0.1159  0.1740  0.2358
  129OSM   H12A13823   5.805   2.035   6.338 -1.9715 -0.8945 -1.4622
  129OSM   H12B13824   5.771   1.876   6.315 -1.6216  0.7068  0.7417
  129OSM    C1113825   5.954   1.892   6.409 -0.9859 -1.3775  0.0717
  129OSM   H11A13826   5.989   1.930   6.507 -2.6103 -1.0117  0.5332
  129OSM   H11B13827   6.021   1.932   6.330  0.5793 -0.8233  1.6513
  129OSM      P13828   5.988   1.658   6.296 -0.1732  0.1075  0.2111
  129OSM    O1313829   5.876   1.671   6.202 -0.2730 -0.2212 -0.2894
  129OSM    O1413830   6.124   1.679   6.237  0.4406  0.0617 -0.3711
  129OSM    O1113831   5.990   1.525   6.370  0.1561  0.4252  0.0921
  129OSM    O1213832   5.959   1.752   6.419  0.0659 -0.4309  0.2849
  129OSM    C1S13833   6.108   1.480   6.434 -0.7796  0.1193 -0.2775
  129OSM    H1S13834   6.202   1.512   6.385  1.9663  0.0330  4.5557
  129OSM    H1T13835   6.116   1.372   6.408 -0.3385  0.3287 -1.0126
  129OSM     NF13836   6.243   1.450   6.640 -0.1103  0.4876  0.0113
  129OSM    HNF13837   6.231   1.362   6.684  1.2300 -0.4563 -1.4680
  129OSM    C2S13838   6.120   1.509   6.583 -0.3321  0.4487  0.8387
  129OSM    H2S13839   6.150   1.615   6.598  1.5481  0.1732 -0.7011
  129OSM    C3S13840   5.987   1.468   6.658 -0.1740 -0.9194 -0.2402
  129OSM    H3S13841   5.978   1.357   6.649  0.6642 -1.0745  0.7487
  129OSM     O313842   5.863   1.511   6.603 -0.3147 -0.2826 -0.0928
  129OSM    HO313843   5.897   1.539   6.517 -2.1387  0.7510 -0.4962
  129OSM    C4S13844   5.989   1.518   6.799 -0.3218  0.2444  0.2960
  129OSM    H4S13845   5.976   1.627   6.802 -1.6968  0.1220 -1.1142
  129OSM    C5S13846   6.003   1.436   6.904 -0.1020  0.2844  0.4020
  129OSM    H5S13847   6.015   1.327   6.892 -0.7094  0.3836 -1.2132
  129OSM    C6S13848   6.013   1.472   7.047  0.2468  0.1934 -0.2898
  129OSM    H6S13849   5.926   1.448   7.111  1.2603 -1.1105  0.6382
  129OSM    H6T13850   6.037   1.580   7.061  2.3867 -0.4641  1.4366
  129OSM    C7S13851   6.133   1.393   7.090 -0.2666  0.0747 -0.0198
  129OSM    H7S13852   6.226   1.407   7.032 -0.0161 -2.9461 -0.4290
  129OSM    H7T13853   6.097   1.289   7.074 -2.2318  0.7815 -0.4188
  129OSM    C8S13854   6.164   1.402   7.242  0.3100  0.4089 -0.0592
  129OSM    H8S13855   6.190   1.508   7.265 -1.2877  0.5995  0.9441
  129OSM    H8T13856   6.258   1.343   7.254  0.2585 -0.0554 -1.8046
  129OSM    C9S13857   6.048   1.378   7.337  0.0674  0.3379  0.3674
  129OSM    H9S13858   6.035   1.268   7.331 -2.2941  0.5072  2.0388
  129OSM    H9T13859   5.957   1.434   7.308  0.2269 -0.3719 -1.6109
  129OSM   C10S13860   6.076   1.403   7.487 -0.0475  0.0541 -0.6565
  129OSM   H10S13861   6.080   1.512   7.506 -1.3839 -0.3574  2.3711
  129OSM   H10T13862   6.178   1.362   7.506 -0.9929 -1.2893  1.7159
  129OSM   C11S13863   5.973   1.330   7.575 -0.2751  0.0691  0.4503
  129OSM   H11S13864   5.989   1.220   7.567  4.3527  0.6593  0.1862
  129OSM   H11T13865   5.867   1.350   7.548  0.4712  0.6843 -2.1225
  129OSM   C12S13866   5.996   1.353   7.721  0.0332  0.2443 -0.2380
  129OSM   H12S13867   5.988   1.462   7.742  0.2135  0.5668 -1.7822
  129OSM   H12T13868   6.103   1.325   7.731  0.6713  2.3589 -0.7218
  129OSM   C13S13869   5.911   1.276   7.825  0.2448 -0.5286 -0.2584
  129OSM   H13S13870   5.921   1.168   7.801  0.5343 -0.5247 -0.1584
  129OSM   H13T13871   5.805   1.310   7.821 -0.1477 -1.8524 -1.5366
  129OSM   C14S13872   5.965   1.286   7.969  0.0413  0.1763  0.0373
  129OSM   H14S13873   5.953   1.389   8.010 -0.4782  0.4331 -0.7566
  129OSM   H14T13874   6.074   1.265   7.962 -0.3833 -1.5387 -1.7299
  129OSM   C15S13875   5.893   1.191   8.067 -0.2661 -0.2738 -0.7676
  129OSM   H15S13876   5.915   1.090   8.028 -0.0391 -0.1274 -1.0235
  129OSM   H15T13877   5.783   1.201   8.053 -0.1913 -0.1749 -1.3083
  129OSM   C16S13878   5.940   1.188   8.219  0.0593 -0.3854  0.4292
  129OSM   H16S13879   6.044   1.151   8.229  0.5427  1.2308  1.6085
  129OSM   H16T13880   5.878   1.114   8.275 -0.7788  0.6034  0.8251
  129OSM   C17S13881   5.930   1.318   8.300  0.3671  0.3056  0.7831
  129OSM   H17S13882   5.820   1.334   8.294  0.5195  0.8462 -0.6589
  129OSM   H17T13883   5.991   1.396   8.249 -0.3692  0.5842  0.3190
  129OSM   C18S13884   5.972   1.303   8.444 -0.0169 -0.3297 -0.3159
  129OSM   H18S13885   5.971   1.399   8.500  1.1476  1.3428 -3.0926
  129OSM   H18T13886   6.077   1.269   8.439  0.2677  0.5002 -0.0513
  129OSM   H18U13887   5.906   1.229   8.495  0.8100 -2.8725 -2.8027
  129OSM    C1F13888   6.370   1.476   6.607  0.3442  0.5274  0.1639
  129OSM     OF13889   6.392   1.580   6.546 -0.1092 -0.1988 -0.1984
  129OSM    C2F13890   6.487   1.389   6.659 -0.9042 -0.1907 -0.2403
  129OSM    H2F13891   6.502   1.307   6.584  0.8653  1.7888 -2.1348
  129OSM    H2G13892   6.460   1.349   6.759  0.5604 -1.5143 -0.3407
  129OSM    C3F13893   6.619   1.462   6.687  0.0067 -0.1876 -0.4551
  129OSM    H3F13894   6.661   1.487   6.587 -0.3915 -0.8275 -0.7820
  129OSM    H3G13895   6.690   1.387   6.728 -0.8494 -0.9017 -0.2654
  129OSM    C4F13896   6.621   1.579   6.789 -0.4034  0.3381 -0.6609
  129OSM    H4F13897   6.556   1.662   6.753  0.1946  0.8208 -0.6438
  129OSM    H4G13898   6.722   1.619   6.812 -1.1287  2.7486 -1.5121
  129OSM    C5F13899   6.541   1.531   6.909  0.3650  0.4054 -0.7318
  129OSM    H5F13900   6.577   1.430   6.939  0.0863  0.8705  1.2582
  129OSM    H5G13901   6.437   1.507   6.880  1.3567 -3.1865 -1.5757
  129OSM    C6F13902   6.576   1.602   7.038  0.6093 -0.4372  0.2895
  129OSM    H6F13903   6.553   1.710   7.025  0.8256 -0.2477  1.3812
  129OSM    H6G13904   6.684   1.578   7.048  0.6074 -0.7588 -0.3878
  129OSM    C7F13905   6.498   1.553   7.161  0.4915  0.8696  0.0946
  129OSM    H7F13906   6.488   1.442   7.162 -1.2483  0.9961 -1.2721
  129OSM    H7G13907   6.394   1.592   7.163 -0.7094 -2.1668 -0.0258
  129OSM    C8F13908   6.561   1.578   7.294  0.6548 -0.6224 -0.0435
  129OSM    H8F13909   6.571   1.687   7.310 -1.1097 -0.3377 -0.8175
  129OSM    H8G13910   6.667   1.544   7.292  1.1484  0.9028 -0.8517
  129OSM    C9F13911   6.494   1.514   7.413 -0.1940 -0.1954  0.2399
  129OSM    H9F13912   6.506   1.405   7.416 -0.4930 -0.1986  1.7034
  129OSM   C10F13913   6.420   1.574   7.509 -0.9936  0.3964 -0.5326
  129OSM   H10F13914   6.399   1.518   7.602  0.1081  0.0850 -0.4704
  129OSM   C11F13915   6.402   1.718   7.508  0.4725  0.2852 -0.4959
  129OSM   H11F13916   6.367   1.767   7.414 -1.4008  0.5063  0.3153
  129OSM   H11G13917   6.496   1.774   7.530  0.5455  0.4020 -1.0950
  129OSM   C12F13918   6.309   1.764   7.623  0.3888 -0.2837  0.3525
  129OSM   H12F13919   6.358   1.759   7.722 -1.0878  3.2466  1.3409
  129OSM   H12G13920   6.221   1.698   7.633  0.5619 -0.7851 -1.2202
  129OSM   C13F13921   6.253   1.907   7.615  0.1386 -0.2413  0.6841
  129OSM   H13F13922   6.327   1.987   7.591 -1.4530  0.9881 -0.2104
  129OSM   H13G13923   6.200   1.941   7.707 -1.1420  1.5715 -0.7066
  129OSM   C14F13924   6.137   1.919   7.513  0.9662  0.3029 -0.0588
  129OSM   H14F13925   6.066   1.842   7.550  1.1488  1.5074  3.0093
  129OSM   H14G13926   6.173   1.889   7.413 -0.0272 -1.4903  0.1190
  129OSM   C15F13927   6.076   2.064   7.505 -0.1700 -0.1795  0.5580
  129OSM   H15F13928   6.157   2.136   7.533 -0.5613  1.6449 -2.6923
  129OSM   H15G13929   5.994   2.082   7.577 -0.3347  0.1319  0.2903
  129OSM   C16F13930   6.013   2.082   7.366 -0.1827 -0.3507  0.1232
  129OSM   H16F13931   5.919   2.141   7.372 -0.0332  0.0806 -1.6745
  129OSM   H16G13932   5.983   1.981   7.330 -1.8275  0.3597 -0.4934
  129OSM   C17F13933   6.105   2.154   7.264  0.6159  0.4617  0.4387
  129OSM   H17F13934   6.211   2.135   7.292  0.4231  0.4608  1.1719
  129OSM   H17G13935   6.101   2.261   7.293  0.1446  1.0191 -1.6240
  129OSM   C18F13936   6.055   2.139   7.119  0.3024 -0.2401 -0.3054
  129OSM   H18F13937   5.945   2.157   7.123  0.5906  1.4701  0.5694
  129OSM   H18G13938   6.069   2.040   7.072 -2.4053 -0.6810 -0.2920
  129OSM   H18H13939   6.105   2.207   7.046  0.1744  1.0165  0.7434
  130OSM      N13940   2.166   3.769   6.203  0.3619 -0.3459 -0.4061
  130OSM    C1513941   2.026   3.738   6.164 -0.1766 -0.1221 -0.1192
  130OSM   H15A13942   2.000   3.657   6.230  0.5374 -2.4252 -2.5729
  130OSM   H15B13943   2.021   3.693   6.066 -3.2156  1.6825 -0.8697
  130OSM   H15C13944   1.957   3.821   6.173  1.3937  1.1752  0.1141
  130OSM    C1413945   2.174   3.780   6.351 -0.1467 -0.2254 -1.0814
  130OSM   H14A13946   2.140   3.689   6.398  0.2396  0.4865  0.6272
  130OSM   H14B13947   2.099   3.855   6.374  0.2859  0.6336 -2.4184
  130OSM   H14C13948   2.275   3.809   6.375 -0.8641  0.3720  1.3549
  130OSM    C1313949   2.244   3.640   6.169  0.1339 -0.4356 -0.1968
  130OSM   H13A13950   2.249   3.626   6.062 -1.3539  1.1117 -0.4898
  130OSM   H13B13951   2.209   3.556   6.227 -1.2375 -0.7814 -1.4995
  130OSM   H13C13952   2.348   3.645   6.200 -0.3489 -2.6386  1.8960
  130OSM    C1213953   2.212   3.888   6.128 -0.3157 -0.1172 -0.2993
  130OSM   H12A13954   2.221   3.863   6.023 -0.8842 -1.1416 -0.1143
  130OSM   H12B13955   2.310   3.912   6.166 -0.5351  0.1825  0.0878
  130OSM    C1113956   2.138   4.025   6.126 -0.5081  0.3077 -0.5420
  130OSM   H11A13957   2.133   4.068   6.229 -0.3738  0.0415 -0.4217
  130OSM   H11B13958   2.036   4.011   6.085 -0.7595 -0.5483  0.3500
  130OSM      P13959   2.343   4.183   6.056 -0.0082  0.3573 -0.1416
  130OSM    O1313960   2.443   4.124   5.965  0.7567  0.2508  0.9364
  130OSM    O1413961   2.326   4.331   6.046  0.0443 -0.0111 -0.2956
  130OSM    O1113962   2.374   4.147   6.212  0.0413  0.2182  0.0227
  130OSM    O1213963   2.203   4.115   6.036 -0.1978 -0.0661  0.3265
  130OSM    C1S13964   2.319   4.222   6.315 -0.8606  0.0276 -0.5721
  130OSM    H1S13965   2.213   4.251   6.301 -0.3330  2.5030  0.2872
  130OSM    H1T13966   2.374   4.318   6.308 -0.8460  0.2086  1.6764
  130OSM     NF13967   2.246   4.247   6.544  0.3838  0.3478  0.3914
  130OSM    HNF13968   2.293   4.322   6.590 -1.3870 -0.6614  4.0264
  130OSM    C2S13969   2.328   4.161   6.456 -0.3954  0.7507  0.5360
  130OSM    H2S13970   2.280   4.061   6.456  2.4077 -0.6606 -1.0369
  130OSM    C3S13971   2.481   4.151   6.494 -0.2172  0.0887  0.6371
  130OSM    H3S13972   2.526   4.250   6.515 -1.4244  0.7413  0.2384
  130OSM     O313973   2.558   4.098   6.388 -0.1651 -0.3996 -0.1852
  130OSM    HO313974   2.494   4.114   6.317 -1.1013  1.2613  0.9844
  130OSM    C4S13975   2.496   4.068   6.620 -0.3292 -0.3639  0.1000
  130OSM    H4S13976   2.445   3.970   6.619 -1.9789  0.4696 -2.0403
  130OSM    C5S13977   2.560   4.102   6.730  0.1667 -0.5969 -0.5692
  130OSM    H5S13978   2.602   4.203   6.728 -0.5800 -0.2983 -1.4985
  130OSM    C6S13979   2.578   4.016   6.855  0.3071 -0.2488 -0.2630
  130OSM    H6S13980   2.683   3.985   6.870  0.7281  1.6833  0.9535
  130OSM    H6T13981   2.514   3.926   6.843 -1.2077  0.8346 -0.5199
  130OSM    C7S13982   2.510   4.091   6.977 -0.4784 -0.0210  0.9487
  130OSM    H7S13983   2.412   4.133   6.947 -0.7718 -0.9300  0.6333
  130OSM    H7T13984   2.577   4.179   6.991  0.8888 -0.8406 -0.2453
  130OSM    C8S13985   2.520   4.012   7.108 -0.0510 -0.4290 -0.4796
  130OSM    H8S13986   2.626   3.977   7.117 -0.3036 -1.1883 -0.4126
  130OSM    H8T13987   2.463   3.917   7.121 -0.2929  0.1108  3.1088
  130OSM    C9S13988   2.484   4.111   7.228  0.2226  0.0745  0.2409
  130OSM    H9S13989   2.374   4.126   7.221  0.2558  0.1952 -0.0225
  130OSM    H9T13990   2.528   4.212   7.212  1.3911 -0.7033 -1.5816
  130OSM   C10S13991   2.525   4.049   7.361  0.1360 -0.0073 -0.6202
  130OSM   H10S13992   2.635   4.037   7.361  0.0618 -0.7954 -2.0558
  130OSM   H10T13993   2.480   3.948   7.358  0.1884 -0.0451 -0.2240
  130OSM   C11S13994   2.472   4.115   7.491 -0.2141  0.6467  0.3087
  130OSM   H11S13995   2.364   4.121   7.464 -0.0646 -0.7145 -0.6713
  130OSM   H11T13996   2.519   4.215   7.494  4.0692 -1.1468 -3.1713
  130OSM   C12S13997   2.494   4.032   7.614  0.1307  0.5515 -0.1603
  130OSM   H12S13998   2.605   4.029   7.617  0.1291  0.6188  0.0021
  130OSM   H12T13999   2.450   3.932   7.594 -0.2623  0.5950  0.4684
  130OSM   C13S14000   2.427   4.089   7.748 -0.5325  0.7641 -0.7318
  130OSM   H13S14001   2.316   4.088   7.737 -0.7467  0.9164  1.3332
  130OSM   H13T14002   2.463   4.194   7.757 -1.1315  0.6837  3.1990
  130OSM   C14S14003   2.466   4.017   7.872 -0.1407  0.7870 -0.2037
  130OSM   H14S14004   2.576   4.028   7.885 -0.3405  0.7513  1.6454
  130OSM   H14T14005   2.461   3.908   7.851 -0.8087  1.1084 -1.8362
  130OSM   C15S14006   2.394   4.065   7.994 -0.3963 -0.2580 -0.5206
  130OSM   H15S14007   2.287   4.041   7.977 -0.4866 -0.0628 -0.2183
  130OSM   H15T14008   2.416   4.172   8.013  3.0183 -0.6789 -1.6318
  130OSM   C16S14009   2.421   3.976   8.118 -0.6828 -0.3858 -0.4395
  130OSM   H16S14010   2.529   3.973   8.143 -0.7512 -1.1897 -0.2369
  130OSM   H16T14011   2.401   3.870   8.093 -1.9172  0.2716 -2.3174
  130OSM   C17S14012   2.361   4.029   8.249 -0.0052 -0.3655  0.5477
  130OSM   H17S14013   2.250   4.033   8.243  0.0155  0.8260  1.0383
  130OSM   H17T14014   2.403   4.130   8.268 -0.1024 -0.6624  2.4498
  130OSM   C18S14015   2.378   3.929   8.354 -0.1266  0.2714 -0.1323
  130OSM   H18S14016   2.304   3.958   8.432 -1.1046 -1.7953 -0.2698
  130OSM   H18T14017   2.481   3.930   8.395 -0.6301 -0.9593  1.1771
  130OSM   H18U14018   2.347   3.825   8.329 -0.0786  0.0303  0.8109
  130OSM    C1F14019   2.109   4.233   6.558 -0.1614  0.3043  0.5936
  130OSM     OF14020   2.046   4.138   6.505  0.7475  0.4815 -0.1013
  130OSM    C2F14021   2.031   4.326   6.649  0.0859 -0.3607 -0.3373
  130OSM    H2F14022   2.069   4.430   6.646  1.2290 -0.7351  0.8594
  130OSM    H2G14023   2.044   4.286   6.752  0.5313 -0.5081 -0.4505
  130OSM    C3F14024   1.879   4.327   6.632 -0.2946 -0.1345 -0.2439
  130OSM    H3F14025   1.844   4.383   6.722  2.3176  2.7228 -0.9128
  130OSM    H3G14026   1.834   4.225   6.630  0.2327 -0.4014  1.0604
  130OSM    C4F14027   1.839   4.406   6.512 -0.6265  0.1835  0.3963
  130OSM    H4F14028   1.867   4.341   6.426 -0.4370  0.0069  0.5921
  130OSM    H4G14029   1.895   4.501   6.495 -0.0746  0.2518  2.5513
  130OSM    C5F14030   1.687   4.432   6.505  0.2997  0.2080  0.0484
  130OSM    H5F14031   1.629   4.348   6.548  1.4254 -0.6003  0.0035
  130OSM    H5G14032   1.652   4.435   6.400  0.6812  0.0948 -0.0834
  130OSM    C6F14033   1.651   4.568   6.581  0.4682 -0.0378  0.3903
  130OSM    H6F14034   1.711   4.651   6.537 -0.4230 -0.6088 -2.0198
  130OSM    H6G14035   1.688   4.551   6.684  0.1272 -0.5835  0.4257
  130OSM    C7F14036   1.498   4.586   6.570  0.0133 -0.6493  0.0243
  130OSM    H7F14037   1.445   4.502   6.620  0.3412 -0.8384  0.0528
  130OSM    H7G14038   1.472   4.581   6.462  0.0463  1.3484 -0.0816
  130OSM    C8F14039   1.436   4.712   6.637  0.1001 -0.1951  0.3437
  130OSM    H8F14040   1.483   4.801   6.590  0.2888 -0.6528 -0.3421
  130OSM    H8G14041   1.483   4.714   6.738  1.9121  2.7420 -0.4996
  130OSM    C9F14042   1.287   4.715   6.635  0.3766 -0.4556  0.3290
  130OSM    H9F14043   1.234   4.692   6.541 -1.2607 -1.9537  1.5894
  130OSM   C10F14044   1.206   4.726   6.741  0.0999 -0.0313  0.4161
  130OSM   H10F14045   1.101   4.720   6.710 -0.2752  0.3924  1.6087
  130OSM   C11F14046   1.243   4.732   6.883 -0.1028  0.2453 -0.1363
  130OSM   H11F14047   1.170   4.784   6.948 -1.0253 -0.0279 -0.9328
  130OSM   H11G14048   1.334   4.795   6.894 -1.1353  1.7853 -0.3152
  130OSM   C12F14049   1.290   4.602   6.952 -0.1425 -0.0871 -0.2391
  130OSM   H12F14050   1.342   4.544   6.873  0.5114 -0.1613  0.2447
  130OSM   H12G14051   1.208   4.532   6.981  0.7493 -1.1118 -0.1639
  130OSM   C13F14052   1.374   4.621   7.077  0.0689  0.4418 -0.1469
  130OSM   H13F14053   1.454   4.693   7.048 -0.6231  1.2150 -0.1503
  130OSM   H13G14054   1.427   4.528   7.105 -0.9956  0.0923  0.7425
  130OSM   C14F14055   1.294   4.682   7.192 -0.4255  0.5294 -0.2797
  130OSM   H14F14056   1.207   4.616   7.212 -0.4693  0.5459 -0.4074
  130OSM   H14G14057   1.262   4.784   7.160  2.8083  1.8157  0.4372
  130OSM   C15F14058   1.362   4.707   7.320  1.2134  0.7839  0.0276
  130OSM   H15F14059   1.458   4.748   7.283  0.9647 -0.6450 -2.3073
  130OSM   H15G14060   1.379   4.611   7.374  2.7957  1.1897  0.2749
  130OSM   C16F14061   1.292   4.803   7.414 -0.3374 -0.6075 -0.3312
  130OSM   H16F14062   1.266   4.886   7.346  0.0892 -1.3890 -1.4632
  130OSM   H16G14063   1.368   4.845   7.484 -0.8734 -0.4266  0.1505
  130OSM   C17F14064   1.168   4.752   7.494 -0.4644  0.0824  0.3978
  130OSM   H17F14065   1.189   4.653   7.540  0.8891 -0.4241 -1.2633
  130OSM   H17G14066   1.088   4.751   7.418  0.4790 -0.1769 -0.6136
  130OSM   C18F14067   1.137   4.854   7.606  0.1323 -0.0325  0.3088
  130OSM   H18F14068   1.206   4.872   7.691  1.6764 -1.0299 -0.7283
  130OSM   H18G14069   1.040   4.841   7.659 -1.4714  3.4132 -1.5508
  130OSM   H18H14070   1.120   4.952   7.557  0.2468 -0.1301  0.0765
  131OSM      N14071   6.553   0.714   5.891 -0.5575  0.2495  0.2049
  131OSM    C1514072   6.629   0.831   5.842 -0.3799 -0.1483  1.0671
  131OSM   H15A14073   6.568   0.896   5.782 -0.2002 -0.4533  0.5500
  131OSM   H15B14074   6.708   0.792   5.779  1.2948  3.9162  0.5215
  131OSM   H15C14075   6.678   0.878   5.926 -0.2059  2.9513 -0.6806
  131OSM    C1414076   6.428   0.770   5.963 -0.3388  0.5246 -0.5167
  131OSM   H14A14077   6.450   0.824   6.054 -1.4433 -1.7924  1.1545
  131OSM   H14B14078   6.361   0.692   5.996  1.2243  0.5892  2.9512
  131OSM   H14C14079   6.374   0.840   5.901  0.8412  0.2037 -1.9528
  131OSM    C1314080   6.495   0.647   5.768  0.4971  0.0744  0.3713
  131OSM   H13A14081   6.435   0.559   5.786 -3.1615  2.2857 -0.6396
  131OSM   H13B14082   6.579   0.614   5.709  1.0019  0.4568  0.8668
  131OSM   H13C14083   6.439   0.722   5.714 -0.3114 -0.7303  0.0884
  131OSM    C1214084   6.630   0.619   5.971  0.0721  0.6167  0.6976
  131OSM   H12A14085   6.683   0.674   6.048 -2.0608  1.0464  1.9099
  131OSM   H12B14086   6.713   0.582   5.913 -0.3815  1.2146 -0.3331
  131OSM    C1114087   6.546   0.505   6.036  0.5841 -0.4071 -0.0572
  131OSM   H11A14088   6.450   0.554   6.064  0.8013  0.2090 -0.3897
  131OSM   H11B14089   6.603   0.474   6.126 -0.4002 -1.4195  0.2385
  131OSM      P14090   6.406   0.296   5.985  0.7397  0.2451 -0.1490
  131OSM    O1314091   6.276   0.370   5.977 -0.1008  0.2414  0.4601
  131OSM    O1414092   6.412   0.174   5.906  0.0746 -0.0232  0.0661
  131OSM    O1114093   6.429   0.267   6.137  0.2444 -0.2077 -0.2850
  131OSM    O1214094   6.525   0.397   5.945  0.2583  0.0928 -0.7308
  131OSM    C1S14095   6.543   0.182   6.166 -0.4603  0.0110  0.3268
  131OSM    H1S14096   6.636   0.224   6.120 -0.3059 -0.0275  0.6033
  131OSM    H1T14097   6.533   0.082   6.118 -2.5633  1.5157 -2.5600
  131OSM     NF14098   6.685   0.125   6.366  0.3054 -0.1242  0.6012
  131OSM    HNF14099   6.687   0.030   6.396 -1.6501 -0.3001  0.2262
  131OSM    C2S14100   6.551   0.162   6.321 -0.3053 -0.8359 -0.6525
  131OSM    H2S14101   6.526   0.259   6.369  3.0186  0.3737 -1.2082
  131OSM    C3S14102   6.440   0.070   6.373  0.2753 -0.6486 -0.3737
  131OSM    H3S14103   6.463  -0.027   6.326  0.2442 -0.5197 -0.6537
  131OSM     O314104   6.315   0.110   6.321  0.2578  0.0934  0.2360
  131OSM    HO314105   6.338   0.165   6.245  1.5177  0.0627  0.5988
  131OSM    C4S14106   6.433   0.074   6.527 -0.7242  0.3556  0.2430
  131OSM    H4S14107   6.420   0.175   6.568  1.0436  0.4876  0.5479
  131OSM    C5S14108   6.457  -0.031   6.619 -0.6809 -0.4180 -0.5193
  131OSM    H5S14109   6.460  -0.132   6.575 -0.4921 -0.4891 -0.3420
  131OSM    C6S14110   6.441  -0.020   6.769  0.2445  0.3610 -1.0560
  131OSM    H6S14111   6.405  -0.119   6.804 -2.2458  2.0352  1.2897
  131OSM    H6T14112   6.363   0.052   6.798 -0.3988 -0.7963  0.1166
  131OSM    C7S14113   6.573  -0.001   6.846 -0.0411  0.3520 -0.3288
  131OSM    H7S14114   6.630   0.085   6.807  1.9186 -0.9861 -0.4685
  131OSM    H7T14115   6.629  -0.093   6.821  1.9024  1.3590  0.2450
  131OSM    C8S14116   6.558   0.018   6.998 -0.1276  0.4751  0.5452
  131OSM    H8S14117   6.652   0.014   7.057 -1.5821  0.4220  2.8945
  131OSM    H8T14118   6.499  -0.067   7.038 -2.3486  2.6477  1.9837
  131OSM    C9S14119   6.476   0.143   7.040 -0.0162 -0.0208 -0.6176
  131OSM    H9S14120   6.381   0.150   6.982 -0.4861 -1.5186 -0.0528
  131OSM    H9T14121   6.538   0.235   7.044  1.8399 -1.2984  0.3793
  131OSM   C10S14122   6.439   0.149   7.188 -1.7466  0.1361  0.2121
  131OSM   H10S14123   6.359   0.072   7.195 -0.6929 -1.0023  0.0330
  131OSM   H10T14124   6.377   0.237   7.214 -1.7254 -0.1022  1.0802
  131OSM   C11S14125   6.552   0.128   7.286  0.7307  0.3261  0.4845
  131OSM   H11S14126   6.623   0.212   7.276  2.3153 -1.0067  0.3448
  131OSM   H11T14127   6.615   0.041   7.259 -0.0247 -0.7373  2.0684
  131OSM   C12S14128   6.517   0.118   7.429  0.1905  0.4016 -0.4141
  131OSM   H12S14129   6.439   0.039   7.439 -0.6703  1.2642 -0.1560
  131OSM   H12T14130   6.470   0.212   7.464 -3.3052 -2.0611  1.8588
  131OSM   C13S14131   6.648   0.081   7.513  0.0560 -0.2180 -0.2089
  131OSM   H13S14132   6.724   0.158   7.488 -0.4908  0.1533 -0.7597
  131OSM   H13T14133   6.674  -0.018   7.470 -2.4129 -0.3702 -1.4787
  131OSM   C14S14134   6.614   0.073   7.663 -0.0090  0.1112 -0.1124
  131OSM   H14S14135   6.509   0.037   7.657  0.4270 -1.3000  0.4203
  131OSM   H14T14136   6.604   0.173   7.710  2.1746 -0.6209  2.0651
  131OSM   C15S14137   6.697  -0.026   7.738 -0.0174 -0.2391 -0.4612
  131OSM   H15S14138   6.804   0.005   7.738  0.4493 -1.8029 -1.2474
  131OSM   H15T14139   6.697  -0.122   7.682 -0.2122 -1.6557  1.8725
  131OSM   C16S14140   6.654  -0.047   7.883  0.2316  0.0821 -0.3420
  131OSM   H16S14141   6.556  -0.097   7.870  0.0593  0.4663 -0.5285
  131OSM   H16T14142   6.639   0.058   7.918 -1.1603  0.1163 -1.0057
  131OSM   C17S14143   6.757  -0.132   7.955 -0.2627 -0.5379  0.3322
  131OSM   H17S14144   6.851  -0.072   7.954  0.6442 -1.9381 -0.3526
  131OSM   H17T14145   6.783  -0.224   7.899  0.8919  0.2409 -0.4271
  131OSM   C18S14146   6.714  -0.174   8.091 -0.2554  0.0614  0.0769
  131OSM   H18S14147   6.795  -0.159   8.166 -1.0969  1.9765  0.6426
  131OSM   H18T14148   6.682  -0.280   8.088 -0.0293  0.0135 -0.7880
  131OSM   H18U14149   6.623  -0.116   8.116 -0.8438 -0.9544  0.2755
  131OSM    C1F14150   6.790   0.199   6.351 -0.5702 -1.4187  0.3807
  131OSM     OF14151   6.773   0.314   6.310  0.6086 -0.3931  0.2600
  131OSM    C2F14152   6.922   0.134   6.379  0.2235  0.3765 -0.0558
  131OSM    H2F14153   6.949   0.081   6.285  0.8671  1.4878 -0.5110
  131OSM    H2G14154   6.921   0.061   6.462  2.4091 -1.7726 -1.8273
  131OSM    C3F14155   7.039   0.234   6.404  0.2148 -0.1255  0.4849
  131OSM    H3F14156   7.060   0.291   6.312 -0.8857  0.9148  0.8586
  131OSM    H3G14157   7.125   0.169   6.432  0.0148 -0.3675  0.5416
  131OSM    C4F14158   7.039   0.327   6.527  0.2501 -0.1368 -0.5898
  131OSM    H4F14159   6.948   0.390   6.537 -0.6429 -1.2225 -1.6242
  131OSM    H4G14160   7.127   0.393   6.514  1.8883 -2.3438 -1.1035
  131OSM    C5F14161   7.055   0.244   6.657  0.3414  0.6439 -0.2804
  131OSM    H5F14162   7.151   0.189   6.653  0.7360  0.8407  3.8822
  131OSM    H5G14163   6.964   0.181   6.650  0.0609  0.6791  2.3298
  131OSM    C6F14164   7.045   0.323   6.792  0.3646  0.1681 -0.4213
  131OSM    H6F14165   6.956   0.387   6.804  0.5439  0.4126 -0.4002
  131OSM    H6G14166   7.130   0.394   6.806  0.2076  0.3623 -0.4549
  131OSM    C7F14167   7.040   0.224   6.904 -0.4586 -0.0464  0.1071
  131OSM    H7F14168   7.140   0.175   6.905  0.1396  1.1302 -0.8625
  131OSM    H7G14169   6.966   0.143   6.893  0.7583 -1.2076  0.2980
  131OSM    C8F14170   7.034   0.281   7.051  0.0536  0.1422 -0.1094
  131OSM    H8F14171   7.111   0.359   7.069 -0.1562  0.3836 -0.2524
  131OSM    H8G14172   7.060   0.196   7.118 -0.6195 -1.3126 -1.6795
  131OSM    C9F14173   6.896   0.324   7.088  0.0115  0.4866 -0.5244
  131OSM    H9F14174   6.824   0.309   7.006 -0.6132  1.9647 -0.2600
  131OSM   C10F14175   6.858   0.372   7.212 -0.6985  0.5147 -0.6120
  131OSM   H10F14176   6.756   0.400   7.243 -0.1356  2.1530 -0.1561
  131OSM   C11F14177   6.957   0.389   7.327 -0.3195  0.5603 -0.0020
  131OSM   H11F14178   7.028   0.472   7.311  1.2019 -0.8279 -0.5725
  131OSM   H11G14179   7.021   0.298   7.331  1.1805  1.6085 -0.0385
  131OSM   C12F14180   6.907   0.399   7.471 -0.3584 -0.0271  0.9355
  131OSM   H12F14181   6.872   0.301   7.508 -1.2643 -0.1014 -0.0938
  131OSM   H12G14182   6.832   0.481   7.485 -1.1015 -1.0227  2.9988
  131OSM   C13F14183   7.032   0.427   7.558  0.3878  0.1178  0.4586
  131OSM   H13F14184   7.090   0.509   7.512 -0.5793  0.7225  0.3130
  131OSM   H13G14185   7.102   0.340   7.563 -1.4597 -1.5206 -1.0062
  131OSM   C14F14186   7.012   0.472   7.700 -0.0080  0.2642  0.5952
  131OSM   H14F14187   6.960   0.395   7.761 -0.9943 -0.9607 -1.7335
  131OSM   H14G14188   6.946   0.561   7.694  0.2951  0.5529  1.4586
  131OSM   C15F14189   7.137   0.528   7.769  0.0536  0.5739  0.2462
  131OSM   H15F14190   7.179   0.607   7.702 -1.5578  2.3340  1.2422
  131OSM   H15G14191   7.201   0.438   7.755  1.0156  0.8563  2.6999
  131OSM   C16F14192   7.129   0.588   7.905 -0.5494  0.2237 -0.1836
  131OSM   H16F14193   7.042   0.655   7.921 -0.2011  0.4556  0.7589
  131OSM   H16G14194   7.224   0.640   7.928 -1.5494  2.0471 -0.0611
  131OSM   C17F14195   7.141   0.480   8.014 -0.7805  0.0089  0.0145
  131OSM   H17F14196   7.236   0.422   8.005 -0.9961 -0.1023 -1.5798
  131OSM   H17G14197   7.050   0.415   8.015 -0.4427 -0.4630  1.5196
  131OSM   C18F14198   7.145   0.539   8.152 -0.7744  0.1917  0.5842
  131OSM   H18F14199   7.079   0.627   8.167 -0.6825  0.4879 -0.7056
  131OSM   H18G14200   7.245   0.585   8.167 -0.1879 -1.1080  0.7223
  131OSM   H18H14201   7.122   0.459   8.225  0.4255 -2.0378 -1.4231
  132OSM      N14202   1.149   1.405   6.423 -0.0218  0.1762  0.2541
  132OSM    C1514203   1.014   1.337   6.407 -0.6756  0.2031 -0.2529
  132OSM   H15A14204   1.023   1.230   6.393  0.0198 -0.2242  3.0635
  132OSM   H15B14205   0.949   1.380   6.333 -0.4766 -1.0344 -1.1687
  132OSM   H15C14206   0.964   1.355   6.501  2.8106  0.7819  1.5710
  132OSM    C1414207   1.240   1.343   6.321 -0.3562  0.2557  0.0439
  132OSM   H14A14208   1.254   1.238   6.340 -2.3788  0.2281  1.5945
  132OSM   H14B14209   1.335   1.391   6.335 -0.4069  0.1192  0.8867
  132OSM   H14C14210   1.207   1.362   6.220  3.5462 -2.8843 -1.9588
  132OSM    C1314211   1.126   1.545   6.377 -0.1491 -0.2944  0.4996
  132OSM   H13A14212   1.044   1.585   6.434 -0.2545 -0.0213  0.1551
  132OSM   H13B14213   1.102   1.541   6.271 -1.6257  0.6033  0.7932
  132OSM   H13C14214   1.219   1.594   6.401 -1.6298  2.8961  0.0440
  132OSM    C1214215   1.202   1.392   6.563 -0.8487  0.6423 -0.5231
  132OSM   H12A14216   1.194   1.289   6.596 -2.3370  0.8448 -0.2134
  132OSM   H12B14217   1.134   1.447   6.626 -0.2772 -0.5876  1.2099
  132OSM    C1114218   1.348   1.448   6.594 -0.2871  0.3664  0.5916
  132OSM   H11A14219   1.420   1.372   6.558 -1.8893 -0.6042 -0.6559
  132OSM   H11B14220   1.370   1.458   6.703  1.1690 -1.1776  0.4505
  132OSM      P14221   1.488   1.612   6.438  0.4464 -0.0741  0.4234
  132OSM    O1314222   1.539   1.489   6.380  0.2686  0.2604 -0.2939
  132OSM    O1414223   1.436   1.719   6.343  0.1282 -0.2780 -0.3255
  132OSM    O1114224   1.594   1.692   6.526 -0.0117 -0.0490  0.3015
  132OSM    O1214225   1.371   1.577   6.536 -0.1204  0.2995 -0.5558
  132OSM    C1S14226   1.605   1.655   6.662 -0.0489  0.1234 -0.1658
  132OSM    H1S14227   1.632   1.548   6.674 -0.5322  0.0811  0.5705
  132OSM    H1T14228   1.515   1.680   6.722  0.0680  0.5308 -0.1577
  132OSM     NF14229   1.740   1.689   6.875 -0.9788 -0.1057  0.1668
  132OSM    HNF14230   1.696   1.738   6.950 -0.4118  0.1595  0.3262
  132OSM    C2S14231   1.721   1.737   6.741  0.0783 -0.3047 -0.3602
  132OSM    H2S14232   1.816   1.716   6.688  0.4100 -0.8405  0.4290
  132OSM    C3S14233   1.686   1.889   6.729  0.1130 -0.2080  0.9856
  132OSM    H3S14234   1.594   1.921   6.782 -1.5795 -0.1037 -1.9267
  132OSM     O314235   1.673   1.934   6.591  0.5212 -0.0811 -0.8866
  132OSM    HO314236   1.617   1.865   6.556  0.4770  0.1387 -1.2531
  132OSM    C4S14237   1.796   1.973   6.802 -0.6355  0.4692 -0.4601
  132OSM    H4S14238   1.760   2.026   6.891 -2.0566 -2.1603  0.5762
  132OSM    C5S14239   1.925   1.977   6.774 -0.7173  0.5200  0.5945
  132OSM    H5S14240   1.964   1.915   6.692 -1.6708 -0.1981  0.6739
  132OSM    C6S14241   2.027   2.040   6.855 -0.2896 -0.4408 -0.4006
  132OSM    H6S14242   2.047   2.120   6.781  0.2493 -1.5320 -1.4549
  132OSM    H6T14243   2.126   1.988   6.859 -0.0445  0.0911  0.4871
  132OSM    C7S14244   1.999   2.093   6.996  0.7958 -0.0606 -1.1060
  132OSM    H7S14245   1.948   2.020   7.062 -1.1547  2.3553  0.1615
  132OSM    H7T14246   1.930   2.180   6.998  0.9112  0.0364  3.2968
  132OSM    C8S14247   2.127   2.152   7.067 -0.3467 -0.1682  0.5542
  132OSM    H8S14248   2.158   2.248   7.019  0.1489  0.2286  1.6376
  132OSM    H8T14249   2.204   2.072   7.060  0.0151  0.1442  0.9881
  132OSM    C9S14250   2.107   2.178   7.215 -0.6216  0.4472 -0.2978
  132OSM    H9S14251   2.058   2.085   7.250  1.5064 -0.4064  0.4812
  132OSM    H9T14252   2.041   2.267   7.227 -1.0881 -0.0818  1.1339
  132OSM   C10S14253   2.229   2.209   7.292 -1.3004 -0.0264 -0.6204
  132OSM   H10S14254   2.286   2.279   7.228  0.5356  0.9996  2.0522
  132OSM   H10T14255   2.290   2.116   7.303 -2.8710 -1.0618 -0.4725
  132OSM   C11S14256   2.206   2.256   7.433 -0.4663 -0.3243 -0.2903
  132OSM   H11S14257   2.133   2.191   7.485 -1.7101  1.8721  0.7492
  132OSM   H11T14258   2.149   2.352   7.431  1.4667  0.8783  0.8301
  132OSM   C12S14259   2.328   2.277   7.527 -0.1110  0.0029 -0.1387
  132OSM   H12S14260   2.402   2.354   7.496  0.6694 -1.2398 -1.4008
  132OSM   H12T14261   2.378   2.178   7.533  0.2286  0.2017  0.4066
  132OSM   C13S14262   2.281   2.320   7.667  0.1711 -0.9657  0.1423
  132OSM   H13S14263   2.176   2.289   7.684 -1.0923  1.6943 -2.3005
  132OSM   H13T14264   2.275   2.431   7.669  3.1223 -0.6825 -2.6167
  132OSM   C14S14265   2.380   2.293   7.780  0.2978  0.2436  0.5336
  132OSM   H14S14266   2.474   2.349   7.760 -0.5910  1.0550 -1.5362
  132OSM   H14T14267   2.407   2.186   7.788 -2.1839 -0.6318 -2.1707
  132OSM   C15S14268   2.320   2.329   7.921  0.3967 -0.3018 -0.0395
  132OSM   H15S14269   2.224   2.274   7.935  0.0299  0.1082 -0.9212
  132OSM   H15T14270   2.306   2.439   7.927 -1.1279 -0.4907  0.0042
  132OSM   C16S14271   2.400   2.289   8.049  0.7495 -0.1823  0.0253
  132OSM   H16S14272   2.478   2.368   8.057 -0.2487  0.7162  1.0647
  132OSM   H16T14273   2.451   2.193   8.027 -0.0559 -0.8576  1.0944
  132OSM   C17S14274   2.339   2.293   8.186 -0.2759  0.0006 -0.2915
  132OSM   H17S14275   2.245   2.233   8.188  1.6002 -3.0651  2.3849
  132OSM   H17T14276   2.320   2.401   8.205  0.2129  0.0626 -0.1426
  132OSM   C18S14277   2.422   2.233   8.297  0.2462  1.0985 -0.1992
  132OSM   H18S14278   2.416   2.123   8.283 -0.1579  1.2147 -0.9818
  132OSM   H18T14279   2.377   2.271   8.392 -0.2102 -0.3079  0.1610
  132OSM   H18U14280   2.530   2.258   8.292  0.5662  0.3998  2.4278
  132OSM    C1F14281   1.775   1.562   6.896 -0.1027 -0.5338 -0.6044
  132OSM     OF14282   1.821   1.492   6.805 -0.3115 -0.1428  0.0284
  132OSM    C2F14283   1.764   1.519   7.036  0.0499  0.5232  0.2148
  132OSM    H2F14284   1.661   1.484   7.055 -0.3488  0.7158 -1.5588
  132OSM    H2G14285   1.789   1.604   7.104 -2.9285  2.0948 -0.5932
  132OSM    C3F14286   1.867   1.408   7.074  0.0423  0.6026 -0.1736
  132OSM    H3F14287   1.972   1.428   7.043 -0.3969 -0.3233 -2.3979
  132OSM    H3G14288   1.832   1.329   7.004 -2.3971 -0.5888  2.2771
  132OSM    C4F14289   1.854   1.357   7.213  0.1155 -0.2207 -0.1037
  132OSM    H4F14290   1.745   1.342   7.226  0.7965 -4.1761  1.8289
  132OSM    H4G14291   1.882   1.437   7.285  0.3860  0.7000 -1.2130
  132OSM    C5F14292   1.922   1.221   7.248 -0.1746  0.3227 -0.6788
  132OSM    H5F14293   2.029   1.231   7.278 -0.3571 -0.8838  0.4569
  132OSM    H5G14294   1.917   1.165   7.153  0.1921  3.7437 -2.7962
  132OSM    C6F14295   1.848   1.139   7.365 -0.0967 -0.0798 -0.5569
  132OSM    H6F14296   1.747   1.110   7.330 -1.0830  0.0224  2.1396
  132OSM    H6G14297   1.847   1.222   7.439  1.8984 -0.0682 -0.5039
  132OSM    C7F14298   1.916   1.006   7.399 -0.4598 -0.2121  0.3242
  132OSM    H7F14299   2.022   1.029   7.424 -1.1871  1.7176  1.7955
  132OSM    H7G14300   1.902   0.935   7.315 -2.1777  1.1616 -0.5968
  132OSM    C8F14301   1.851   0.950   7.519 -0.2644 -0.3291 -0.0439
  132OSM    H8F14302   1.744   0.935   7.496  0.1346 -0.4248 -1.9092
  132OSM    H8G14303   1.855   1.027   7.598  2.8650 -1.7297  1.2885
  132OSM    C9F14304   1.909   0.814   7.545 -0.1608 -0.6086 -0.2143
  132OSM    H9F14305   1.878   0.736   7.474 -0.5240 -1.2769  0.6673
  132OSM   C10F14306   1.977   0.776   7.655  0.4284 -0.0962  0.3614
  132OSM   H10F14307   2.004   0.671   7.674  2.4640  0.6992  2.0135
  132OSM   C11F14308   2.018   0.855   7.776  0.2569 -0.7679  0.0677
  132OSM   H11F14309   1.991   0.963   7.772 -0.2433 -0.9075 -0.4389
  132OSM   H11G14310   2.129   0.856   7.777  0.2960 -2.6617  0.3244
  132OSM   C12F14311   1.964   0.801   7.904 -0.0614 -0.1805  0.1442
  132OSM   H12F14312   2.002   0.699   7.923 -0.9169 -0.0888  2.6166
  132OSM   H12G14313   1.855   0.781   7.901 -0.2395  0.7738 -0.0298
  132OSM   C13F14314   2.012   0.877   8.033  0.1593 -0.1972 -0.4254
  132OSM   H13F14315   2.099   0.940   8.005  1.3769 -0.9305  1.6183
  132OSM   H13G14316   2.064   0.805   8.099 -2.4685  1.2613  3.3466
  132OSM   C14F14317   1.899   0.954   8.096  0.1547  0.4804 -0.2155
  132OSM   H14F14318   1.826   0.886   8.146 -2.6165  4.9884  2.1653
  132OSM   H14G14319   1.858   1.030   8.027  0.6545  2.3523  1.5012
  132OSM   C15F14320   1.947   1.045   8.213 -0.3455  0.4485 -0.1996
  132OSM   H15F14321   2.018   1.116   8.166 -1.1608 -0.2566 -2.5814
  132OSM   H15G14322   2.001   0.984   8.288 -0.8370 -0.5575 -0.6374
  132OSM   C16F14323   1.838   1.127   8.281  0.2029 -0.2815 -0.9407
  132OSM   H16F14324   1.756   1.058   8.313  1.1390  0.1551  2.5559
  132OSM   H16G14325   1.797   1.192   8.201  0.2441  0.0612 -0.6850
  132OSM   C17F14326   1.896   1.221   8.387 -0.3973 -0.1224 -0.5348
  132OSM   H17F14327   1.817   1.298   8.403 -0.9454 -0.9236  0.6490
  132OSM   H17G14328   1.978   1.278   8.338  0.2390 -1.3839 -0.9535
  132OSM   C18F14329   1.922   1.147   8.517 -0.0330 -0.2597  0.3694
  132OSM   H18F14330   1.946   1.223   8.594  0.3190  0.4878 -0.4647
  132OSM   H18G14331   2.006   1.075   8.502 -0.4824 -0.7272  0.1097
  132OSM   H18H14332   1.837   1.083   8.546 -0.9226 -0.2150 -2.0194
  133OSM      N14333   1.847   1.672   6.175  0.1271  0.0484 -0.0991
  133OSM    C1514334   1.703   1.656   6.133  0.3641 -0.9808  0.1103
  133OSM   H15A14335   1.643   1.727   6.189  1.2922  0.6440 -0.9156
  133OSM   H15B14336   1.663   1.556   6.138 -1.3649 -0.6044 -4.4066
  133OSM   H15C14337   1.714   1.695   6.033  2.3871  3.0129  1.7227
  133OSM    C1414338   1.882   1.820   6.163 -0.3091  0.2236 -0.1724
  133OSM   H14A14339   1.823   1.875   6.235  1.1791  1.7246 -0.0743
  133OSM   H14B14340   1.859   1.859   6.065  0.6374  1.0009 -0.0883
  133OSM   H14C14341   1.985   1.831   6.194 -0.0106  1.8977 -1.7354
  133OSM    C1314342   1.858   1.634   6.317  0.6780  0.2117  0.3642
  133OSM   H13A14343   1.793   1.549   6.335  1.0103 -0.4921 -1.6315
  133OSM   H13B14344   1.841   1.719   6.381 -0.9839  0.2639 -0.1404
  133OSM   H13C14345   1.960   1.597   6.320  0.3581 -0.6348  0.9088
  133OSM    C1214346   1.942   1.583   6.093  0.1241 -0.2973  0.5552
  133OSM   H12A14347   2.044   1.596   6.129 -0.1281 -1.4091  1.7196
  133OSM   H12B14348   1.937   1.614   5.990  1.5768  0.0577  0.5741
  133OSM    C1114349   1.923   1.431   6.094 -0.3170 -0.2225  0.4381
  133OSM   H11A14350   1.954   1.393   5.995 -0.2852  1.2007 -0.1054
  133OSM   H11B14351   1.814   1.411   6.093 -0.7904  2.2259 -1.7777
  133OSM      P14352   2.124   1.330   6.217  0.1097  0.2695 -0.0604
  133OSM    O1314353   2.130   1.180   6.191 -0.3024  0.0594  0.3866
  133OSM    O1414354   2.200   1.415   6.124  0.6413  0.5673 -0.4164
  133OSM    O1114355   2.163   1.352   6.369  0.1371 -0.5814  0.2484
  133OSM    O1214356   1.974   1.377   6.214 -0.4616  0.1935 -0.1879
  133OSM    C1S14357   2.074   1.316   6.476  0.3589  0.0392  0.1264
  133OSM    H1S14358   2.071   1.205   6.483  0.5824 -0.0151 -0.5990
  133OSM    H1T14359   1.970   1.347   6.454  0.0934 -0.9870 -0.1050
  133OSM     NF14360   2.055   1.311   6.725 -0.2034 -1.0064  0.2969
  133OSM    HNF14361   1.985   1.365   6.771  0.3177 -0.1848  0.1358
  133OSM    C2S14362   2.116   1.377   6.611 -0.4091  0.4185 -0.2807
  133OSM    H2S14363   2.222   1.345   6.620 -1.0065 -0.9641  2.1504
  133OSM    C3S14364   2.100   1.532   6.616  0.4055  0.0664  0.2028
  133OSM    H3S14365   1.991   1.554   6.622  0.6823  1.6247 -0.4218
  133OSM     O314366   2.138   1.605   6.497 -0.0279  0.5691  0.0180
  133OSM    HO314367   2.147   1.535   6.432  2.7007  0.5767  0.3417
  133OSM    C4S14368   2.173   1.576   6.737  1.0199 -0.3965  0.2803
  133OSM    H4S14369   2.274   1.535   6.745  0.7281 -1.7314 -2.3636
  133OSM    C5S14370   2.123   1.658   6.826  0.5882 -0.0750 -0.0998
  133OSM    H5S14371   2.019   1.692   6.827  0.5533 -0.1623  2.6275
  133OSM    C6S14372   2.208   1.715   6.942 -0.4663  0.1739  0.0361
  133OSM    H6S14373   2.255   1.813   6.918  0.7293 -0.3895  0.0225
  133OSM    H6T14374   2.300   1.652   6.951  1.2429  2.3751 -1.5852
  133OSM    C7S14375   2.130   1.735   7.077  0.6489  0.2031  0.3120
  133OSM    H7S14376   2.095   1.638   7.119 -1.7663  0.7057 -0.4481
  133OSM    H7T14377   2.040   1.798   7.058  0.0301 -0.7811 -0.0890
  133OSM    C8S14378   2.211   1.793   7.191  0.3452 -0.1612 -0.2197
  133OSM    H8S14379   2.226   1.899   7.163  1.9191  0.4390  2.7005
  133OSM    H8T14380   2.311   1.745   7.185 -0.1545 -0.9781 -2.4217
  133OSM    C9S14381   2.157   1.779   7.336 -0.0076  0.1105  0.8915
  133OSM    H9S14382   2.139   1.671   7.357 -0.4731 -0.0292 -0.1328
  133OSM    H9T14383   2.054   1.817   7.357 -0.1606 -0.7700  1.7478
  133OSM   C10S14384   2.239   1.834   7.445  0.3959  0.2716 -0.0406
  133OSM   H10S14385   2.247   1.945   7.435 -0.2638  0.6222  2.7906
  133OSM   H10T14386   2.341   1.790   7.444  0.1139 -0.5959  2.9278
  133OSM   C11S14387   2.174   1.832   7.585 -0.0010 -0.2600  0.2999
  133OSM   H11S14388   2.186   1.728   7.621  1.0918 -0.7955 -1.5079
  133OSM   H11T14389   2.069   1.861   7.564  0.0768 -0.6011 -0.6013
  133OSM   C12S14390   2.240   1.916   7.698 -0.0505 -0.6379  0.7796
  133OSM   H12S14391   2.238   2.026   7.681  0.6457 -0.4559  1.8052
  133OSM   H12T14392   2.343   1.875   7.705  0.6045  1.0701  1.4723
  133OSM   C13S14393   2.170   1.895   7.831  0.3275  0.6101 -0.8116
  133OSM   H13S14394   2.158   1.786   7.852  2.1389  0.0589 -2.4815
  133OSM   H13T14395   2.066   1.931   7.825 -0.6326 -1.5639  1.7230
  133OSM   C14S14396   2.247   1.957   7.952  0.3583 -0.5627 -0.6308
  133OSM   H14S14397   2.275   2.061   7.926  0.7969 -0.5648 -0.1687
  133OSM   H14T14398   2.337   1.901   7.985  1.0322  0.9155  0.1238
  133OSM   C15S14399   2.155   1.976   8.076  0.6323  0.1841  0.0332
  133OSM   H15S14400   2.060   2.008   8.028  1.2453 -1.8668 -2.6903
  133OSM   H15T14401   2.193   2.061   8.136  1.5435  0.2062 -0.5712
  133OSM   C16S14402   2.135   1.849   8.168  0.4599 -0.1542  0.9339
  133OSM   H16S14403   2.117   1.770   8.092 -0.3692  0.4047  0.5423
  133OSM   H16T14404   2.046   1.852   8.236 -0.3870 -1.6521 -0.0655
  133OSM   C17S14405   2.258   1.809   8.249 -0.1129  0.0794 -0.4845
  133OSM   H17S14406   2.292   1.902   8.299  3.1075 -2.7857  2.8673
  133OSM   H17T14407   2.350   1.770   8.202  0.6522 -0.8222  1.7327
  133OSM   C18S14408   2.219   1.703   8.350 -0.4135 -0.0808  0.3183
  133OSM   H18S14409   2.210   1.603   8.302  1.1341  0.0416 -0.2763
  133OSM   H18T14410   2.122   1.733   8.396 -1.1617 -0.2259 -1.1562
  133OSM   H18U14411   2.298   1.698   8.428 -0.8798  0.7041  0.8476
  133OSM    C1F14412   2.063   1.179   6.752  0.4716  0.1101  0.3964
  133OSM     OF14413   2.137   1.102   6.689 -0.1260 -0.0205  0.6317
  133OSM    C2F14414   1.977   1.126   6.859 -0.3775  0.0632 -0.0984
  133OSM    H2F14415   1.871   1.123   6.828 -0.6676  0.3144  0.8600
  133OSM    H2G14416   1.987   1.189   6.950 -0.5593 -0.5441  0.3534
  133OSM    C3F14417   2.040   0.988   6.895 -0.0507 -0.4228  0.1593
  133OSM    H3F14418   2.144   1.016   6.920 -0.0820  0.3150 -0.5067
  133OSM    H3G14419   2.045   0.917   6.810 -1.8042 -0.3660 -0.0032
  133OSM    C4F14420   1.959   0.904   6.995  0.3696 -0.1378  0.0679
  133OSM    H4F14421   1.851   0.908   6.968 -0.1949  0.8201  2.3154
  133OSM    H4G14422   1.969   0.959   7.091  0.6831 -1.9208  1.0609
  133OSM    C5F14423   2.016   0.764   7.006 -0.1507 -0.0809  0.0626
  133OSM    H5F14424   2.016   0.713   6.907 -1.5988  0.2200 -0.1155
  133OSM    H5G14425   1.947   0.715   7.078  2.2657 -1.0693  1.7411
  133OSM    C6F14426   2.162   0.763   7.061 -0.0490 -0.0508 -0.2695
  133OSM    H6F14427   2.151   0.833   7.147  0.3381  0.1529 -0.3901
  133OSM    H6G14428   2.236   0.805   6.990  1.9682  1.3804  2.5647
  133OSM    C7F14429   2.209   0.625   7.110 -0.5149  0.1180  0.0910
  133OSM    H7F14430   2.235   0.561   7.023 -0.3202  0.0291  0.2147
  133OSM    H7G14431   2.133   0.562   7.162  2.6713 -1.2120  3.2985
  133OSM    C8F14432   2.324   0.643   7.213  0.2364 -0.0914  0.1856
  133OSM    H8F14433   2.372   0.737   7.181 -1.0945 -0.3314 -2.6319
  133OSM    H8G14434   2.402   0.564   7.215  0.5771  0.2585  0.6041
  133OSM    C9F14435   2.262   0.659   7.351  0.0917  0.3726  0.0819
  133OSM    H9F14436   2.157   0.691   7.349 -0.2677 -0.7349  1.0558
  133OSM   C10F14437   2.323   0.661   7.473  0.3793 -0.2214  0.0436
  133OSM   H10F14438   2.266   0.685   7.564  1.4687  0.6505  0.5153
  133OSM   C11F14439   2.467   0.638   7.501 -0.4790  0.4134 -0.4325
  133OSM   H11F14440   2.525   0.656   7.408  1.4010  2.0877  1.0309
  133OSM   H11G14441   2.492   0.538   7.542  2.9806  1.6599  0.6973
  133OSM   C12F14442   2.530   0.737   7.602 -0.2703  0.1279 -0.8134
  133OSM   H12F14443   2.504   0.840   7.567  1.6145  0.9514  0.1174
  133OSM   H12G14444   2.640   0.754   7.593  0.0832  0.7693  3.7492
  133OSM   C13F14445   2.483   0.716   7.748 -0.5811  0.0799 -0.7816
  133OSM   H13F14446   2.516   0.618   7.788 -2.7439 -0.7314 -0.9606
  133OSM   H13G14447   2.373   0.724   7.754 -0.6632  0.0966 -2.0084
  133OSM   C14F14448   2.539   0.831   7.840 -0.1904  0.3383  0.1879
  133OSM   H14F14449   2.515   0.932   7.800 -1.8247  0.2630  0.9260
  133OSM   H14G14450   2.649   0.818   7.830 -0.1877 -0.6882  1.4303
  133OSM   C15F14451   2.502   0.824   7.985 -0.4554  0.1473  0.2177
  133OSM   H15F14452   2.485   0.716   8.007  1.2038 -0.1778  0.0476
  133OSM   H15G14453   2.395   0.851   7.990 -0.8880 -1.4086 -0.1608
  133OSM   C16F14454   2.604   0.882   8.086 -0.3613 -0.1318 -0.2263
  133OSM   H16F14455   2.557   0.902   8.184 -2.7326  0.0516 -1.3612
  133OSM   H16G14456   2.633   0.983   8.049  1.8778 -0.8051 -0.3503
  133OSM   C17F14457   2.739   0.807   8.098  1.0060 -0.0204 -0.5131
  133OSM   H17F14458   2.808   0.872   8.155 -0.5055  1.8025 -0.7177
  133OSM   H17G14459   2.788   0.793   7.999  0.6859  0.3706 -0.7259
  133OSM   C18F14460   2.721   0.683   8.183  0.4316 -0.1701 -0.8227
  133OSM   H18F14461   2.661   0.715   8.271  0.5219  2.4365 -1.6937
  133OSM   H18G14462   2.812   0.630   8.219 -0.2969 -1.0754 -0.2654
  133OSM   H18H14463   2.648   0.616   8.133  0.4615 -1.5171  0.8702
  134OSM      N14464   2.886   4.967   6.369  0.0785 -0.2581  0.3280
  134OSM    C1514465   2.961   5.098   6.340  0.1043  0.0803 -0.2488
  134OSM   H15A14466   3.067   5.083   6.329  0.3634  0.4058  1.6970
  134OSM   H15B14467   2.942   5.174   6.414  2.4728  2.6479 -2.1797
  134OSM   H15C14468   2.920   5.142   6.250  0.5503 -0.1761 -0.5760
  134OSM    C1414469   2.749   5.002   6.409  0.2123 -0.0271 -0.0775
  134OSM   H14A14470   2.747   5.063   6.498  1.0613  0.3937 -0.3463
  134OSM   H14B14471   2.698   4.909   6.431  0.4485 -0.1269  0.0431
  134OSM   H14C14472   2.693   5.056   6.334 -0.7855 -1.1118 -0.1388
  134OSM    C1314473   2.886   4.883   6.245 -0.1386 -0.3375 -0.3756
  134OSM   H13A14474   2.827   4.797   6.273 -0.2525  0.2009  1.1032
  134OSM   H13B14475   2.983   4.845   6.217 -1.2088 -1.8718 -2.1238
  134OSM   H13C14476   2.839   4.933   6.161 -0.3661  0.9051  0.4762
  134OSM    C1214477   2.956   4.899   6.485 -0.1909  0.0855  0.1786
  134OSM   H12A14478   2.997   4.974   6.551 -0.4678  1.2404 -0.9538
  134OSM   H12B14479   3.049   4.855   6.450 -0.3001 -0.7258  0.8922
  134OSM    C1114480   2.875   4.790   6.550 -0.4395 -0.2639 -0.2430
  134OSM   H11A14481   2.793   4.748   6.489 -0.3616  0.0199 -0.5410
  134OSM   H11B14482   2.825   4.845   6.633  0.9448 -0.4915  0.7646
  134OSM      P14483   3.013   4.568   6.543  0.1828 -0.0164  0.1971
  134OSM    O1314484   2.991   4.569   6.397 -0.4642  0.1872 -0.1006
  134OSM    O1414485   3.155   4.548   6.595 -0.2610 -0.4387  0.2319
  134OSM    O1114486   2.924   4.455   6.599 -0.2407 -0.3034 -0.7589
  134OSM    O1214487   2.960   4.693   6.613 -0.8834 -0.3815  0.2998
  134OSM    C1S14488   2.941   4.420   6.741 -1.0330 -0.2453 -0.0835
  134OSM    H1S14489   2.887   4.496   6.800 -1.8848  0.6232 -1.9362
  134OSM    H1T14490   3.047   4.431   6.772 -1.1485 -0.5626  0.4281
  134OSM     NF14491   2.912   4.276   6.933  0.1888 -0.5439  0.5827
  134OSM    HNF14492   2.997   4.251   6.977  0.5154  1.9062  1.3997
  134OSM    C2S14493   2.907   4.277   6.784 -0.0613  0.5781  0.8004
  134OSM    H2S14494   2.804   4.263   6.744  0.7753  1.4933 -1.7405
  134OSM    C3S14495   2.995   4.172   6.703 -0.1572  0.0739 -0.3939
  134OSM    H3S14496   3.101   4.202   6.719 -0.4930  1.7379 -1.1377
  134OSM     O314497   2.966   4.183   6.563  0.5529 -0.0434  0.4739
  134OSM    HO314498   2.933   4.272   6.552 -0.0823 -0.2906  0.3295
  134OSM    C4S14499   2.965   4.033   6.753  0.6134  0.5867  0.3504
  134OSM    H4S14500   2.858   4.007   6.755  0.5175  0.4445 -2.9893
  134OSM    C5S14501   3.058   3.944   6.786 -0.2211  0.3701 -0.6501
  134OSM    H5S14502   3.167   3.959   6.788 -0.2064  0.1860  0.1732
  134OSM    C6S14503   3.023   3.802   6.830 -0.5663 -0.1014  0.2591
  134OSM    H6S14504   3.098   3.760   6.900  0.2714 -1.1842 -1.2674
  134OSM    H6T14505   3.041   3.744   6.737 -0.1064 -0.1458  0.3779
  134OSM    C7S14506   2.882   3.781   6.885 -0.0184  0.1407  0.1363
  134OSM    H7S14507   2.800   3.804   6.814 -0.7572 -0.6694  0.7109
  134OSM    H7T14508   2.860   3.852   6.968 -3.1763 -2.0055  1.2418
  134OSM    C8S14509   2.859   3.636   6.946 -0.6021  0.0914  0.1974
  134OSM    H8S14510   2.961   3.607   6.980  0.7088  1.3898 -2.4824
  134OSM    H8T14511   2.826   3.568   6.865  1.9967 -0.9825  0.0018
  134OSM    C9S14512   2.756   3.620   7.060 -0.5047  0.2496  1.0179
  134OSM    H9S14513   2.746   3.511   7.081 -1.2094  0.0805 -0.1445
  134OSM    H9T14514   2.662   3.670   7.028 -0.1502 -0.7007 -1.6161
  134OSM   C10S14515   2.804   3.684   7.198  0.3867  0.0671  0.6565
  134OSM   H10S14516   2.798   3.794   7.183 -1.1034 -0.1424 -0.4100
  134OSM   H10T14517   2.905   3.638   7.199 -0.5081 -2.0618 -1.4953
  134OSM   C11S14518   2.726   3.638   7.319  0.1398 -0.2539 -0.2631
  134OSM   H11S14519   2.736   3.528   7.333  0.7740 -0.6833 -3.5521
  134OSM   H11T14520   2.619   3.666   7.322 -0.3564 -2.1899  0.5509
  134OSM   C12S14521   2.779   3.711   7.443 -0.1840 -0.3466  0.4182
  134OSM   H12S14522   2.745   3.816   7.437  1.5636  0.3030  1.4295
  134OSM   H12T14523   2.890   3.710   7.453 -0.2158  0.1990  0.8525
  134OSM   C13S14524   2.720   3.668   7.582 -0.3281 -0.2036  0.0522
  134OSM   H13S14525   2.752   3.562   7.597  2.6213  0.8655  1.6863
  134OSM   H13T14526   2.609   3.666   7.581 -0.3762 -2.1684  2.3306
  134OSM   C14S14527   2.768   3.740   7.701  1.1702  0.7331  0.6665
  134OSM   H14S14528   2.750   3.849   7.693 -0.4441  0.3707 -0.6999
  134OSM   H14T14529   2.879   3.731   7.698  0.9917 -1.1401 -2.3480
  134OSM   C15S14530   2.730   3.670   7.833  0.5696  0.2532  0.6295
  134OSM   H15S14531   2.785   3.574   7.838 -0.3748 -0.3621 -0.5252
  134OSM   H15T14532   2.620   3.654   7.835  0.3795  1.0454 -1.5693
  134OSM   C16S14533   2.759   3.754   7.950 -0.4423  0.0666  0.5941
  134OSM   H16S14534   2.677   3.828   7.963  0.8251  1.8751 -1.3031
  134OSM   H16T14535   2.853   3.808   7.924 -0.9133 -0.0665 -1.4664
  134OSM   C17S14536   2.771   3.670   8.072 -0.3519  0.0928 -0.3429
  134OSM   H17S14537   2.867   3.617   8.056  0.1256  0.9233 -0.2686
  134OSM   H17T14538   2.678   3.609   8.078  0.2018 -0.7468 -0.2533
  134OSM   C18S14539   2.783   3.763   8.188 -0.0531 -0.3044  0.3780
  134OSM   H18S14540   2.698   3.827   8.221 -1.0245 -1.0554 -0.6290
  134OSM   H18T14541   2.868   3.832   8.171 -0.7225  0.7720  1.3369
  134OSM   H18U14542   2.802   3.693   8.273  0.8714 -0.4439  0.0621
  134OSM    C1F14543   2.808   4.323   7.008 -0.1026 -0.8172  0.1946
  134OSM     OF14544   2.714   4.383   6.956 -0.4512 -0.1571 -0.5070
  134OSM    C2F14545   2.818   4.298   7.156  0.5390  0.1295  1.0041
  134OSM    H2F14546   2.926   4.280   7.178  0.4156 -1.5622  0.2766
  134OSM    H2G14547   2.747   4.215   7.175 -1.0413  1.2592  0.1560
  134OSM    C3F14548   2.777   4.418   7.243 -0.1748  0.3593  0.4795
  134OSM    H3F14549   2.670   4.437   7.221 -0.0320  0.6929  0.0581
  134OSM    H3G14550   2.846   4.503   7.222  0.7416 -0.8578 -1.5375
  134OSM    C4F14551   2.767   4.393   7.397  0.3493  0.9385 -0.3510
  134OSM    H4F14552   2.865   4.373   7.446 -0.1536  0.2745  0.4082
  134OSM    H4G14553   2.711   4.298   7.417  0.9876  0.2747 -1.7055
  134OSM    C5F14554   2.714   4.519   7.463  0.7329 -0.5553 -0.3465
  134OSM    H5F14555   2.613   4.538   7.422  0.2799  0.2751  1.1484
  134OSM    H5G14556   2.781   4.603   7.431 -2.3335  2.3489  0.5472
  134OSM    C6F14557   2.705   4.496   7.609 -0.3822  0.8611 -0.2028
  134OSM    H6F14558   2.802   4.458   7.646 -0.1177  2.2767  0.5800
  134OSM    H6G14559   2.627   4.418   7.628 -0.5536  0.7613 -1.2894
  134OSM    C7F14560   2.663   4.632   7.675 -0.1869 -0.2762 -0.0118
  134OSM    H7F14561   2.570   4.661   7.622 -0.1028  2.8115  1.4403
  134OSM    H7G14562   2.751   4.697   7.655  0.8831 -1.0474  2.1096
  134OSM    C8F14563   2.630   4.611   7.820 -0.0574  0.1583 -0.0889
  134OSM    H8F14564   2.726   4.587   7.870 -0.3276 -0.6937  0.0284
  134OSM    H8G14565   2.552   4.532   7.822 -0.4234  0.4626 -1.4863
  134OSM    C9F14566   2.593   4.732   7.899  0.2415  0.3689  0.1503
  134OSM    H9F14567   2.592   4.831   7.850 -4.0001  0.2065 -0.2739
  134OSM   C10F14568   2.565   4.739   8.027 -0.6460  0.1115  0.0561
  134OSM   H10F14569   2.545   4.838   8.070 -1.8867 -0.6483  1.2683
  134OSM   C11F14570   2.566   4.623   8.130 -0.9019 -0.3392  0.3820
  134OSM   H11F14571   2.622   4.659   8.219 -3.2254  0.1441  1.6932
  134OSM   H11G14572   2.626   4.543   8.081  2.6107  2.8939 -0.8339
  134OSM   C12F14573   2.424   4.573   8.180  0.0923 -0.1755  0.2607
  134OSM   H12F14574   2.352   4.567   8.097 -0.0194 -0.0774  0.3518
  134OSM   H12G14575   2.391   4.657   8.244  0.6293 -1.7226  2.6729
  134OSM   C13F14576   2.429   4.442   8.265 -0.3596  0.5118  0.3828
  134OSM   H13F14577   2.500   4.370   8.220 -0.6488 -1.4400  2.9042
  134OSM   H13G14578   2.330   4.391   8.262  0.2128 -0.6355  0.6823
  134OSM   C14F14579   2.481   4.464   8.403 -0.0123  0.2352  0.9582
  134OSM   H14F14580   2.403   4.516   8.463 -1.8336 -0.3990 -0.8035
  134OSM   H14G14581   2.562   4.540   8.399  0.8694 -0.7463 -0.1610
  134OSM   C15F14582   2.528   4.338   8.487 -0.2005  0.5568  0.7716
  134OSM   H15F14583   2.635   4.317   8.469 -0.1210 -0.0388  1.9175
  134OSM   H15G14584   2.458   4.260   8.450  0.7533  0.7854 -1.6361
  134OSM   C16F14585   2.495   4.356   8.636 -1.0350 -0.5929 -0.3742
  134OSM   H16F14586   2.387   4.377   8.651 -1.1660 -0.7267 -1.1062
  134OSM   H16G14587   2.547   4.444   8.679 -0.9371 -1.5529  1.5205
  134OSM   C17F14588   2.537   4.222   8.723 -0.1499  0.6269  0.0243
  134OSM   H17F14589   2.646   4.202   8.726 -0.5402 -1.5082  0.3868
  134OSM   H17G14590   2.484   4.137   8.676  0.7088  0.1312 -0.0420
  134OSM   C18F14591   2.485   4.230   8.864 -0.1692  0.3892 -0.9409
  134OSM   H18F14592   2.374   4.237   8.865 -0.3034 -1.4759 -1.1084
  134OSM   H18G14593   2.524   4.326   8.904 -0.2737  0.6703 -1.5052
  134OSM   H18H14594   2.507   4.151   8.938 -1.6509  0.8506  0.0100
  135OSM      N14595   2.649   4.530   6.072 -0.5276  0.1801  0.0581
  135OSM    C1514596   2.605   4.669   6.050  0.7301  0.0184 -0.3178
  135OSM   H15A14597   2.659   4.717   5.970  0.3286 -0.5387 -0.9221
  135OSM   H15B14598   2.607   4.729   6.140 -2.8416  0.7056 -0.5993
  135OSM   H15C14599   2.502   4.674   6.018  0.1203 -0.1879  1.5283
  135OSM    C1414600   2.608   4.448   5.953  0.1644  0.0490  0.3995
  135OSM   H14A14601   2.505   4.460   5.922 -0.6234 -1.1255  2.4358
  135OSM   H14B14602   2.632   4.344   5.971  1.2505 -0.0943 -1.6329
  135OSM   H14C14603   2.668   4.482   5.869 -2.9825  1.1086 -1.5183
  135OSM    C1314604   2.804   4.519   6.080 -0.1269 -0.0542 -0.4831
  135OSM   H13A14605   2.857   4.583   6.011  1.5688  2.7886  3.2537
  135OSM   H13B14606   2.839   4.417   6.075  1.1141  0.3887 -1.0569
  135OSM   H13C14607   2.840   4.545   6.179 -1.9787  0.6546  0.0435
  135OSM    C1214608   2.591   4.475   6.206  0.7322  0.2033  0.6775
  135OSM   H12A14609   2.619   4.370   6.202 -1.8022 -0.4736 -0.7901
  135OSM   H12B14610   2.483   4.481   6.201  0.7081 -0.9979 -0.7697
  135OSM    C1114611   2.641   4.530   6.341  0.0768 -0.3306  1.0544
  135OSM   H11A14612   2.751   4.521   6.332 -0.1233 -0.8995 -1.3904
  135OSM   H11B14613   2.599   4.465   6.421 -2.4630  2.1551  1.8429
  135OSM      P14614   2.470   4.725   6.391 -0.0922 -0.0288 -0.1087
  135OSM    O1314615   2.473   4.873   6.357  0.2312 -0.4279  0.1297
  135OSM    O1414616   2.366   4.646   6.318  0.2950 -0.6099  0.3258
  135OSM    O1114617   2.454   4.694   6.547  0.0055 -0.0174 -0.3321
  135OSM    O1214618   2.618   4.667   6.361 -0.1476 -0.0791 -0.1792
  135OSM    C1S14619   2.568   4.691   6.630  0.7630 -0.0354  0.0819
  135OSM    H1S14620   2.623   4.787   6.635 -0.9302  0.8875  1.4861
  135OSM    H1T14621   2.645   4.616   6.601  0.7974  0.5522 -1.3914
  135OSM     NF14622   2.631   4.657   6.877  0.0892  0.1867 -0.1277
  135OSM    HNF14623   2.659   4.569   6.914  2.7789  1.1459  0.2202
  135OSM    C2S14624   2.526   4.641   6.777  0.3778 -0.5969  0.3697
  135OSM    H2S14625   2.443   4.710   6.805 -0.6988 -1.6053 -0.3129
  135OSM    C3S14626   2.461   4.496   6.768 -0.0776 -0.2418 -0.9937
  135OSM    H3S14627   2.548   4.428   6.764 -0.6985 -1.0495 -0.7678
  135OSM     O314628   2.381   4.471   6.657 -0.3222 -0.0424 -0.5115
  135OSM    HO314629   2.384   4.544   6.595  0.2519 -0.6647 -1.2315
  135OSM    C4S14630   2.396   4.468   6.898 -0.2166 -1.2659 -0.1979
  135OSM    H4S14631   2.471   4.438   6.972  0.7385 -0.6440 -0.8939
  135OSM    C5S14632   2.264   4.469   6.938  0.0289  0.0470  0.1595
  135OSM    H5S14633   2.190   4.499   6.862  1.1676  5.2836  0.9216
  135OSM    C6S14634   2.213   4.445   7.078 -0.2731  0.5137 -0.3119
  135OSM    H6S14635   2.139   4.363   7.077 -0.0713  0.3156  0.5867
  135OSM    H6T14636   2.146   4.530   7.104 -0.5424  0.3633 -0.5165
  135OSM    C7S14637   2.308   4.420   7.197  0.1989  0.6613  0.0689
  135OSM    H7S14638   2.353   4.518   7.225  0.5932  0.2950  0.7148
  135OSM    H7T14639   2.389   4.348   7.173 -2.4967 -1.7087 -2.2606
  135OSM    C8S14640   2.238   4.372   7.325  0.1809 -0.4222  0.0931
  135OSM    H8S14641   2.310   4.372   7.410 -0.3558 -0.7093  0.5563
  135OSM    H8T14642   2.200   4.269   7.306 -3.1908  1.0821 -1.8021
  135OSM    C9S14643   2.107   4.457   7.350 -0.4148 -0.1482 -0.2276
  135OSM    H9S14644   2.036   4.435   7.267 -1.0013  0.8778 -0.0177
  135OSM    H9T14645   2.129   4.565   7.341 -0.9544 -0.0918 -0.8963
  135OSM   C10S14646   2.046   4.426   7.494  0.5374  0.1640  0.5275
  135OSM   H10S14647   1.988   4.332   7.496  0.6116  0.1380  1.3598
  135OSM   H10T14648   1.976   4.512   7.507  1.7968  2.0059 -3.7662
  135OSM   C11S14649   2.132   4.407   7.612  0.0791  0.1400  0.1197
  135OSM   H11S14650   2.208   4.488   7.619  0.5575 -0.2816 -0.2027
  135OSM   H11T14651   2.199   4.319   7.607 -0.7056 -0.4390 -0.3681
  135OSM   C12S14652   2.048   4.406   7.738 -0.0837  0.6300  0.0036
  135OSM   H12S14653   1.981   4.318   7.728  0.3886  0.0967  1.3853
  135OSM   H12T14654   1.995   4.504   7.741  1.6822  1.6527 -1.5110
  135OSM   C13S14655   2.127   4.397   7.873  0.5107 -0.6176 -0.2361
  135OSM   H13S14656   2.218   4.459   7.857 -0.3764  0.4495 -1.2543
  135OSM   H13T14657   2.165   4.294   7.891 -0.0861 -0.7619  0.2038
  135OSM   C14S14658   2.054   4.443   8.003  0.6083  0.0560  0.1532
  135OSM   H14S14659   1.981   4.527   7.995  0.0637 -0.2969  1.3885
  135OSM   H14T14660   2.130   4.498   8.063  0.3342  1.5571 -0.8214
  135OSM   C15S14661   1.987   4.323   8.077 -0.4922  0.1378 -0.0144
  135OSM   H15S14662   2.037   4.224   8.078 -1.9998 -0.6519 -1.2121
  135OSM   H15T14663   1.893   4.296   8.025 -0.1069 -0.4515 -0.4020
  135OSM   C16S14664   1.944   4.352   8.222  0.6798  0.2494 -0.2481
  135OSM   H16S14665   1.877   4.266   8.246 -0.4643  1.9039  2.6812
  135OSM   H16T14666   1.859   4.424   8.224  0.7413  0.3581 -1.2565
  135OSM   C17S14667   2.057   4.380   8.314 -0.7691 -0.2025 -0.2425
  135OSM   H17S14668   2.101   4.478   8.285 -1.3629 -0.6672 -2.8386
  135OSM   H17T14669   2.144   4.312   8.299 -0.2248 -0.5492  3.8616
  135OSM   C18S14670   2.009   4.379   8.459 -1.0909  0.0830 -0.4996
  135OSM   H18S14671   1.921   4.447   8.471 -0.4237  0.5229  2.0281
  135OSM   H18T14672   2.089   4.413   8.527 -1.2528 -1.6210  0.5416
  135OSM   H18U14673   1.966   4.283   8.494 -1.2011  0.3588  0.1208
  135OSM    C1F14674   2.698   4.764   6.911 -0.0031  0.0392 -0.1032
  135OSM     OF14675   2.653   4.875   6.880 -0.4808  0.4017 -0.2354
  135OSM    C2F14676   2.818   4.742   6.989 -0.8190 -0.5206  0.0915
  135OSM    H2F14677   2.910   4.735   6.927 -0.2119  0.4474  0.8598
  135OSM    H2G14678   2.817   4.651   7.053  0.4759 -1.1741 -0.7918
  135OSM    C3F14679   2.852   4.865   7.080  0.5930  0.0120  0.3916
  135OSM    H3F14680   2.872   4.955   7.018  0.6567  2.5607  3.9864
  135OSM    H3G14681   2.954   4.858   7.124  0.2261  0.5897  1.3542
  135OSM    C4F14682   2.746   4.898   7.185  0.3228 -0.5721  0.2240
  135OSM    H4F14683   2.715   4.798   7.223 -1.0612  0.1861  1.1581
  135OSM    H4G14684   2.657   4.951   7.143  0.1662 -1.7439 -0.9416
  135OSM    C5F14685   2.810   4.980   7.298  0.4366 -0.4863 -0.1335
  135OSM    H5F14686   2.834   5.081   7.260  0.8469 -0.8243 -0.7774
  135OSM    H5G14687   2.904   4.928   7.325 -0.3101 -1.9357 -0.2435
  135OSM    C6F14688   2.722   4.984   7.423 -0.1325 -0.3337  0.6439
  135OSM    H6F14689   2.693   4.886   7.467 -3.5972  0.5372  0.3920
  135OSM    H6G14690   2.621   5.011   7.385  0.2817  0.5370  0.1404
  135OSM    C7F14691   2.781   5.083   7.528  0.2530  0.1265 -0.4356
  135OSM    H7F14692   2.707   5.150   7.577 -1.3701 -3.5154  2.2939
  135OSM    H7G14693   2.849   5.153   7.474  0.2557 -0.4045 -1.1259
  135OSM    C8F14694   2.854   5.006   7.641  0.0061 -0.1617 -0.7978
  135OSM    H8F14695   2.932   4.945   7.590 -0.2274 -1.1188 -0.0403
  135OSM    H8G14696   2.775   4.941   7.685  0.2771 -0.0497 -0.1440
  135OSM    C9F14697   2.914   5.097   7.743 -0.0450 -0.4571  0.2747
  135OSM    H9F14698   3.000   5.151   7.702 -1.3513  3.2878  2.2177
  135OSM   C10F14699   2.870   5.125   7.865 -0.6735 -0.3493 -1.1241
  135OSM   H10F14700   2.939   5.184   7.927 -2.0853  1.0824 -0.9104
  135OSM   C11F14701   2.747   5.070   7.931  0.2737 -0.1082 -0.4771
  135OSM   H11F14702   2.757   4.960   7.944 -0.3938 -0.4179 -2.4729
  135OSM   H11G14703   2.666   5.081   7.856  2.2271  1.4586 -2.4162
  135OSM   C12F14704   2.706   5.118   8.069 -0.2210  0.5629 -0.0168
  135OSM   H12F14705   2.621   5.059   8.110 -0.8020  1.3284 -0.0951
  135OSM   H12G14706   2.660   5.219   8.059  0.2577  0.7667 -0.1661
  135OSM   C13F14707   2.823   5.134   8.182 -0.3022 -0.3107 -0.0702
  135OSM   H13F14708   2.910   5.181   8.133 -1.4531  2.4831  0.4727
  135OSM   H13G14709   2.859   5.033   8.211  0.6113  0.4027  1.3415
  135OSM   C14F14710   2.793   5.213   8.306 -0.1208  0.2123  0.2478
  135OSM   H14F14711   2.891   5.213   8.358  0.5342 -1.6432 -0.9350
  135OSM   H14G14712   2.708   5.154   8.345 -1.0931 -0.2497 -2.4733
  135OSM   C15F14713   2.748   5.351   8.270  0.0525 -0.2227 -0.2111
  135OSM   H15F14714   2.654   5.342   8.212 -0.7061 -0.4260  1.0277
  135OSM   H15G14715   2.820   5.408   8.207 -0.3412 -0.2015 -0.6366
  135OSM   C16F14716   2.731   5.436   8.395 -0.5795 -0.3634  1.0211
  135OSM   H16F14717   2.829   5.480   8.420 -0.4642  0.0621 -0.1792
  135OSM   H16G14718   2.682   5.380   8.478 -1.5499 -0.1276  0.6206
  135OSM   C17F14719   2.639   5.565   8.371 -0.3200  1.0711  0.3313
  135OSM   H17F14720   2.613   5.595   8.474 -3.0066 -2.0416  0.6492
  135OSM   H17G14721   2.547   5.530   8.318 -0.1465  0.3376  0.5102
  135OSM   C18F14722   2.709   5.674   8.286  0.1597  0.0658 -0.5421
  135OSM   H18F14723   2.720   5.658   8.177 -1.3911  0.1260 -0.7224
  135OSM   H18G14724   2.808   5.693   8.333 -0.2732  1.7119 -0.2859
  135OSM   H18H14725   2.657   5.769   8.309  0.3598 -0.1826  0.9932
  136OSM      N14726   6.659   5.611   5.870  0.1013  0.5896  0.4895
  136OSM    C1514727   6.647   5.627   5.722  0.2115  0.6714 -0.0458
  136OSM   H15A14728   6.626   5.730   5.696 -0.2467  0.4480 -0.5640
  136OSM   H15B14729   6.592   5.548   5.673 -0.8639  1.3548  0.0427
  136OSM   H15C14730   6.747   5.618   5.682 -0.4314 -1.9244 -1.1311
  136OSM    C1414731   6.530   5.638   5.927 -0.5878 -0.1649  0.1577
  136OSM   H14A14732   6.525   5.604   6.030  0.2653  0.3547  0.3802
  136OSM   H14B14733   6.448   5.586   5.881 -0.1675 -1.6297  1.0138
  136OSM   H14C14734   6.505   5.743   5.929  2.2365  0.6509 -2.6849
  136OSM    C1314735   6.684   5.464   5.891  0.3477  0.5776 -0.1583
  136OSM   H13A14736   6.767   5.422   5.836 -1.5569 -2.9430 -0.5054
  136OSM   H13B14737   6.605   5.402   5.850  0.2742  0.7730 -0.3105
  136OSM   H13C14738   6.713   5.442   5.992  0.2349  0.0855 -0.2301
  136OSM    C1214739   6.771   5.693   5.924  0.2774 -0.1223 -0.3317
  136OSM   H12A14740   6.750   5.797   5.908 -0.7612 -0.0675  1.2101
  136OSM   H12B14741   6.858   5.671   5.864  1.3956 -4.9280  2.7434
  136OSM    C1114742   6.797   5.680   6.076 -0.6834  0.4949  0.3870
  136OSM   H11A14743   6.839   5.578   6.087  0.0527  0.8206  0.5798
  136OSM   H11B14744   6.706   5.684   6.140 -0.6671  0.4576  0.4124
  136OSM      P14745   7.039   5.752   6.109 -0.2963  0.3575  0.2282
  136OSM    O1314746   7.062   5.620   6.040  0.5348  0.1993  0.1432
  136OSM    O1414747   7.110   5.871   6.056  0.0336  0.9834  0.1084
  136OSM    O1114748   7.063   5.741   6.268  0.5846  0.2622  0.3311
  136OSM    O1214749   6.886   5.784   6.108 -0.4204  0.6470  0.0495
  136OSM    C1S14750   7.056   5.607   6.328 -0.2843 -0.4946  0.3926
  136OSM    H1S14751   7.140   5.549   6.286 -0.3989  1.6930 -3.0540
  136OSM    H1T14752   6.960   5.556   6.306 -0.5230  0.4083 -0.6928
  136OSM     NF14753   7.076   5.483   6.540  0.3971 -0.8545 -0.3889
  136OSM    HNF14754   6.991   5.450   6.580 -1.0878  1.6222 -1.4698
  136OSM    C2S14755   7.065   5.617   6.485  0.0155  0.7717 -0.5448
  136OSM    H2S14756   7.150   5.684   6.511 -1.4518  2.0724  1.0014
  136OSM    C3S14757   6.948   5.705   6.532  0.0961  0.8237  0.9581
  136OSM    H3S14758   6.851   5.660   6.502  1.0210 -0.3733 -0.3043
  136OSM     O314759   6.943   5.842   6.479 -0.5952 -0.0998 -0.2888
  136OSM    HO314760   6.990   5.836   6.395  0.4424  0.7480  0.2306
  136OSM    C4S14761   6.942   5.697   6.688 -0.2887  0.1070  1.1552
  136OSM    H4S14762   6.897   5.604   6.726 -0.4520 -0.0406  0.5982
  136OSM    C5S14763   6.973   5.796   6.776  0.2698 -0.1314  0.9983
  136OSM    H5S14764   7.032   5.882   6.741  0.1199  0.6374  2.5945
  136OSM    C6S14765   6.960   5.793   6.922 -0.2461  0.0356 -0.8107
  136OSM    H6S14766   7.057   5.777   6.973 -0.9725  2.9018  1.6060
  136OSM    H6T14767   6.867   5.741   6.953 -0.9622  0.4650 -2.1774
  136OSM    C7S14768   6.924   5.939   6.966  1.0323 -0.3753 -0.3221
  136OSM    H7S14769   6.835   5.971   6.908  0.6525  0.1642  0.5538
  136OSM    H7T14770   7.005   6.013   6.946  0.0525  1.1328  1.1578
  136OSM    C8S14771   6.878   5.956   7.110 -0.2965  0.8348 -0.2830
  136OSM    H8S14772   6.827   5.868   7.155  1.1429 -1.0937 -2.3526
  136OSM    H8T14773   6.811   6.043   7.125  0.9753  1.9335 -0.8497
  136OSM    C9S14774   6.998   5.985   7.207 -0.0501 -0.4382 -0.6526
  136OSM    H9S14775   7.007   6.095   7.210  0.3847 -0.4686 -0.8369
  136OSM    H9T14776   7.088   5.941   7.159  1.0374  1.0628 -0.0335
  136OSM   C10S14777   6.992   5.928   7.351 -0.2746 -0.5095  0.0405
  136OSM   H10S14778   6.987   5.817   7.354  1.4393 -0.6010 -0.2270
  136OSM   H10T14779   6.896   5.959   7.399  1.1837  2.4755  1.1807
  136OSM   C11S14780   7.108   5.971   7.447 -0.5417 -0.6849 -0.1771
  136OSM   H11S14781   7.212   5.950   7.415  0.4203  0.6342  2.0095
  136OSM   H11T14782   7.091   5.909   7.538 -2.1340  0.3986  0.2805
  136OSM   C12S14783   7.099   6.118   7.507 -0.0779  0.3366 -0.3698
  136OSM   H12S14784   6.993   6.146   7.522  0.7506  1.7363  3.1745
  136OSM   H12T14785   7.146   6.178   7.426 -0.4218  1.8909  0.5700
  136OSM   C13S14786   7.164   6.133   7.646  0.3292  0.3493  1.1179
  136OSM   H13S14787   7.270   6.098   7.648  0.7216  1.5174  1.1445
  136OSM   H13T14788   7.094   6.088   7.719 -2.1240  0.5778 -1.0305
  136OSM   C14S14789   7.165   6.276   7.693 -0.3429  0.1273 -0.4717
  136OSM   H14S14790   7.066   6.326   7.683  0.0687  0.7455 -1.5453
  136OSM   H14T14791   7.236   6.329   7.626  2.6223 -1.4718  1.2984
  136OSM   C15S14792   7.208   6.272   7.838  0.6156  0.6753  0.1028
  136OSM   H15S14793   7.302   6.214   7.855 -0.0139 -1.0190 -1.9620
  136OSM   H15T14794   7.123   6.222   7.888  0.7898  0.8559  0.5775
  136OSM   C16S14795   7.220   6.419   7.887 -0.3683 -0.5808 -0.2415
  136OSM   H16S14796   7.130   6.471   7.848  0.0003 -0.7893 -1.4113
  136OSM   H16T14797   7.314   6.461   7.844 -0.2733 -1.5257 -0.9695
  136OSM   C17S14798   7.233   6.417   8.043  0.0547 -0.3380  0.0890
  136OSM   H17S14799   7.254   6.520   8.078 -1.1101 -0.0705  0.0177
  136OSM   H17T14800   7.323   6.367   8.084 -1.6197 -2.6631  1.0431
  136OSM   C18S14801   7.112   6.383   8.126 -0.4386  0.0165 -0.4872
  136OSM   H18S14802   7.110   6.454   8.211 -0.4594 -1.2159  0.5400
  136OSM   H18T14803   7.112   6.279   8.164  1.7123 -0.2045 -1.0351
  136OSM   H18U14804   7.019   6.410   8.071 -0.4675  1.0434  0.0454
  136OSM    C1F14805   7.184   5.412   6.526 -0.1976 -0.2470 -0.2904
  136OSM     OF14806   7.280   5.456   6.468 -0.4244  0.0604  0.2435
  136OSM    C2F14807   7.176   5.276   6.584  0.1471 -0.3401  0.3026
  136OSM    H2F14808   7.168   5.201   6.502 -0.2463 -0.0164  0.0429
  136OSM    H2G14809   7.082   5.273   6.642  0.2615  2.5636  0.7376
  136OSM    C3F14810   7.298   5.245   6.670 -0.0004 -0.5609 -0.1366
  136OSM    H3F14811   7.387   5.244   6.604 -0.1064 -0.3226 -0.2827
  136OSM    H3G14812   7.307   5.140   6.708  0.4286 -1.5045 -2.7201
  136OSM    C4F14813   7.314   5.343   6.796 -0.0976 -0.3501  0.4346
  136OSM    H4F14814   7.299   5.452   6.782 -0.7254 -0.3927  0.7514
  136OSM    H4G14815   7.412   5.327   6.847  0.3949  1.2389  0.0069
  136OSM    C5F14816   7.206   5.327   6.910  0.0509  0.6071 -0.4325
  136OSM    H5F14817   7.231   5.236   6.969  0.3345  0.5262 -0.6743
  136OSM    H5G14818   7.114   5.311   6.850  0.2791  0.6298 -0.7897
  136OSM    C6F14819   7.182   5.450   6.995  0.7968 -0.1128  0.1795
  136OSM    H6F14820   7.075   5.447   7.022  0.7912  1.2351  0.3586
  136OSM    H6G14821   7.193   5.542   6.932 -1.9532  1.8415  2.4156
  136OSM    C7F14822   7.278   5.463   7.117 -0.1538 -0.0181  1.3497
  136OSM    H7F14823   7.384   5.444   7.090 -0.7396 -2.0391  0.3553
  136OSM    H7G14824   7.244   5.384   7.188 -0.1671  2.0130  3.6473
  136OSM    C8F14825   7.262   5.605   7.181 -0.6544 -0.3412  0.4899
  136OSM    H8F14826   7.290   5.589   7.288  0.1748 -0.2504  0.2823
  136OSM    H8G14827   7.153   5.628   7.172 -0.5251  0.6252  1.2410
  136OSM    C9F14828   7.351   5.702   7.101 -0.0745  1.0021  0.2159
  136OSM    H9F14829   7.310   5.748   7.010 -1.4441  0.9996  0.8191
  136OSM   C10F14830   7.476   5.742   7.139 -0.8245 -0.2433 -0.9286
  136OSM   H10F14831   7.523   5.820   7.078  1.4686  0.1403  1.2406
  136OSM   C11F14832   7.553   5.708   7.262  0.4833 -0.1148 -0.6873
  136OSM   H11F14833   7.642   5.649   7.231 -0.6630 -0.5624 -3.3240
  136OSM   H11G14834   7.492   5.643   7.328 -0.4159  2.9810  1.6671
  136OSM   C12F14835   7.583   5.813   7.361 -0.5197 -0.0182  0.6411
  136OSM   H12F14836   7.627   5.763   7.450 -0.0528  2.8175  2.0531
  136OSM   H12G14837   7.490   5.860   7.399  0.7926  3.4411 -0.2426
  136OSM   C13F14838   7.696   5.913   7.329 -0.2853 -1.1464  0.2527
  136OSM   H13F14839   7.676   5.985   7.247 -2.5037 -2.1100 -0.0783
  136OSM   H13G14840   7.784   5.863   7.283  2.2361  2.2533  1.1489
  136OSM   C14F14841   7.744   5.987   7.456  0.3377 -0.3047 -0.0268
  136OSM   H14F14842   7.816   6.067   7.426  0.4049 -0.0647  0.7639
  136OSM   H14G14843   7.784   5.904   7.518  0.8048 -1.1989 -1.5041
  136OSM   C15F14844   7.627   6.055   7.530 -0.3638  0.1485 -0.2538
  136OSM   H15F14845   7.582   5.973   7.589  1.0231 -0.1916  0.3476
  136OSM   H15G14846   7.551   6.107   7.467  0.5037  0.3379 -1.1627
  136OSM   C16F14847   7.690   6.152   7.639 -0.0140  0.1214 -0.2859
  136OSM   H16F14848   7.737   6.234   7.580 -0.7886  0.4169 -0.4925
  136OSM   H16G14849   7.761   6.090   7.698 -0.7700 -2.1367 -1.6695
  136OSM   C17F14850   7.594   6.205   7.749 -0.5626  0.2427  0.3392
  136OSM   H17F14851   7.558   6.120   7.811  1.3635 -2.3895 -2.0587
  136OSM   H17G14852   7.507   6.245   7.692 -1.0163 -0.8907  0.2216
  136OSM   C18F14853   7.658   6.320   7.831 -0.6337  0.0271 -1.2820
  136OSM   H18F14854   7.589   6.363   7.907  0.4670  2.4140 -1.5815
  136OSM   H18G14855   7.715   6.400   7.778  1.6985 -0.4215  0.4236
  136OSM   H18H14856   7.734   6.281   7.903 -0.0923 -0.1317 -1.9317
  137OSM      N14857   4.153   4.110   6.299 -0.3334 -0.5717 -0.5735
  137OSM    C1514858   4.102   4.235   6.372  0.3043 -0.0730  0.2409
  137OSM   H15A14859   4.036   4.219   6.457  1.5104 -3.0354  0.6784
  137OSM   H15B14860   4.048   4.299   6.305  1.5608 -0.1104 -0.8117
  137OSM   H15C14861   4.189   4.288   6.409  1.3358 -1.6670  0.1590
  137OSM    C1414862   4.029   4.031   6.254 -0.1842  0.4271  0.5544
  137OSM   H14A14863   3.953   4.095   6.213 -1.6169 -1.4840  0.1507
  137OSM   H14B14864   3.971   3.980   6.330 -0.1819 -1.4496 -0.6453
  137OSM   H14C14865   4.049   3.963   6.173 -0.1661 -0.5309  1.3447
  137OSM    C1314866   4.227   4.166   6.182  0.0308  0.0756 -0.1843
  137OSM   H13A14867   4.270   4.081   6.130 -3.2691 -0.8300 -1.6285
  137OSM   H13B14868   4.304   4.235   6.210  1.0230 -0.0776 -2.4260
  137OSM   H13C14869   4.158   4.216   6.116 -1.5959 -0.8272  0.7764
  137OSM    C1214870   4.248   4.020   6.383  0.3110 -0.3501 -0.4565
  137OSM   H12A14871   4.342   4.070   6.404  0.3206  0.6414 -2.7557
  137OSM   H12B14872   4.282   3.932   6.330  2.8790  0.2473  0.1055
  137OSM    C1114873   4.201   3.959   6.520 -0.4118  0.1372 -0.9607
  137OSM   H11A14874   4.169   4.040   6.589  0.1389 -0.7148  0.3037
  137OSM   H11B14875   4.292   3.914   6.565 -2.4078 -1.0402  2.0979
  137OSM      P14876   4.132   3.718   6.493  0.3676  0.3361  0.3623
  137OSM    O1314877   4.008   3.653   6.445 -0.0974 -0.5638 -0.0312
  137OSM    O1414878   4.248   3.696   6.407 -0.1783  0.2002 -0.3899
  137OSM    O1114879   4.156   3.678   6.642  0.4258 -0.0831  0.5401
  137OSM    O1214880   4.092   3.867   6.504  0.1822 -0.1255  0.1567
  137OSM    C1S14881   4.094   3.734   6.759 -0.2821 -0.5291 -0.0688
  137OSM    H1S14882   4.026   3.818   6.735 -0.1585 -0.8808 -1.6951
  137OSM    H1T14883   4.176   3.771   6.825 -0.5043 -0.2436  0.0466
  137OSM     NF14884   3.984   3.707   6.975  0.7286  0.1424 -0.3049
  137OSM    HNF14885   4.027   3.678   7.060 -2.1934  0.0129  1.2055
  137OSM    C2S14886   4.019   3.634   6.850  0.3014  0.0958 -0.6485
  137OSM    H2S14887   3.921   3.618   6.801 -0.4555  0.6437  0.6479
  137OSM    C3S14888   4.113   3.503   6.868 -0.2776 -0.3287 -0.4601
  137OSM    H3S14889   4.212   3.535   6.907  0.6806 -1.9682 -1.4714
  137OSM     O314890   4.122   3.434   6.747 -0.0565 -0.3564  0.5299
  137OSM    HO314891   4.120   3.504   6.682 -0.5154  0.2597  1.2026
  137OSM    C4S14892   4.063   3.412   6.974  0.6029 -0.5912  0.1227
  137OSM    H4S14893   4.137   3.395   7.054 -0.4133  3.4374  2.0511
  137OSM    C5S14894   3.949   3.333   6.983  0.4731 -0.3139 -0.5050
  137OSM    H5S14895   3.885   3.346   6.894  1.2026  0.1048 -0.9758
  137OSM    C6S14896   3.910   3.237   7.093  0.1879  0.0838 -0.2411
  137OSM    H6S14897   3.898   3.134   7.054  2.4070  0.0361 -0.8446
  137OSM    H6T14898   3.813   3.282   7.125  0.8454  2.2239 -1.1962
  137OSM    C7S14899   4.014   3.258   7.208  0.2677  0.3645  0.1679
  137OSM    H7S14900   4.016   3.367   7.226 -0.8282  0.2187  1.1930
  137OSM    H7T14901   4.110   3.219   7.165 -0.4904  0.4927 -1.7050
  137OSM    C8S14902   3.982   3.188   7.335 -0.4521 -0.2255  0.7341
  137OSM    H8S14903   4.071   3.198   7.401  2.0559 -0.3750 -2.4906
  137OSM    H8T14904   3.943   3.084   7.326  0.0056 -0.9012  5.1967
  137OSM    C9S14905   3.885   3.272   7.417  0.2090 -0.3416  0.3805
  137OSM    H9S14906   3.786   3.278   7.367  0.2924 -3.1674 -0.2149
  137OSM    H9T14907   3.926   3.375   7.413  1.8364 -1.0325 -4.8282
  137OSM   C10S14908   3.867   3.212   7.561 -0.3373  0.3220 -1.3140
  137OSM   H10S14909   3.967   3.220   7.608 -0.6912  0.9726 -0.6662
  137OSM   H10T14910   3.837   3.106   7.548 -1.9006  0.3872  1.6246
  137OSM   C11S14911   3.778   3.289   7.656 -0.4226 -0.6296 -0.5096
  137OSM   H11S14912   3.784   3.246   7.758  1.7103  1.4598  0.2692
  137OSM   H11T14913   3.672   3.292   7.622 -0.8057 -1.0867  0.6154
  137OSM   C12S14914   3.841   3.427   7.669 -0.0976 -0.4416 -0.4101
  137OSM   H12S14915   3.851   3.476   7.570  1.0045  0.2177  0.0236
  137OSM   H12T14916   3.947   3.430   7.702 -0.5545 -1.3438  1.1936
  137OSM   C13S14917   3.775   3.526   7.760  0.1494 -0.0570  0.1343
  137OSM   H13S14918   3.742   3.486   7.858 -0.3202 -0.8262 -0.3258
  137OSM   H13T14919   3.675   3.535   7.713 -1.1755  1.1395  3.0909
  137OSM   C14S14920   3.849   3.656   7.768  0.3297  0.6374 -0.5609
  137OSM   H14S14921   3.896   3.678   7.670  2.8001  1.1106  0.6689
  137OSM   H14T14922   3.932   3.650   7.842 -0.6045  1.6369  0.5807
  137OSM   C15S14923   3.750   3.763   7.808 -0.0962  0.0060 -0.9636
  137OSM   H15S14924   3.672   3.763   7.730 -1.1259 -0.3929  0.0492
  137OSM   H15T14925   3.811   3.856   7.805 -0.3870  0.2295 -0.2675
  137OSM   C16S14926   3.668   3.751   7.941 -0.6729 -0.1883  0.4628
  137OSM   H16S14927   3.595   3.667   7.935 -0.1787 -0.5937  0.0885
  137OSM   H16T14928   3.620   3.851   7.953  1.3840  0.8823 -0.1106
  137OSM   C17S14929   3.760   3.752   8.066 -0.1363  0.4779 -0.1039
  137OSM   H17S14930   3.834   3.832   8.045  0.7385 -0.2347  0.2211
  137OSM   H17T14931   3.811   3.653   8.066 -1.9740 -0.5207  2.1594
  137OSM   C18S14932   3.690   3.774   8.202  0.1472 -0.3005 -0.1046
  137OSM   H18S14933   3.756   3.748   8.288 -1.6357 -3.7957  0.2896
  137OSM   H18T14934   3.606   3.702   8.208 -1.2286  1.2847 -0.0056
  137OSM   H18U14935   3.654   3.878   8.221 -0.5297 -0.5085 -0.2275
  137OSM    C1F14936   3.899   3.809   6.981  0.3541 -0.0225 -0.0448
  137OSM     OF14937   3.847   3.861   6.880 -0.3961  0.3028 -0.1439
  137OSM    C2F14938   3.867   3.865   7.120  0.1359  0.6291  0.0491
  137OSM    H2F14939   3.783   3.932   7.094 -2.5198 -1.8229  2.0242
  137OSM    H2G14940   3.954   3.927   7.153 -0.2813  1.4301 -0.3371
  137OSM    C3F14941   3.805   3.765   7.216  0.1762 -0.0024  0.5039
  137OSM    H3F14942   3.864   3.670   7.217  0.9265  0.4678  1.1134
  137OSM    H3G14943   3.710   3.732   7.168  1.0746 -1.4976 -0.3125
  137OSM    C4F14944   3.776   3.831   7.356  0.1662 -0.4363  0.8087
  137OSM    H4F14945   3.862   3.897   7.382  0.3255 -0.9559  1.6084
  137OSM    H4G14946   3.767   3.748   7.429  1.0469  0.3799  1.8771
  137OSM    C5F14947   3.646   3.915   7.349 -0.2356 -0.2065 -0.4961
  137OSM    H5F14948   3.557   3.855   7.322 -1.0035 -0.0185  1.5863
  137OSM    H5G14949   3.657   3.995   7.272 -0.8697  1.0597  0.6932
  137OSM    C6F14950   3.613   3.971   7.488  0.3444  0.7227  0.1041
  137OSM    H6F14951   3.684   4.052   7.516 -0.9723  1.8782  0.1406
  137OSM    H6G14952   3.611   3.887   7.561 -0.8242  0.4432 -0.2372
  137OSM    C7F14953   3.469   4.037   7.508  0.0345 -0.1522 -0.9515
  137OSM    H7F14954   3.399   3.955   7.481 -1.6935  1.5301 -1.7034
  137OSM    H7G14955   3.456   4.111   7.427  1.4228  2.2781  0.9824
  137OSM    C8F14956   3.439   4.083   7.655 -0.0424  0.2192  0.3568
  137OSM    H8F14957   3.442   3.991   7.717 -1.2323 -0.5658 -0.7226
  137OSM    H8G14958   3.331   4.107   7.652 -0.3371 -1.2080 -2.2263
  137OSM    C9F14959   3.509   4.204   7.710 -0.5517  0.2482 -0.3100
  137OSM    H9F14960   3.555   4.264   7.629 -0.1442  0.0182 -0.2509
  137OSM   C10F14961   3.517   4.233   7.841 -0.0312 -0.0691 -0.2496
  137OSM   H10F14962   3.561   4.329   7.874  2.7088 -0.8908 -1.2919
  137OSM   C11F14963   3.471   4.146   7.955  0.3779 -0.0980 -0.3959
  137OSM   H11F14964   3.555   4.151   8.027  1.3197 -0.3982 -1.4525
  137OSM   H11G14965   3.457   4.042   7.919  0.3530 -0.5208  0.8140
  137OSM   C12F14966   3.357   4.210   8.034 -0.7200 -0.0633 -0.0429
  137OSM   H12F14967   3.265   4.200   7.973 -0.4269  2.3256 -0.9571
  137OSM   H12G14968   3.370   4.319   8.053 -0.0829  0.1877 -1.8208
  137OSM   C13F14969   3.333   4.112   8.156  0.1143  1.4214  0.5812
  137OSM   H13F14970   3.413   4.116   8.232  0.5683 -0.2665  0.2058
  137OSM   H13G14971   3.323   4.010   8.113  0.1052  1.4649  0.4779
  137OSM   C14F14972   3.202   4.157   8.227 -0.1400 -0.3316  0.4456
  137OSM   H14F14973   3.115   4.177   8.161 -0.3326 -1.1043  0.4669
  137OSM   H14G14974   3.223   4.256   8.273 -1.4699 -1.2656  3.1792
  137OSM   C15F14975   3.167   4.047   8.318  0.2190 -0.2929  0.5237
  137OSM   H15F14976   3.248   4.030   8.393  1.1919  0.6356 -0.2993
  137OSM   H15G14977   3.155   3.946   8.273 -0.9087 -0.2147  0.6244
  137OSM   C16F14978   3.038   4.074   8.392 -0.2645  0.3884  0.3973
  137OSM   H16F14979   2.959   4.077   8.315 -0.7319 -1.4622  0.7739
  137OSM   H16G14980   3.044   4.170   8.448 -0.4279  0.5826  0.0855
  137OSM   C17F14981   2.994   3.955   8.488 -0.6615 -0.5745  0.5790
  137OSM   H17F14982   3.057   3.935   8.577  1.6213 -1.1435 -1.1108
  137OSM   H17G14983   2.987   3.864   8.425 -0.5579 -0.0116 -0.2616
  137OSM   C18F14984   2.847   3.978   8.534 -0.0000  0.2699 -0.3419
  137OSM   H18F14985   2.773   3.952   8.455 -0.2818 -0.5579  0.1924
  137OSM   H18G14986   2.826   4.077   8.580 -0.1106 -0.3350  0.9567
  137OSM   H18H14987   2.834   3.908   8.620 -0.6661  1.1935  0.3211
  138OSM      N14988   4.356   6.319   5.625 -0.0649  0.0816 -0.3446
  138OSM    C1514989   4.502   6.291   5.610  0.3071  0.6641 -0.3845
  138OSM   H15A14990   4.527   6.218   5.686 -5.1202  1.2458  2.1629
  138OSM   H15B14991   4.539   6.390   5.631 -2.2198  1.5766 -0.0800
  138OSM   H15C14992   4.521   6.265   5.507  1.3761 -1.7530  0.3802
  138OSM    C1414993   4.332   6.432   5.536  0.6330 -0.1457 -0.3331
  138OSM   H14A14994   4.233   6.473   5.532  1.2146  1.3363  0.1131
  138OSM   H14B14995   4.343   6.412   5.430 -0.6146  0.1259 -0.5183
  138OSM   H14C14996   4.381   6.526   5.557 -0.0069 -0.1361  1.1612
  138OSM    C1314997   4.281   6.195   5.580 -0.6463  0.3301  0.1504
  138OSM   H13A14998   4.175   6.206   5.565 -0.7404 -0.5882  0.1026
  138OSM   H13B14999   4.302   6.117   5.652 -3.4349 -3.3594 -2.8135
  138OSM   H13C15000   4.330   6.158   5.491  0.8661  0.9886  0.7013
  138OSM    C1215001   4.317   6.366   5.770  0.1749  0.2710  1.0883
  138OSM   H12A15002   4.224   6.421   5.762  0.2158 -0.0163 -1.6600
  138OSM   H12B15003   4.388   6.442   5.802  0.7313  0.4563 -0.5602
  138OSM    C1115004   4.286   6.265   5.882 -0.1369 -0.9323  0.1928
  138OSM   H11A15005   4.203   6.212   5.831 -0.2807  0.3004 -0.9104
  138OSM   H11B15006   4.239   6.320   5.966  1.9576 -0.4171  1.0489
  138OSM      P15007   4.522   6.242   5.989 -0.0449 -0.1924  0.1524
  138OSM    O1315008   4.637   6.146   5.993 -0.4895  0.0061 -0.0329
  138OSM    O1415009   4.554   6.383   5.945  0.1158  0.6286 -0.0537
  138OSM    O1115010   4.467   6.261   6.140  0.2041  0.7200  0.1354
  138OSM    O1215011   4.401   6.180   5.912  0.3131 -0.4664 -0.6392
  138OSM    C1S15012   4.420   6.147   6.215 -0.1050  0.0541  0.6852
  138OSM    H1S15013   4.501   6.072   6.231  0.0216 -0.1665 -0.9670
  138OSM    H1T15014   4.339   6.096   6.159 -2.0820  3.6118  0.1906
  138OSM     NF15015   4.331   6.056   6.420  0.0729 -0.9496  0.0918
  138OSM    HNF15016   4.242   6.017   6.397 -0.8511  2.1896 -1.8650
  138OSM    C2S15017   4.355   6.178   6.357  0.2949  0.1690  0.2958
  138OSM    H2S15018   4.415   6.233   6.433 -0.8226  1.0970  0.5088
  138OSM    C3S15019   4.224   6.261   6.339  0.5059 -0.0400 -1.2004
  138OSM    H3S15020   4.162   6.180   6.295  1.5496 -1.9685  0.7945
  138OSM     O315021   4.237   6.377   6.252  0.0567  0.7328  0.2109
  138OSM    HO315022   4.312   6.364   6.194  1.0309  0.2719  1.5755
  138OSM    C4S15023   4.173   6.301   6.479  0.2744 -0.1865 -0.9925
  138OSM    H4S15024   4.246   6.294   6.561 -0.4479  0.9496 -0.2264
  138OSM    C5S15025   4.048   6.334   6.518  0.8348  0.8123 -0.1859
  138OSM    H5S15026   3.965   6.321   6.448  1.7878 -0.7940 -1.0334
  138OSM    C6S15027   4.015   6.361   6.663  1.0767 -0.1188  0.6617
  138OSM    H6S15028   3.923   6.305   6.690  2.4811 -1.9228  1.8467
  138OSM    H6T15029   3.998   6.470   6.679  0.8131 -0.0275 -0.2078
  138OSM    C7S15030   4.118   6.333   6.776  0.6162  0.1368  0.0464
  138OSM    H7S15031   4.207   6.400   6.770  1.1749 -0.6669 -0.7659
  138OSM    H7T15032   4.163   6.233   6.761  0.1683  0.0426 -0.6936
  138OSM    C8S15033   4.047   6.328   6.914  0.3155 -0.0014  0.0303
  138OSM    H8S15034   3.983   6.237   6.915 -2.4961  1.9303  0.3866
  138OSM    H8T15035   3.982   6.417   6.926  2.1665  1.6200 -1.5301
  138OSM    C9S15036   4.140   6.314   7.040  0.1357 -0.3410 -0.3567
  138OSM    H9S15037   4.181   6.417   7.043  1.6323 -0.9754  2.4345
  138OSM    H9T15038   4.222   6.240   7.033  0.4892  0.0220 -0.0580
  138OSM   C10S15039   4.061   6.293   7.169 -0.7046  0.3175 -0.3978
  138OSM   H10S15040   4.022   6.189   7.173  0.6676 -0.1532  1.4231
  138OSM   H10T15041   3.990   6.377   7.185  0.2950  1.0951 -0.0286
  138OSM   C11S15042   4.153   6.290   7.293  0.1319  0.0894  0.3988
  138OSM   H11S15043   4.204   6.386   7.314  1.8017 -0.3844 -1.3514
  138OSM   H11T15044   4.237   6.218   7.280  0.8244  1.1918 -1.4771
  138OSM   C12S15045   4.081   6.268   7.425  1.2261  0.0720  1.5390
  138OSM   H12S15046   4.048   6.163   7.439  1.2326 -0.1792 -0.2224
  138OSM   H12T15047   3.992   6.334   7.418  1.5029  0.2057 -1.3730
  138OSM   C13S15048   4.162   6.318   7.544  0.2598  0.1839 -0.5713
  138OSM   H13S15049   4.191   6.424   7.527  0.1944  0.2037 -0.5546
  138OSM   H13T15050   4.251   6.251   7.545  0.6757  0.7239  1.9786
  138OSM   C14S15051   4.078   6.310   7.670  0.6568 -0.3938  0.2592
  138OSM   H14S15052   4.061   6.204   7.700 -2.3867 -0.3875 -1.3091
  138OSM   H14T15053   3.977   6.350   7.647  0.1752 -0.6891  1.7729
  138OSM   C15S15054   4.143   6.387   7.786 -0.7844  0.2811 -0.6220
  138OSM   H15S15055   4.143   6.495   7.758  0.3854  0.1436 -1.1954
  138OSM   H15T15056   4.236   6.331   7.810 -1.7434 -2.2417 -2.5225
  138OSM   C16S15057   4.072   6.374   7.923 -0.0363  0.0259 -0.0409
  138OSM   H16S15058   4.069   6.270   7.962 -1.6145  0.1132  0.0979
  138OSM   H16T15059   3.968   6.407   7.905  0.1943  1.1022  0.5715
  138OSM   C17S15060   4.130   6.461   8.041  0.4128  0.0704  0.2483
  138OSM   H17S15061   4.116   6.570   8.020  1.0858  0.1938  0.4234
  138OSM   H17T15062   4.237   6.432   8.042 -0.0066 -1.5131  0.7183
  138OSM   C18S15063   4.055   6.424   8.165  0.2896  1.0021 -0.1886
  138OSM   H18S15064   4.064   6.316   8.190  2.3682  1.3177  0.5556
  138OSM   H18T15065   3.949   6.443   8.138  0.6124  2.8596 -0.2676
  138OSM   H18U15066   4.077   6.498   8.246 -0.5586 -0.4187  1.3765
  138OSM    C1F15067   4.426   5.976   6.472 -1.1206 -0.1095 -1.0734
  138OSM     OF15068   4.530   6.035   6.505 -0.2609  0.2877  0.6202
  138OSM    C2F15069   4.395   5.831   6.488  0.1580  0.1156  1.1868
  138OSM    H2F15070   4.449   5.771   6.412 -0.8856  0.2530  0.3224
  138OSM    H2G15071   4.287   5.822   6.463  0.7945  1.0933 -2.1910
  138OSM    C3F15072   4.441   5.773   6.628 -0.4698  0.4645 -0.4034
  138OSM    H3F15073   4.552   5.775   6.631 -0.4038 -0.2905 -1.8857
  138OSM    H3G15074   4.417   5.665   6.631 -0.3178  0.4558  0.7304
  138OSM    C4F15075   4.385   5.841   6.747 -0.1066  0.5507 -0.1709
  138OSM    H4F15076   4.278   5.814   6.755 -0.5970  2.1642 -1.0680
  138OSM    H4G15077   4.392   5.950   6.730  1.5289  0.6003  0.7365
  138OSM    C5F15078   4.476   5.817   6.869 -0.8657  0.1799  0.4121
  138OSM    H5F15079   4.569   5.876   6.859  0.6182 -1.4795  3.4681
  138OSM    H5G15080   4.512   5.712   6.862 -2.5313 -0.4062  0.3410
  138OSM    C6F15081   4.407   5.850   7.005  0.5156 -0.3577 -0.6028
  138OSM    H6F15082   4.348   5.943   6.995  1.0403  0.2662  1.8430
  138OSM    H6G15083   4.482   5.856   7.086 -1.8731  2.5236  1.5000
  138OSM    C7F15084   4.306   5.747   7.051  0.3075 -0.3186 -0.7898
  138OSM    H7F15085   4.351   5.646   7.040  0.4534 -0.4640  1.0519
  138OSM    H7G15086   4.224   5.757   6.977  2.2769  0.0351 -2.9796
  138OSM    C8F15087   4.250   5.777   7.184 -0.7698 -0.1265 -0.0900
  138OSM    H8F15088   4.160   5.714   7.199  0.0125 -1.5163 -1.0263
  138OSM    H8G15089   4.222   5.884   7.188 -0.6777 -0.0991 -0.1596
  138OSM    C9F15090   4.342   5.737   7.298 -0.1237 -0.1913 -0.0302
  138OSM    H9F15091   4.348   5.628   7.308 -0.1768 -0.1232  0.7936
  138OSM   C10F15092   4.422   5.812   7.383 -0.1848  0.4009  0.3880
  138OSM   H10F15093   4.491   5.771   7.458  0.0635  0.0617 -0.0237
  138OSM   C11F15094   4.417   5.966   7.387  0.2130 -0.5186  0.6957
  138OSM   H11F15095   4.312   5.998   7.369  0.6725  1.6347  1.6445
  138OSM   H11G15096   4.488   6.004   7.311  2.3220  1.1069  3.3829
  138OSM   C12F15097   4.452   6.030   7.526  0.4453  0.3330 -0.2843
  138OSM   H12F15098   4.422   6.136   7.515 -1.4757 -0.3502 -1.8808
  138OSM   H12G15099   4.560   6.024   7.550  0.2288  2.4369  1.4017
  138OSM   C13F15100   4.378   5.970   7.640  0.5794  0.9361 -0.2927
  138OSM   H13F15101   4.416   5.868   7.660 -0.6313  0.3428 -0.9261
  138OSM   H13G15102   4.269   5.958   7.620  0.7079  1.4836 -1.3481
  138OSM   C14F15103   4.382   6.040   7.780 -0.3819 -0.4451  0.6901
  138OSM   H14F15104   4.343   6.142   7.760 -0.7515 -0.2979  2.1115
  138OSM   H14G15105   4.491   6.048   7.799 -0.3404  0.1389  0.2290
  138OSM   C15F15106   4.291   5.977   7.885  0.0089  0.5462  0.3570
  138OSM   H15F15107   4.189   6.002   7.848 -0.9647 -0.5128  2.2195
  138OSM   H15G15108   4.307   6.034   7.979 -1.4967  2.7054 -0.6524
  138OSM   C16F15109   4.305   5.816   7.896 -0.5870 -0.4379  0.6053
  138OSM   H16F15110   4.401   5.804   7.949 -1.1946 -1.6488  1.4511
  138OSM   H16G15111   4.306   5.762   7.798  2.0847 -0.3123  0.5224
  138OSM   C17F15112   4.188   5.782   7.993  0.2319 -0.5916  0.6591
  138OSM   H17F15113   4.096   5.769   7.931  0.3582 -1.5007  0.6468
  138OSM   H17G15114   4.169   5.866   8.063 -2.8434 -2.1079  1.7842
  138OSM   C18F15115   4.224   5.653   8.074  0.9396 -0.3031  0.0126
  138OSM   H18F15116   4.307   5.688   8.139 -0.0740  0.3800  0.9566
  138OSM   H18G15117   4.253   5.559   8.022 -1.1149  0.2368 -2.2103
  138OSM   H18H15118   4.133   5.625   8.131  1.4254 -0.1044  0.8888
  139OSM      N15119   3.992   0.176   6.052  0.7316  0.4462  0.3333
  139OSM    C1515120   4.029   0.226   5.915  0.2418 -0.0720 -0.0818
  139OSM   H15A15121   4.136   0.226   5.899 -0.0417 -0.9238 -2.2484
  139OSM   H15B15122   3.993   0.328   5.909  4.7080  1.6041 -0.8298
  139OSM   H15C15123   3.983   0.171   5.834 -0.4987  3.3032 -2.0434
  139OSM    C1415124   4.099   0.231   6.141 -0.3892  0.2488 -0.6164
  139OSM   H14A15125   4.091   0.337   6.160 -2.0009 -0.0664  0.5680
  139OSM   H14B15126   4.195   0.228   6.092 -0.8932  1.0319 -1.6568
  139OSM   H14C15127   4.092   0.188   6.241 -3.6665 -1.3849 -1.4686
  139OSM    C1315128   3.859   0.224   6.104  0.0458 -0.6032 -0.1067
  139OSM   H13A15129   3.866   0.331   6.119 -2.1611 -0.1824 -1.8550
  139OSM   H13B15130   3.833   0.168   6.193  1.4457 -0.5523  0.3600
  139OSM   H13C15131   3.779   0.206   6.034 -0.0908 -1.4777  0.2691
  139OSM    C1215132   4.001   0.027   6.045 -0.0955  0.9687  0.4060
  139OSM   H12A15133   4.099  -0.011   6.021 -1.5783 -1.2738 -2.5250
  139OSM   H12B15134   3.929  -0.002   5.970  0.0176  1.5282  0.0859
  139OSM    C1115135   3.960  -0.043   6.181 -0.1005  0.6308 -0.1629
  139OSM   H11A15136   4.024   0.007   6.257  2.3765 -3.1970  0.3978
  139OSM   H11B15137   4.001  -0.146   6.177 -1.2751 -0.2413  5.5084
  139OSM      P15138   3.732  -0.165   6.187  0.2882  0.0891 -0.0911
  139OSM    O1315139   3.597  -0.111   6.221  0.0613 -0.6097  0.1545
  139OSM    O1415140   3.744  -0.230   6.056 -0.1963  0.2737 -0.7354
  139OSM    O1115141   3.761  -0.263   6.302 -0.2139  0.0143  0.2630
  139OSM    O1215142   3.825  -0.039   6.211  0.0568  0.0480  0.4353
  139OSM    C1S15143   3.762  -0.222   6.441  0.1970 -0.7312  0.5587
  139OSM    H1S15144   3.821  -0.128   6.450 -0.3359  0.0889 -3.4988
  139OSM    H1T15145   3.824  -0.294   6.498  3.5827  1.1219 -0.6150
  139OSM     NF15146   3.662  -0.211   6.669  0.2131 -0.1537 -0.4035
  139OSM    HNF15147   3.664  -0.279   6.742  1.7739  0.5001  0.1953
  139OSM    C2S15148   3.629  -0.236   6.529  0.2037 -0.5619  0.3092
  139OSM    H2S15149   3.570  -0.148   6.494 -0.6294 -1.6871 -1.1886
  139OSM    C3S15150   3.562  -0.371   6.497  0.6278  0.2646 -0.5255
  139OSM    H3S15151   3.627  -0.448   6.545 -0.4643 -1.1250 -1.2119
  139OSM     O315152   3.535  -0.403   6.361 -0.2454  0.4937 -0.2352
  139OSM    HO315153   3.574  -0.331   6.311  0.9913 -0.0238 -0.0180
  139OSM    C4S15154   3.432  -0.371   6.583  0.8606 -1.1736  0.2828
  139OSM    H4S15155   3.448  -0.418   6.681  2.7481  0.5142  0.8199
  139OSM    C5S15156   3.307  -0.334   6.547 -0.0859  0.5761  0.3276
  139OSM    H5S15157   3.287  -0.298   6.445 -0.5337 -0.0707  0.1823
  139OSM    C6S15158   3.182  -0.349   6.630  0.4224  0.1198  0.2039
  139OSM    H6S15159   3.106  -0.383   6.557 -1.9972  3.6742  0.9243
  139OSM    H6T15160   3.152  -0.246   6.658 -0.5660  0.0983 -0.7398
  139OSM    C7S15161   3.183  -0.456   6.747 -0.0076 -0.5465 -0.0491
  139OSM    H7S15162   3.287  -0.474   6.783 -0.3118 -2.8670 -0.2860
  139OSM    H7T15163   3.135  -0.548   6.709  1.6047 -1.2349 -0.4599
  139OSM    C8S15164   3.113  -0.409   6.877  0.4599 -0.0760  0.7947
  139OSM    H8S15165   3.153  -0.314   6.920  0.2664 -0.7993  2.6207
  139OSM    H8T15166   3.125  -0.491   6.951  0.5584  2.0916  3.2522
  139OSM    C9S15167   2.970  -0.368   6.862 -0.0508 -0.1054  0.5447
  139OSM    H9S15168   2.924  -0.436   6.787 -2.1988 -1.0291  2.6495
  139OSM    H9T15169   2.952  -0.265   6.827 -0.8149 -0.3535  0.2005
  139OSM   C10S15170   2.888  -0.376   6.991 -0.2005 -0.1767 -0.3532
  139OSM   H10S15171   2.863  -0.482   7.014 -1.1628  0.1155 -0.0362
  139OSM   H10T15172   2.787  -0.333   6.975 -0.2258  0.1139  0.5915
  139OSM   C11S15173   2.944  -0.312   7.117  0.0113 -0.4524 -0.7510
  139OSM   H11S15174   3.046  -0.354   7.131 -1.2793 -2.2867  4.4375
  139OSM   H11T15175   2.876  -0.339   7.201 -0.1279  0.6306 -0.5043
  139OSM   C12S15176   2.951  -0.164   7.116  0.1966  0.1765  0.1832
  139OSM   H12S15177   2.854  -0.117   7.090  1.4165  3.2123  0.8928
  139OSM   H12T15178   3.023  -0.136   7.036  1.5144 -1.8417  0.6049
  139OSM   C13S15179   3.003  -0.100   7.251  0.2465 -0.0131 -0.0579
  139OSM   H13S15180   2.995   0.007   7.225 -2.8490  0.5786  2.8960
  139OSM   H13T15181   3.111  -0.125   7.261  0.4472  0.3421 -1.3080
  139OSM   C14S15182   2.913  -0.119   7.382 -0.6464 -0.2821  0.9536
  139OSM   H14S15183   2.812  -0.140   7.342 -0.9016  1.3353  0.7208
  139OSM   H14T15184   2.918  -0.025   7.440 -0.2069  1.5368 -1.9338
  139OSM   C15S15185   2.954  -0.230   7.480 -0.1259  0.2940 -0.1306
  139OSM   H15S15186   3.050  -0.202   7.527 -0.3069  1.9657 -0.7483
  139OSM   H15T15187   2.967  -0.318   7.413 -0.4366  1.0697 -1.2145
  139OSM   C16S15188   2.849  -0.269   7.579 -0.5390 -0.6164  0.0637
  139OSM   H16S15189   2.883  -0.348   7.650  0.0864 -0.3088  0.1073
  139OSM   H16T15190   2.758  -0.319   7.539  0.2996 -2.3252  0.2380
  139OSM   C17S15191   2.800  -0.153   7.663  0.2579 -0.5838 -0.1207
  139OSM   H17S15192   2.746  -0.084   7.595 -0.4555  0.8162  1.8477
  139OSM   H17T15193   2.889  -0.104   7.708 -0.8609  0.9459  0.4479
  139OSM   C18S15194   2.694  -0.191   7.765  0.0008  0.3643  0.3594
  139OSM   H18S15195   2.727  -0.263   7.843  2.5890  1.0120 -0.0971
  139OSM   H18T15196   2.609  -0.241   7.713 -0.0110 -1.6460  2.1946
  139OSM   H18U15197   2.661  -0.100   7.818 -0.5566 -0.3287  1.2225
  139OSM    C1F15198   3.704  -0.092   6.714  0.2789  0.3893  0.2582
  139OSM     OF15199   3.706   0.002   6.634  0.0171 -0.1531 -0.3975
  139OSM    C2F15200   3.738  -0.086   6.862 -0.9444  0.4349 -0.1394
  139OSM    H2F15201   3.837  -0.135   6.875 -1.3333  0.0882  1.6518
  139OSM    H2G15202   3.664  -0.139   6.926  0.2186  1.2411  1.9395
  139OSM    C3F15203   3.767   0.061   6.904  0.1361 -0.3770 -0.6404
  139OSM    H3F15204   3.687   0.132   6.877 -0.0738 -0.5717 -0.5288
  139OSM    H3G15205   3.858   0.101   6.853  0.6645  0.3213  0.8169
  139OSM    C4F15206   3.785   0.083   7.057  0.4691  0.1018  0.7375
  139OSM    H4F15207   3.699   0.051   7.119  0.4437 -4.1777 -1.3493
  139OSM    H4G15208   3.808   0.191   7.071 -0.9671  0.5601 -0.2964
  139OSM    C5F15209   3.907   0.010   7.099  0.0341  0.3309 -0.4224
  139OSM    H5F15210   3.992   0.059   7.048  0.7329  0.6402  1.0148
  139OSM    H5G15211   3.894  -0.099   7.081 -0.6032  0.7035 -2.3094
  139OSM    C6F15212   3.941   0.019   7.252 -0.6327  0.5138  0.2692
  139OSM    H6F15213   3.859  -0.033   7.306 -3.7857  0.2843 -4.3990
  139OSM    H6G15214   3.938   0.125   7.286  1.0692 -0.1436  2.5773
  139OSM    C7F15215   4.076  -0.044   7.277 -1.0490  0.2557  0.1254
  139OSM    H7F15216   4.150   0.002   7.209  0.9641 -0.5670  1.7172
  139OSM    H7G15217   4.060  -0.147   7.240 -0.3265  0.8563 -1.8944
  139OSM    C8F15218   4.104  -0.040   7.426 -0.2907  0.0788  0.4080
  139OSM    H8F15219   4.086   0.066   7.454 -2.1012 -0.1425  0.1552
  139OSM    H8G15220   4.210  -0.068   7.447 -0.6264 -1.2773  0.3660
  139OSM    C9F15221   4.004  -0.130   7.497 -0.0831  0.2288  0.3376
  139OSM    H9F15222   3.966  -0.223   7.451  1.6480  1.0013 -2.8039
  139OSM   C10F15223   3.977  -0.110   7.626  0.1671  0.2910 -0.4492
  139OSM   H10F15224   3.902  -0.176   7.672  0.2455 -0.4202 -1.3382
  139OSM   C11F15225   4.033  -0.001   7.717  0.4542 -0.1017 -0.7506
  139OSM   H11F15226   4.106   0.064   7.663  0.8136  0.3476  0.2607
  139OSM   H11G15227   4.096  -0.055   7.791 -0.9974  1.4198  1.6583
  139OSM   C12F15228   3.939   0.097   7.784  0.7732 -0.1608  0.3024
  139OSM   H12F15229   3.858   0.120   7.711  1.8724  0.7802 -0.6327
  139OSM   H12G15230   3.988   0.189   7.822 -0.4238  0.3197  0.7016
  139OSM   C13F15231   3.859   0.040   7.899 -0.2000  0.4825 -0.5663
  139OSM   H13F15232   3.927   0.042   7.987 -2.1058 -0.5594  0.9561
  139OSM   H13G15233   3.827  -0.058   7.859  2.2699 -0.4950 -0.2079
  139OSM   C14F15234   3.745   0.131   7.938  0.2020 -0.0068 -0.0652
  139OSM   H14F15235   3.677   0.144   7.851  2.9599 -0.1376 -2.3066
  139OSM   H14G15236   3.800   0.224   7.965  1.1758 -0.7137  0.4061
  139OSM   C15F15237   3.665   0.075   8.054  0.3596 -0.2971  0.3482
  139OSM   H15F15238   3.730   0.078   8.144 -1.3171  0.0320  1.5772
  139OSM   H15G15239   3.638  -0.033   8.056  0.9192 -0.4708 -1.1729
  139OSM   C16F15240   3.538   0.154   8.080 -0.3659  1.1726  0.5176
  139OSM   H16F15241   3.496   0.114   8.175  0.8864  0.2721  0.7059
  139OSM   H16G15242   3.463   0.127   8.003  1.2260 -0.9542 -0.3092
  139OSM   C17F15243   3.539   0.301   8.102 -0.3402  0.0221 -0.8498
  139OSM   H17F15244   3.507   0.361   8.013 -0.9199  0.3954 -0.3912
  139OSM   H17G15245   3.640   0.325   8.141 -0.1749  0.2666 -1.4189
  139OSM   C18F15246   3.439   0.348   8.207 -0.5357 -0.6651 -0.0665
  139OSM   H18F15247   3.340   0.333   8.159 -0.3047 -2.9052  0.1308
  139OSM   H18G15248   3.459   0.454   8.234  0.7153 -0.8763 -0.1626
  139OSM   H18H15249   3.438   0.286   8.299 -1.6970  0.5880  0.7906
  140OSM      N15250   3.555   1.828   6.075  0.3069 -0.5224  0.2736
  140OSM    C1515251   3.654   1.925   6.124  0.2223 -0.0192 -0.1148
  140OSM   H15A15252   3.616   2.025   6.113  1.7937  0.6116 -0.0430
  140OSM   H15B15253   3.749   1.922   6.072 -0.2650 -1.5634 -0.9264
  140OSM   H15C15254   3.681   1.896   6.225  0.5898  0.8142  0.0331
  140OSM    C1415255   3.438   1.853   6.160  0.0681 -0.2727 -0.3975
  140OSM   H14A15256   3.394   1.946   6.129 -0.2747 -0.4802 -0.5327
  140OSM   H14B15257   3.474   1.854   6.262 -2.7278 -0.4246  0.6441
  140OSM   H14C15258   3.369   1.770   6.158 -0.7003  0.3624 -0.4078
  140OSM    C1315259   3.516   1.846   5.933 -0.3537  0.0487 -0.2277
  140OSM   H13A15260   3.420   1.802   5.912 -0.5046 -0.4838  1.5614
  140OSM   H13B15261   3.581   1.821   5.851 -1.8245  0.8473 -1.6765
  140OSM   H13C15262   3.509   1.954   5.928  0.9309  0.0998 -1.2177
  140OSM    C1215263   3.600   1.684   6.100 -0.3896 -0.1024 -0.0874
  140OSM   H12A15264   3.672   1.657   6.023  0.6195 -0.4738  0.9727
  140OSM   H12B15265   3.513   1.620   6.099 -0.0363 -0.5944 -0.8746
  140OSM    C1115266   3.662   1.659   6.234 -0.3144 -0.0044 -0.0073
  140OSM   H11A15267   3.670   1.548   6.238  1.3764  0.1185  0.2226
  140OSM   H11B15268   3.603   1.699   6.319 -0.6700 -0.9725  0.2113
  140OSM      P15269   3.925   1.636   6.223 -0.0022 -0.2423  0.5525
  140OSM    O1315270   3.924   1.573   6.088 -0.3889  0.5440 -0.1166
  140OSM    O1415271   4.029   1.733   6.257 -0.1691 -0.1587  0.3552
  140OSM    O1115272   3.904   1.528   6.336  0.2744 -0.3209  0.0002
  140OSM    O1215273   3.792   1.720   6.237 -0.5712 -0.4540 -0.0662
  140OSM    C1S15274   3.989   1.513   6.451  0.0164 -0.0315 -0.6106
  140OSM    H1S15275   4.090   1.558   6.434  0.1034 -0.8838 -2.5305
  140OSM    H1T15276   4.008   1.406   6.473 -2.6297 -0.3080  0.4082
  140OSM     NF15277   4.046   1.588   6.681 -0.2368 -0.4664 -0.8869
  140OSM    HNF15278   4.066   1.519   6.749 -0.4146 -0.1209 -0.4796
  140OSM    C2S15279   3.934   1.580   6.586 -0.3984  1.5041  0.0886
  140OSM    H2S15280   3.904   1.684   6.560  1.1248  1.4616 -1.9470
  140OSM    C3S15281   3.818   1.485   6.637 -0.4436  0.6607 -0.1247
  140OSM    H3S15282   3.869   1.395   6.677  1.2202  1.5320 -0.2576
  140OSM     O315283   3.738   1.436   6.527 -0.3558  0.6058 -0.1105
  140OSM    HO315284   3.773   1.472   6.445  2.1275 -1.0048  0.1739
  140OSM    C4S15285   3.742   1.550   6.741  0.3926  0.8868 -0.2131
  140OSM    H4S15286   3.694   1.642   6.707 -1.2581 -0.7080 -2.3742
  140OSM    C5S15287   3.736   1.510   6.870  0.3378 -0.2678 -0.1173
  140OSM    H5S15288   3.801   1.427   6.900 -1.7882 -1.1019  2.3973
  140OSM    C6S15289   3.660   1.580   6.975  0.1576 -0.1061 -0.1702
  140OSM    H6S15290   3.564   1.526   6.992 -0.2706  0.7165  0.0199
  140OSM    H6T15291   3.614   1.676   6.943 -1.7831 -0.9215  0.0708
  140OSM    C7S15292   3.742   1.573   7.104  0.1602  0.5728 -0.0036
  140OSM    H7S15293   3.804   1.482   7.119 -0.5606  0.0773 -0.0157
  140OSM    H7T15294   3.671   1.590   7.188 -1.5892 -2.4567 -0.7751
  140OSM    C8S15295   3.841   1.686   7.103 -0.4305  0.2194  0.2252
  140OSM    H8S15296   3.778   1.777   7.113 -0.6294 -0.1792  3.0364
  140OSM    H8T15297   3.896   1.684   7.006  0.5454 -2.9906  0.7826
  140OSM    C9S15298   3.936   1.682   7.226 -0.9087  0.3964  0.2713
  140OSM    H9S15299   4.023   1.749   7.211  0.2696 -1.2840 -0.5269
  140OSM    H9T15300   3.985   1.583   7.223 -1.2382  0.2591 -0.9913
  140OSM   C10S15301   3.870   1.705   7.363 -0.9262  0.3626 -0.3028
  140OSM   H10S15302   3.798   1.621   7.371  1.2324 -1.3860  1.4479
  140OSM   H10T15303   3.803   1.792   7.375 -0.2024  0.9322 -0.4011
  140OSM   C11S15304   3.960   1.693   7.486  0.6048 -0.2149  0.4365
  140OSM   H11S15305   4.034   1.774   7.501 -1.0446  1.4028 -0.1034
  140OSM   H11T15306   4.029   1.607   7.469  0.0537  0.1168 -4.0335
  140OSM   C12S15307   3.890   1.681   7.628 -0.4023 -0.3626  0.0622
  140OSM   H12S15308   3.898   1.575   7.662  1.7650 -0.4983 -0.8058
  140OSM   H12T15309   3.782   1.699   7.612 -0.3789 -1.5756 -1.5742
  140OSM   C13S15310   3.932   1.777   7.738 -0.3585  0.0019 -0.2028
  140OSM   H13S15311   3.932   1.881   7.699 -2.0249 -0.2879 -1.0021
  140OSM   H13T15312   4.036   1.767   7.776 -0.5840 -1.0132  0.1525
  140OSM   C14S15313   3.827   1.768   7.836  0.1839  0.0816  0.4917
  140OSM   H14S15314   3.814   1.666   7.878  0.6105  0.7315  2.2614
  140OSM   H14T15315   3.736   1.803   7.784  0.5263 -1.5345 -1.2443
  140OSM   C15S15316   3.862   1.862   7.950 -0.7511 -0.2465  0.8395
  140OSM   H15S15317   3.844   1.964   7.911 -3.4983 -0.7326  0.7697
  140OSM   H15T15318   3.967   1.835   7.976 -1.0501 -2.3705 -0.0684
  140OSM   C16S15319   3.763   1.841   8.069  0.1429 -0.1383  0.5119
  140OSM   H16S15320   3.759   1.732   8.086  0.4900 -0.0104  1.4251
  140OSM   H16T15321   3.661   1.874   8.038  1.0209  0.5847 -1.7171
  140OSM   C17S15322   3.807   1.925   8.189 -0.0175 -0.6133  0.0125
  140OSM   H17S15323   3.798   2.029   8.150  0.2863 -0.0969  1.3176
  140OSM   H17T15324   3.906   1.893   8.226 -1.9482 -1.7320  4.5265
  140OSM   C18S15325   3.710   1.915   8.305 -0.3476  0.0626 -0.2827
  140OSM   H18S15326   3.603   1.924   8.274 -0.1983  1.1318 -0.5095
  140OSM   H18T15327   3.730   1.990   8.385  0.4233  0.1683 -0.5766
  140OSM   H18U15328   3.716   1.812   8.346  1.2280  0.3085  0.1261
  140OSM    C1F15329   4.156   1.662   6.657 -0.0142  0.7429  0.1439
  140OSM     OF15330   4.142   1.751   6.577  0.1148  0.2811 -0.6850
  140OSM    C2F15331   4.285   1.635   6.728 -0.3236 -0.6945  0.6051
  140OSM    H2F15332   4.367   1.633   6.653  0.2532 -0.2501  1.2249
  140OSM    H2G15333   4.279   1.535   6.778 -1.3188  0.6246  3.2205
  140OSM    C3F15334   4.327   1.742   6.830  0.4494  0.3956  0.9024
  140OSM    H3F15335   4.348   1.845   6.794  0.5602  0.3999  0.9780
  140OSM    H3G15336   4.423   1.713   6.879  0.3744  1.8168  1.9268
  140OSM    C4F15337   4.222   1.760   6.942  0.0405 -0.2450  0.1498
  140OSM    H4F15338   4.182   1.663   6.978  0.2174 -0.9838 -1.5620
  140OSM    H4G15339   4.139   1.816   6.894  0.9987  1.5854  0.6027
  140OSM    C5F15340   4.270   1.862   7.052  0.0463 -0.1260 -0.7795
  140OSM    H5F15341   4.187   1.894   7.119  0.4407  1.4631 -1.0234
  140OSM    H5G15342   4.304   1.957   7.006 -0.8631  0.4306 -0.3256
  140OSM    C6F15343   4.372   1.812   7.153  0.3795 -0.0938 -0.6046
  140OSM    H6F15344   4.448   1.756   7.094  0.4682  0.1095 -0.6813
  140OSM    H6G15345   4.324   1.744   7.227  1.5705 -1.4504 -1.0544
  140OSM    C7F15346   4.450   1.929   7.222  0.4319  0.5222 -0.7609
  140OSM    H7F15347   4.515   1.969   7.142  1.5507  0.8361  0.2963
  140OSM    H7G15348   4.517   1.880   7.296 -1.8284 -1.5731 -0.0106
  140OSM    C8F15349   4.375   2.041   7.294  0.7501  0.4540  0.6957
  140OSM    H8F15350   4.305   2.083   7.219  2.1068  0.1255 -0.7749
  140OSM    H8G15351   4.452   2.119   7.312  1.1088  0.9099 -2.5961
  140OSM    C9F15352   4.306   1.977   7.413 -0.4067  0.3245  0.4738
  140OSM    H9F15353   4.215   1.919   7.391 -0.7660  1.7556 -1.9192
  140OSM   C10F15354   4.334   1.986   7.542  0.1400 -1.0443 -0.0923
  140OSM   H10F15355   4.265   1.935   7.611  2.3326 -1.9281  1.4947
  140OSM   C11F15356   4.446   2.064   7.610  0.7821  0.0631  0.2587
  140OSM   H11F15357   4.465   2.160   7.558  1.2658  2.0478  3.9214
  140OSM   H11G15358   4.536   1.999   7.607 -0.1832 -1.3409  1.1624
  140OSM   C12F15359   4.411   2.109   7.755  1.1367 -0.4482  0.1334
  140OSM   H12F15360   4.319   2.169   7.737  0.0077 -2.8021 -2.1492
  140OSM   H12G15361   4.487   2.177   7.800  1.0508  0.8637 -1.6730
  140OSM   C13F15362   4.393   1.995   7.853 -0.0545  0.1894  0.0575
  140OSM   H13F15363   4.492   1.963   7.892 -0.1008 -0.5581 -0.4203
  140OSM   H13G15364   4.328   1.913   7.814 -2.7257  0.6911  3.2953
  140OSM   C14F15365   4.317   2.039   7.984  0.8871 -0.2024 -0.1928
  140OSM   H14F15366   4.225   2.088   7.945  0.7168 -1.5650 -1.5350
  140OSM   H14G15367   4.379   2.107   8.046  0.5731 -1.2157  1.2769
  140OSM   C15F15368   4.293   1.915   8.079 -0.2346  0.3199  0.5242
  140OSM   H15F15369   4.392   1.881   8.117  0.4322  1.4613 -0.1675
  140OSM   H15G15370   4.255   1.829   8.019  2.5657 -1.5832  1.3498
  140OSM   C16F15371   4.218   1.954   8.209  0.3405 -0.2963  0.0443
  140OSM   H16F15372   4.124   1.998   8.170  0.6773 -0.7436 -1.3059
  140OSM   H16G15373   4.279   2.032   8.259  0.5705 -1.3109  1.3695
  140OSM   C17F15374   4.184   1.831   8.296  0.7152  0.0746 -0.0053
  140OSM   H17F15375   4.101   1.779   8.243 -0.2467  1.4825  0.0866
  140OSM   H17G15376   4.152   1.869   8.395  1.6842  3.6318 -0.9881
  140OSM   C18F15377   4.290   1.728   8.320  0.4563 -0.3570  0.3126
  140OSM   H18F15378   4.295   1.660   8.232  3.1540 -1.0442  0.9545
  140OSM   H18G15379   4.280   1.668   8.413  1.4604  1.0979  1.3765
  140OSM   H18H15380   4.389   1.773   8.340 -0.0831  1.7189 -1.5457
  141OSM      N15381   2.212   3.028   6.006 -0.0072  0.3365 -0.3546
  141OSM    C1515382   2.194   2.876   6.006 -0.3526  0.4945 -0.4804
  141OSM   H15A15383   2.151   2.842   5.913 -0.5736 -1.3179  0.2641
  141OSM   H15B15384   2.125   2.860   6.087  0.1890  1.5401  0.1987
  141OSM   H15C15385   2.284   2.816   6.009 -0.5380  0.2111 -0.5346
  141OSM    C1415386   2.298   3.076   5.895 -0.0599  0.5975 -0.2753
  141OSM   H14A15387   2.250   3.128   5.813  1.9529 -0.0498 -1.9159
  141OSM   H14B15388   2.373   3.008   5.859  1.0733  2.6458 -1.8955
  141OSM   H14C15389   2.365   3.155   5.926  0.6018 -0.4311  0.9888
  141OSM    C1315390   2.078   3.089   6.005  0.4177  0.4168  1.0119
  141OSM   H13A15391   2.079   3.196   5.990 -1.0903  0.1924 -0.8626
  141OSM   H13B15392   2.021   3.082   6.097  0.5356  1.4712  1.1714
  141OSM   H13C15393   2.015   3.056   5.924  1.5133  1.7882 -0.4340
  141OSM    C1215394   2.286   3.060   6.132  0.1858  0.3157  0.1672
  141OSM   H12A15395   2.376   3.001   6.143  0.3602  0.6233  0.3827
  141OSM   H12B15396   2.223   3.019   6.209  0.4498 -1.6236 -0.6232
  141OSM    C1115397   2.306   3.205   6.172 -0.0250 -0.2058  0.8683
  141OSM   H11A15398   2.308   3.219   6.282  1.0447 -2.1990  1.1261
  141OSM   H11B15399   2.221   3.267   6.136 -0.0011 -0.2462  0.7428
  141OSM      P15400   2.566   3.218   6.168  0.4995 -0.0985 -0.4443
  141OSM    O1315401   2.589   3.075   6.165 -0.3446 -0.0662 -0.6109
  141OSM    O1415402   2.674   3.302   6.114  0.1620 -0.1794  0.5429
  141OSM    O1115403   2.566   3.270   6.314 -0.0853 -0.5390 -0.0249
  141OSM    O1215404   2.424   3.251   6.106 -0.2445  1.2359  0.2194
  141OSM    C1S15405   2.675   3.259   6.404 -0.8050 -0.6680 -0.0111
  141OSM    H1S15406   2.769   3.297   6.359 -1.2706 -0.0760 -0.4950
  141OSM    H1T15407   2.694   3.151   6.425 -1.5901 -1.4555 -3.1318
  141OSM     NF15408   2.784   3.355   6.614  0.7263 -0.3519  0.6049
  141OSM    HNF15409   2.784   3.314   6.705  0.1122  1.8908  1.6479
  141OSM    C2S15410   2.663   3.343   6.533 -0.0064 -0.9791  0.5921
  141OSM    H2S15411   2.646   3.450   6.505 -1.6100 -1.6693 -1.1440
  141OSM    C3S15412   2.531   3.304   6.611 -0.7650  0.2878  0.2729
  141OSM    H3S15413   2.548   3.198   6.640  0.4598  0.2952 -0.3657
  141OSM     O315414   2.413   3.301   6.530 -0.7005 -0.9037  0.5033
  141OSM    HO315415   2.449   3.316   6.442 -1.4816 -2.8499 -0.1767
  141OSM    C4S15416   2.504   3.386   6.730 -0.4092  0.2357 -0.2080
  141OSM    H4S15417   2.560   3.341   6.813  2.7469 -0.3459 -2.5567
  141OSM    C5S15418   2.417   3.491   6.750  0.0710  0.6632 -0.6233
  141OSM    H5S15419   2.365   3.540   6.666  1.4484  1.1477 -1.2014
  141OSM    C6S15420   2.397   3.557   6.885  1.2328 -0.0151  0.8069
  141OSM    H6S15421   2.292   3.590   6.899  0.8082 -1.1360  0.3398
  141OSM    H6T15422   2.463   3.646   6.893 -1.1576  1.8337  0.4028
  141OSM    C7S15423   2.432   3.475   7.009  0.1177  0.4011 -0.5667
  141OSM    H7S15424   2.541   3.467   7.027 -0.0484 -0.0310  0.2612
  141OSM    H7T15425   2.376   3.380   7.002 -0.4249  0.7443 -0.9030
  141OSM    C8S15426   2.378   3.542   7.138 -0.2159 -0.7063 -0.1792
  141OSM    H8S15427   2.271   3.570   7.138 -0.5659 -1.9340  1.4613
  141OSM    H8T15428   2.423   3.643   7.147 -0.7434 -0.6196  1.7094
  141OSM    C9S15429   2.419   3.461   7.255 -0.2804  0.3731 -0.4923
  141OSM    H9S15430   2.530   3.456   7.255 -0.2254  1.4542 -1.7860
  141OSM    H9T15431   2.375   3.359   7.252 -0.3980  0.3317  2.0057
  141OSM   C10S15432   2.379   3.522   7.391  0.1090  0.5524  0.5541
  141OSM   H10S15433   2.269   3.536   7.384 -0.2932 -2.3173  0.2279
  141OSM   H10T15434   2.410   3.628   7.399  1.8267 -0.0679  2.5981
  141OSM   C11S15435   2.414   3.435   7.512 -0.2582 -0.0157  0.2392
  141OSM   H11S15436   2.522   3.410   7.512 -0.5434 -1.3848 -1.5925
  141OSM   H11T15437   2.360   3.339   7.497  1.0421 -0.7366  0.1315
  141OSM   C12S15438   2.371   3.499   7.643 -0.5447  0.0642  0.6159
  141OSM   H12S15439   2.265   3.531   7.636  0.0206  1.1773 -4.4006
  141OSM   H12T15440   2.446   3.580   7.657 -0.5518  0.2314 -0.3189
  141OSM   C13S15441   2.376   3.407   7.767 -0.1213  0.5518  0.1167
  141OSM   H13S15442   2.473   3.353   7.763 -0.0076  0.8671 -2.0494
  141OSM   H13T15443   2.286   3.342   7.762  0.7830 -0.6459 -0.9340
  141OSM   C14S15444   2.341   3.483   7.896 -0.0301 -0.4342 -0.5342
  141OSM   H14S15445   2.237   3.523   7.894  1.0379  2.5605  1.2560
  141OSM   H14T15446   2.402   3.573   7.916 -3.3583  1.3233  2.3304
  141OSM   C15S15447   2.353   3.400   8.023 -0.4147 -0.0267 -0.3114
  141OSM   H15S15448   2.447   3.341   8.029 -0.2589  0.3274  0.8588
  141OSM   H15T15449   2.264   3.335   8.027 -0.0990 -0.4130  0.4143
  141OSM   C16S15450   2.363   3.497   8.142 -0.6259 -0.9531  0.4145
  141OSM   H16S15451   2.278   3.568   8.146  0.8705  0.9412 -0.7170
  141OSM   H16T15452   2.455   3.557   8.124 -0.0464 -1.5671  1.2896
  141OSM   C17S15453   2.363   3.416   8.271  0.4827 -0.0154 -0.7906
  141OSM   H17S15454   2.438   3.334   8.268  0.7825  0.0921  2.1517
  141OSM   H17T15455   2.263   3.368   8.266  1.0801 -1.5387  1.3888
  141OSM   C18S15456   2.369   3.509   8.397 -0.1031 -0.2049 -0.0984
  141OSM   H18S15457   2.296   3.592   8.383 -0.7904 -1.4750 -4.9418
  141OSM   H18T15458   2.473   3.545   8.412  0.3754 -1.1755 -1.0440
  141OSM   H18U15459   2.346   3.453   8.489  1.1542 -2.5409 -1.1645
  141OSM    C1F15460   2.895   3.410   6.573 -0.2096 -0.8396  0.4965
  141OSM     OF15461   2.885   3.488   6.476 -0.8623 -0.2886 -0.1644
  141OSM    C2F15462   3.018   3.394   6.665 -0.3573  0.2661 -0.0926
  141OSM    H2F15463   2.999   3.344   6.762 -1.4052  0.9851  0.0763
  141OSM    H2G15464   3.053   3.497   6.687  1.0144 -0.0314 -0.8212
  141OSM    C3F15465   3.136   3.317   6.597 -0.2391  1.1692  1.0523
  141OSM    H3F15466   3.178   3.384   6.519 -1.6685 -0.8096 -1.5114
  141OSM    H3G15467   3.109   3.228   6.536  0.9665  1.6090 -0.1561
  141OSM    C4F15468   3.247   3.269   6.696 -0.0892 -0.7512 -0.7827
  141OSM    H4F15469   3.312   3.198   6.641  0.3093  0.3932 -1.8072
  141OSM    H4G15470   3.216   3.202   6.779  1.1678  0.6859  0.8985
  141OSM    C5F15471   3.329   3.385   6.767 -0.2327  0.1856 -0.1560
  141OSM    H5F15472   3.267   3.472   6.797  0.4319  0.1353  1.3926
  141OSM    H5G15473   3.384   3.441   6.688  0.5476  0.6488  0.6982
  141OSM    C6F15474   3.405   3.345   6.891  0.1317  0.3887  0.0472
  141OSM    H6F15475   3.485   3.274   6.863 -0.8604 -1.6881  2.3334
  141OSM    H6G15476   3.339   3.289   6.960  3.1795 -0.5769  2.2624
  141OSM    C7F15477   3.468   3.463   6.962  0.1488 -0.5552 -0.3750
  141OSM    H7F15478   3.388   3.517   7.016  1.5782 -0.4262  1.6920
  141OSM    H7G15479   3.503   3.528   6.879 -1.1198  0.0316 -0.4554
  141OSM    C8F15480   3.589   3.436   7.045 -0.3447  0.6690 -0.3091
  141OSM    H8F15481   3.614   3.533   7.093  0.1646  0.3223  0.1255
  141OSM    H8G15482   3.675   3.406   6.982 -0.0761  1.3633 -0.2735
  141OSM    C9F15483   3.562   3.320   7.145 -0.9473 -0.9260  0.2198
  141OSM    H9F15484   3.588   3.218   7.114  0.8278 -0.7642  1.1667
  141OSM   C10F15485   3.489   3.337   7.258  0.0048 -0.3247 -0.4189
  141OSM   H10F15486   3.468   3.250   7.323 -0.8893 -0.4205 -0.8215
  141OSM   C11F15487   3.425   3.466   7.304 -0.2809  0.1359 -0.2840
  141OSM   H11F15488   3.320   3.479   7.271 -1.6470  0.4062  3.8514
  141OSM   H11G15489   3.481   3.555   7.269  0.8227 -1.0568 -1.5750
  141OSM   C12F15490   3.443   3.485   7.453  0.3498  0.0298  0.7423
  141OSM   H12F15491   3.550   3.510   7.469  0.6408 -1.2835  0.9440
  141OSM   H12G15492   3.414   3.390   7.503 -1.0263  0.3625  0.5835
  141OSM   C13F15493   3.352   3.598   7.518 -0.2031  0.2733 -0.6020
  141OSM   H13F15494   3.247   3.566   7.500 -0.0421  0.2104 -1.4760
  141OSM   H13G15495   3.360   3.691   7.458 -0.1540  1.3634  1.0775
  141OSM   C14F15496   3.375   3.611   7.673 -0.0314 -0.3149 -0.2596
  141OSM   H14F15497   3.479   3.647   7.690 -0.2609 -0.5878  1.9232
  141OSM   H14G15498   3.359   3.513   7.724  1.2376 -0.4436 -0.0761
  141OSM   C15F15499   3.272   3.704   7.734  0.1346 -0.8084  0.2659
  141OSM   H15F15500   3.170   3.662   7.721  0.9243 -2.2314 -1.3973
  141OSM   H15G15501   3.263   3.809   7.698  1.2582 -0.8871 -0.2604
  141OSM   C16F15502   3.291   3.723   7.884 -0.8265 -0.2971  0.4183
  141OSM   H16F15503   3.361   3.808   7.903 -0.7871  0.0771 -1.2925
  141OSM   H16G15504   3.334   3.628   7.922  1.4507  0.9688  1.1350
  141OSM   C17F15505   3.161   3.754   7.968  0.1675 -0.0004  0.1186
  141OSM   H17F15506   3.072   3.699   7.932 -0.3581 -0.0777  1.4947
  141OSM   H17G15507   3.149   3.863   7.949  1.4730  0.2160  0.4121
  141OSM   C18F15508   3.182   3.727   8.119  0.1944  0.3709 -0.1185
  141OSM   H18F15509   3.259   3.799   8.154  0.7251  1.1939 -2.8375
  141OSM   H18G15510   3.226   3.628   8.145 -0.2653  0.1632 -0.1241
  141OSM   H18H15511   3.086   3.738   8.173 -0.3756 -1.2547 -0.7811
  142OSM      N15512   3.526   4.690   6.568  0.0105 -0.3458 -0.6764
  142OSM    C1515513   3.614   4.809   6.554 -0.1010 -0.1152 -0.1398
  142OSM   H15A15514   3.608   4.884   6.631  0.7295  0.4693 -0.6413
  142OSM   H15B15515   3.598   4.864   6.463 -1.8454  1.0610  0.8484
  142OSM   H15C15516   3.719   4.783   6.552 -0.5263 -2.2206  1.7484
  142OSM    C1415517   3.563   4.601   6.455 -0.7785  0.4147 -0.9342
  142OSM   H14A15518   3.665   4.569   6.467 -0.2294  1.9147 -1.4265
  142OSM   H14B15519   3.550   4.652   6.361  1.0068  0.6551 -1.0720
  142OSM   H14C15520   3.497   4.516   6.449 -0.2896 -0.1942  1.4653
  142OSM    C1315521   3.534   4.623   6.700 -0.1153 -0.1525  0.0286
  142OSM   H13A15522   3.635   4.585   6.709 -0.9225 -2.8775 -1.7112
  142OSM   H13B15523   3.478   4.532   6.717  1.7218 -1.2680  0.2651
  142OSM   H13C15524   3.507   4.686   6.784  1.7021  0.8005 -0.0819
  142OSM    C1215525   3.379   4.740   6.560 -0.4083  0.3479 -0.6525
  142OSM   H12A15526   3.363   4.816   6.636  3.1893  0.2769  0.2872
  142OSM   H12B15527   3.326   4.656   6.602  0.7403  1.1779  2.6281
  142OSM    C1115528   3.316   4.774   6.424 -0.2347 -0.5943 -0.4934
  142OSM   H11A15529   3.208   4.799   6.436  0.0875 -0.1943  1.8514
  142OSM   H11B15530   3.329   4.688   6.355  0.7165  1.4181 -2.8958
  142OSM      P15531   3.365   5.031   6.369 -0.0242  0.2314 -0.4611
  142OSM    O1315532   3.487   5.107   6.348 -0.1544  0.0104  0.3611
  142OSM    O1415533   3.251   5.050   6.279  0.2208  0.4573  0.4307
  142OSM    O1115534   3.325   5.039   6.518 -0.2077 -0.1597  0.0930
  142OSM    O1215535   3.395   4.878   6.361  0.0511 -0.7158 -0.3969
  142OSM    C1S15536   3.400   5.125   6.608 -0.0865 -0.4266  1.1333
  142OSM    H1S15537   3.418   5.222   6.557 -0.5131  0.0820  1.9462
  142OSM    H1T15538   3.500   5.084   6.636  1.0029  1.1562 -0.3438
  142OSM     NF15539   3.411   5.243   6.838 -0.2339  0.6083 -0.3708
  142OSM    HNF15540   3.463   5.205   6.913 -2.0581 -0.3970  0.4155
  142OSM    C2S15541   3.332   5.162   6.744 -0.3523 -0.0439  0.3264
  142OSM    H2S15542   3.236   5.215   6.727  0.3407  0.9689 -0.5702
  142OSM    C3S15543   3.305   5.021   6.807  0.3589 -0.4761 -0.0267
  142OSM    H3S15544   3.392   4.953   6.818  0.6600 -0.0460  0.2540
  142OSM     O315545   3.220   4.945   6.728  0.4363  0.3305  0.4898
  142OSM    HO315546   3.191   5.008   6.662 -1.1729 -0.8950 -0.0086
  142OSM    C4S15547   3.235   5.032   6.943 -0.0368  0.0223  0.4073
  142OSM    H4S15548   3.139   5.085   6.940 -0.9075 -1.5428 -0.3134
  142OSM    C5S15549   3.274   4.979   7.057  0.0435 -0.4385 -0.8531
  142OSM    H5S15550   3.374   4.934   7.063  0.4549  0.3276 -1.7883
  142OSM    C6S15551   3.198   4.990   7.187  0.0332 -0.1859 -0.7517
  142OSM    H6S15552   3.141   4.895   7.202  1.8523 -1.2856 -0.5671
  142OSM    H6T15553   3.126   5.074   7.189  2.3638  1.8383 -0.4110
  142OSM    C7S15554   3.308   5.012   7.289 -0.0784  0.3733  0.2398
  142OSM    H7S15555   3.358   5.110   7.279 -0.7518  0.9681  2.4748
  142OSM    H7T15556   3.384   4.931   7.286 -1.2903 -0.7728 -0.1553
  142OSM    C8S15557   3.250   5.019   7.429  0.0911 -0.4455  0.2731
  142OSM    H8S15558   3.221   4.913   7.450  1.3197 -0.7002  0.7420
  142OSM    H8T15559   3.165   5.091   7.437  0.3998 -0.0778  0.2417
  142OSM    C9S15560   3.358   5.070   7.531 -0.5845 -0.6757 -0.4289
  142OSM    H9S15561   3.382   5.178   7.522 -0.2204 -0.7755 -0.6884
  142OSM    H9T15562   3.450   5.019   7.495 -1.0855 -0.1063 -2.5577
  142OSM   C10S15563   3.331   5.026   7.680 -0.1334 -0.1457 -0.0655
  142OSM   H10S15564   3.338   4.915   7.675 -0.0556 -0.2209  1.2975
  142OSM   H10T15565   3.227   5.055   7.706  0.9846  1.2390  3.0919
  142OSM   C11S15566   3.427   5.092   7.779 -0.1530 -0.5746 -0.6519
  142OSM   H11S15567   3.454   5.196   7.749 -0.2459 -0.8469 -1.7133
  142OSM   H11T15568   3.522   5.035   7.784  0.1160 -0.1637 -1.0131
  142OSM   C12S15569   3.367   5.096   7.926  0.1932 -0.0591  0.1809
  142OSM   H12S15570   3.323   4.997   7.948 -1.2904  0.5383 -0.0097
  142OSM   H12T15571   3.276   5.160   7.938  0.0963  0.3261 -2.2291
  142OSM   C13S15572   3.474   5.115   8.028  0.0441  0.5784 -0.3995
  142OSM   H13S15573   3.510   5.218   8.004 -0.0470  0.9182  0.8906
  142OSM   H13T15574   3.561   5.049   8.008  2.3928  3.9609 -1.8336
  142OSM   C14S15575   3.430   5.110   8.171 -0.4363 -0.5588  0.7379
  142OSM   H14S15576   3.375   5.018   8.200 -2.9106  0.9885  1.0663
  142OSM   H14T15577   3.374   5.202   8.196  0.3758  0.7100 -1.9373
  142OSM   C15S15578   3.559   5.114   8.260  0.0296 -0.0557 -0.8157
  142OSM   H15S15579   3.523   5.144   8.361 -0.5113 -1.5844 -0.5434
  142OSM   H15T15580   3.626   5.197   8.227  1.2855 -1.3102 -1.4718
  142OSM   C16S15581   3.635   4.990   8.269 -0.0680 -0.6486 -0.4298
  142OSM   H16S15582   3.676   4.952   8.173  0.9058 -0.7615  0.0262
  142OSM   H16T15583   3.562   4.913   8.301 -0.1936  0.5937  2.4197
  142OSM   C17S15584   3.753   4.986   8.369  0.1478  0.1242 -0.3307
  142OSM   H17S15585   3.727   5.029   8.468  1.1200  1.5953 -0.6994
  142OSM   H17T15586   3.844   5.036   8.329 -0.1041  0.8210 -0.0514
  142OSM   C18S15587   3.801   4.847   8.397 -0.2599 -0.2509 -0.2703
  142OSM   H18S15588   3.728   4.780   8.448 -0.3433  1.3906  1.8443
  142OSM   H18T15589   3.896   4.836   8.453  1.5124  0.6496 -3.0047
  142OSM   H18U15590   3.822   4.800   8.299  1.6693  0.6203 -0.2865
  142OSM    C1F15591   3.426   5.373   6.819  0.7975  0.9254  0.0155
  142OSM     OF15592   3.389   5.423   6.710 -0.0122 -0.4277  0.0465
  142OSM    C2F15593   3.466   5.455   6.939  0.1229  0.7038  0.3521
  142OSM    H2F15594   3.482   5.390   7.027 -0.1023 -0.5275 -0.4906
  142OSM    H2G15595   3.372   5.510   6.958 -0.2127 -0.1344  1.1538
  142OSM    C3F15596   3.580   5.554   6.903 -0.0125  0.0575  0.6880
  142OSM    H3F15597   3.536   5.645   6.858  1.0990  0.1709 -0.1914
  142OSM    H3G15598   3.651   5.497   6.839 -0.8202 -0.4141  0.2057
  142OSM    C4F15599   3.638   5.604   7.033 -0.2061 -0.1686  0.2503
  142OSM    H4F15600   3.701   5.518   7.066  0.2725 -1.0320 -2.8087
  142OSM    H4G15601   3.553   5.627   7.100  1.7078  0.0093  2.7106
  142OSM    C5F15602   3.728   5.728   7.027  0.2747  0.6628 -0.2068
  142OSM    H5F15603   3.680   5.812   6.973  0.5039  0.4235 -0.7787
  142OSM    H5G15604   3.816   5.710   6.962 -0.7428  0.0590 -1.4146
  142OSM    C6F15605   3.774   5.772   7.171 -0.3704 -0.1606 -0.1132
  142OSM    H6F15606   3.831   5.685   7.208  1.3655  1.1696  0.3939
  142OSM    H6G15607   3.676   5.784   7.222  1.2801 -1.9991  3.7012
  142OSM    C7F15608   3.861   5.894   7.168 -0.1445 -0.0922  0.8811
  142OSM    H7F15609   3.823   5.970   7.097 -0.8832  0.1839  1.5568
  142OSM    H7G15610   3.967   5.879   7.141  0.3606  2.3089  1.4132
  142OSM    C8F15611   3.866   5.952   7.318  0.5890 -0.6734  0.5822
  142OSM    H8F15612   3.762   5.944   7.355  0.3225 -0.0477 -0.0152
  142OSM    H8G15613   3.900   6.058   7.318 -1.2370 -0.0440 -1.3263
  142OSM    C9F15614   3.963   5.875   7.412  0.4482  0.1310 -0.3615
  142OSM    H9F15615   4.052   5.834   7.364  0.6422 -1.0928  1.0124
  142OSM   C10F15616   3.936   5.849   7.543  0.3321 -0.0305  0.3617
  142OSM   H10F15617   4.007   5.781   7.592  0.6231 -1.5185 -2.0418
  142OSM   C11F15618   3.819   5.894   7.630  0.6163 -0.5152 -0.6192
  142OSM   H11F15619   3.727   5.835   7.608 -1.1526  2.2477 -0.8146
  142OSM   H11G15620   3.793   6.000   7.610 -0.4654 -0.9646 -1.6661
  142OSM   C12F15621   3.844   5.864   7.772 -0.0119  0.1534  0.6031
  142OSM   H12F15622   3.933   5.923   7.802 -1.4669  1.9375  1.5002
  142OSM   H12G15623   3.868   5.756   7.784  0.7044  0.3305  0.8168
  142OSM   C13F15624   3.724   5.908   7.864 -0.2862  0.2834  0.4878
  142OSM   H13F15625   3.632   5.846   7.858  0.1128 -0.2689  0.0933
  142OSM   H13G15626   3.691   6.011   7.835 -0.8164  0.6484  2.3377
  142OSM   C14F15627   3.748   5.923   8.018 -0.3545  0.2922  0.4093
  142OSM   H14F15628   3.763   5.823   8.065  3.2950  0.7534  0.3481
  142OSM   H14G15629   3.649   5.960   8.052 -1.1421 -0.7959 -0.6741
  142OSM   C15F15630   3.850   6.020   8.057  0.1270 -0.0414 -0.8155
  142OSM   H15F15631   3.833   6.107   7.991 -1.0820  0.5830  0.2876
  142OSM   H15G15632   3.954   5.996   8.027  0.6164  0.7615  0.2099
  142OSM   C16F15633   3.834   6.051   8.204 -0.2497 -0.9632  1.1580
  142OSM   H16F15634   3.729   6.059   8.238 -0.7567 -1.1788 -0.3132
  142OSM   H16G15635   3.881   6.151   8.217  1.0904 -1.4471  0.1625
  142OSM   C17F15636   3.911   5.946   8.276  0.1845  0.8584  0.4862
  142OSM   H17F15637   4.019   5.941   8.250 -0.2812  2.5516 -1.9825
  142OSM   H17G15638   3.863   5.848   8.256 -1.1236  1.0368  2.6051
  142OSM   C18F15639   3.899   5.971   8.428  0.0632 -0.3512  0.6564
  142OSM   H18F15640   3.963   5.900   8.485  1.1656  1.5683  1.8622
  142OSM   H18G15641   3.797   5.942   8.463  0.4851 -1.2067  1.1946
  142OSM   H18H15642   3.913   6.075   8.463 -1.3996 -0.6330  2.1785
  143OSM      N15643   4.859   0.658   6.365  0.2231 -0.4135 -0.1102
  143OSM    C1515644   4.874   0.513   6.333 -0.5049  0.5434  0.3573
  143OSM   H15A15645   4.774   0.476   6.316 -0.6545  1.6355 -1.2287
  143OSM   H15B15646   4.923   0.468   6.417 -0.4717 -3.5720 -1.7678
  143OSM   H15C15647   4.933   0.513   6.242 -1.1449 -1.6750 -0.0739
  143OSM    C1415648   4.812   0.722   6.236  0.2459 -1.1374  0.4413
  143OSM   H14A15649   4.713   0.685   6.213  0.1243  0.5842 -1.9903
  143OSM   H14B15650   4.882   0.713   6.155  0.3757  0.0074  0.4149
  143OSM   H14C15651   4.788   0.827   6.250  0.4352 -1.1528  0.9033
  143OSM    C1315652   4.755   0.694   6.475 -0.5114 -0.3411  0.4520
  143OSM   H13A15653   4.756   0.798   6.503  2.2367 -0.1070 -0.3270
  143OSM   H13B15654   4.765   0.642   6.569  0.9588  1.0082  1.0813
  143OSM   H13C15655   4.665   0.662   6.425  0.1577 -0.2187 -0.8854
  143OSM    C1215656   4.994   0.713   6.402 -1.2816  0.2104 -0.1786
  143OSM   H12A15657   5.016   0.666   6.497  1.9247 -0.3026 -1.1118
  143OSM   H12B15658   4.975   0.818   6.420  1.9215  1.1827 -2.0566
  143OSM    C1115659   5.102   0.688   6.294 -0.2803  0.4192 -0.2775
  143OSM   H11A15660   5.196   0.722   6.341 -0.2825  0.3793 -0.2443
  143OSM   H11B15661   5.070   0.746   6.204 -1.0645  1.4634  0.6644
  143OSM      P15662   5.243   0.465   6.265  0.3530  0.1174 -0.2480
  143OSM    O1315663   5.213   0.337   6.206 -1.0394  0.9354  0.6704
  143OSM    O1415664   5.362   0.532   6.208  0.4867 -0.4166  0.0667
  143OSM    O1115665   5.254   0.465   6.419 -0.0591 -0.0408  0.5090
  143OSM    O1215666   5.114   0.556   6.245 -0.2120  0.0770 -0.2747
  143OSM    C1S15667   5.372   0.445   6.494 -0.2879 -0.0105 -0.3993
  143OSM    H1S15668   5.461   0.493   6.448  1.0315 -0.4672  1.6331
  143OSM    H1T15669   5.400   0.339   6.515  0.3649  0.1963 -0.2137
  143OSM     NF15670   5.494   0.493   6.705 -0.3647  0.2458  0.1554
  143OSM    HNF15671   5.496   0.411   6.762  0.1016 -0.5664 -1.0132
  143OSM    C2S15672   5.366   0.514   6.637 -0.1693  0.4533 -0.2390
  143OSM    H2S15673   5.343   0.621   6.617  0.4010  0.8028  0.9654
  143OSM    C3S15674   5.249   0.462   6.715  0.0737  0.2210  0.2867
  143OSM    H3S15675   5.257   0.352   6.733 -1.5756  0.1356  0.5740
  143OSM     O315676   5.132   0.481   6.643 -0.1308  0.1579  0.3194
  143OSM    HO315677   5.149   0.480   6.548 -2.2973 -2.2849 -0.1006
  143OSM    C4S15678   5.247   0.532   6.853  0.6782  0.7373  0.1913
  143OSM    H4S15679   5.192   0.627   6.849  0.7161  0.7151 -1.1573
  143OSM    C5S15680   5.298   0.481   6.965  0.5602 -0.1006 -0.0227
  143OSM    H5S15681   5.343   0.381   6.968  0.1103 -0.2579  2.0313
  143OSM    C6S15682   5.298   0.544   7.095 -0.4984  0.7416  0.3535
  143OSM    H6S15683   5.307   0.654   7.086 -1.1138  0.8276  0.7937
  143OSM    H6T15684   5.391   0.516   7.149 -0.7204 -0.2183  0.2479
  143OSM    C7S15685   5.176   0.501   7.180 -0.5018  0.4996  0.4627
  143OSM    H7S15686   5.189   0.394   7.207 -0.1709  0.6545  0.9242
  143OSM    H7T15687   5.079   0.516   7.129 -0.7615  1.0898  1.1204
  143OSM    C8S15688   5.168   0.573   7.311 -0.0611  0.1691  0.2722
  143OSM    H8S15689   5.118   0.670   7.290  1.1591  0.8922  0.6508
  143OSM    H8T15690   5.270   0.595   7.352  0.5156  1.0877 -1.5921
  143OSM    C9S15691   5.086   0.499   7.412  0.2616 -0.5540  0.9081
  143OSM    H9S15692   5.111   0.540   7.513  0.5218 -1.3217  1.1617
  143OSM    H9T15693   5.107   0.391   7.429  0.3627 -0.3589  2.0817
  143OSM   C10S15694   4.937   0.525   7.380  0.2775 -0.4434  0.7845
  143OSM   H10S15695   4.914   0.496   7.276  0.3011 -2.2653  1.2726
  143OSM   H10T15696   4.903   0.631   7.374  0.3003 -0.5107 -0.5096
  143OSM   C11S15697   4.842   0.449   7.472  0.3763  0.8306  0.1076
  143OSM   H11S15698   4.857   0.342   7.447 -2.7264 -0.0196  1.6834
  143OSM   H11T15699   4.740   0.483   7.443 -0.4091 -1.9288 -0.4964
  143OSM   C12S15700   4.868   0.470   7.623  0.1776  0.3489 -0.2116
  143OSM   H12S15701   4.900   0.574   7.644 -2.0743  0.6855  1.6804
  143OSM   H12T15702   4.943   0.400   7.666  1.2726 -0.1732 -2.8548
  143OSM   C13S15703   4.738   0.454   7.712  0.5517  0.1486  0.3551
  143OSM   H13S15704   4.664   0.375   7.687  2.3896 -0.7179 -2.5690
  143OSM   H13T15705   4.683   0.551   7.714 -2.6627 -1.5612 -1.5300
  143OSM   C14S15706   4.785   0.406   7.846  1.1517 -0.4351 -0.5126
  143OSM   H14S15707   4.840   0.491   7.890 -0.2696 -0.7015  1.8605
  143OSM   H14T15708   4.848   0.317   7.825  3.3854  0.9352  0.2413
  143OSM   C15S15709   4.673   0.376   7.950  0.4005 -0.1344 -0.3230
  143OSM   H15S15710   4.617   0.291   7.906 -0.7009 -0.5133  1.7562
  143OSM   H15T15711   4.600   0.457   7.971  1.7667  1.1957 -0.6034
  143OSM   C16S15712   4.735   0.329   8.076  0.1825 -0.5258 -0.2037
  143OSM   H16S15713   4.657   0.296   8.148  2.5258 -0.7195  2.3271
  143OSM   H16T15714   4.791   0.415   8.119  0.0820 -0.1344 -0.8436
  143OSM   C17S15715   4.822   0.201   8.060  0.6231 -0.0918  0.2618
  143OSM   H17S15716   4.913   0.209   7.997  0.0240  0.5811 -0.5371
  143OSM   H17T15717   4.752   0.136   8.003  1.3093 -1.0881  0.5389
  143OSM   C18S15718   4.860   0.138   8.188  0.4205 -0.3590 -0.5297
  143OSM   H18S15719   4.937   0.200   8.238  0.1912  0.0461 -0.6776
  143OSM   H18T15720   4.897   0.036   8.167 -1.6064 -1.1388 -0.4573
  143OSM   H18U15721   4.777   0.120   8.260  0.3031  2.2279  0.0250
  143OSM    C1F15722   5.598   0.573   6.678  0.2523 -1.0707  0.0979
  143OSM     OF15723   5.582   0.685   6.626  0.6185 -0.1051  0.5116
  143OSM    C2F15724   5.736   0.524   6.707  0.0214 -0.6948 -0.1103
  143OSM    H2F15725   5.799   0.539   6.617  0.8704  0.3310  0.6410
  143OSM    H2G15726   5.715   0.416   6.715 -0.2919 -0.5911  0.4885
  143OSM    C3F15727   5.798   0.590   6.825  0.1677 -0.7165  0.5450
  143OSM    H3F15728   5.823   0.697   6.810  0.8226 -0.9398  0.0657
  143OSM    H3G15729   5.897   0.543   6.842  1.4107  1.1929 -1.2494
  143OSM    C4F15730   5.715   0.565   6.956 -0.5207 -0.4061 -0.4003
  143OSM    H4F15731   5.687   0.459   6.971 -1.4302 -0.8086 -4.2808
  143OSM    H4G15732   5.615   0.613   6.956  0.3354  1.4202  0.1311
  143OSM    C5F15733   5.795   0.600   7.084  0.5460 -0.4966 -0.0783
  143OSM    H5F15734   5.832   0.701   7.059 -0.3336  0.1179  1.0009
  143OSM    H5G15735   5.878   0.527   7.087  1.0957  0.1647  2.1001
  143OSM    C6F15736   5.708   0.590   7.211  0.5596  0.5901  0.0219
  143OSM    H6F15737   5.612   0.646   7.203 -0.4859 -1.2397 -0.4848
  143OSM    H6G15738   5.764   0.644   7.290 -0.4825  2.2229 -0.3414
  143OSM    C7F15739   5.676   0.448   7.258 -0.5972  0.1105  0.7760
  143OSM    H7F15740   5.763   0.381   7.270 -1.7539 -1.0388  3.1649
  143OSM    H7G15741   5.618   0.393   7.181  0.2457 -0.5727  0.6345
  143OSM    C8F15742   5.589   0.464   7.382 -0.2144  0.4465  0.3084
  143OSM    H8F15743   5.486   0.493   7.351  0.6586  2.0355 -1.1574
  143OSM    H8G15744   5.626   0.552   7.439  0.4546  1.1629 -1.2025
  143OSM    C9F15745   5.586   0.333   7.460  0.6229 -0.3894 -0.4546
  143OSM    H9F15746   5.538   0.249   7.408 -2.5209  1.0079  0.0538
  143OSM   C10F15747   5.627   0.324   7.587  0.3987 -0.6827 -0.1778
  143OSM   H10F15748   5.629   0.226   7.637 -0.1614 -0.9157 -0.6043
  143OSM   C11F15749   5.676   0.436   7.679 -0.1705  0.4507  0.5264
  143OSM   H11F15750   5.719   0.516   7.615  1.3236 -0.3689  0.4975
  143OSM   H11G15751   5.766   0.394   7.728 -0.1646  0.5539  0.6057
  143OSM   C12F15752   5.581   0.495   7.781 -0.6414 -0.3305 -0.2637
  143OSM   H12F15753   5.499   0.551   7.731  0.3321 -0.3876 -1.9686
  143OSM   H12G15754   5.630   0.571   7.845 -0.3714 -0.6465 -0.0950
  143OSM   C13F15755   5.543   0.390   7.879  0.1915 -0.3834  0.2313
  143OSM   H13F15756   5.634   0.329   7.899  1.5623  1.3385 -0.5106
  143OSM   H13G15757   5.467   0.326   7.829 -1.8837 -0.0614  2.8717
  143OSM   C14F15758   5.477   0.448   8.008  0.6744 -0.2531  0.8867
  143OSM   H14F15759   5.425   0.546   7.996  2.2847  0.8048  2.1645
  143OSM   H14G15760   5.562   0.466   8.078  1.9166 -1.3513 -0.2949
  143OSM   C15F15761   5.365   0.354   8.064 -0.1304 -0.1421 -0.4301
  143OSM   H15F15762   5.413   0.260   8.096 -0.1296 -0.4149 -1.2246
  143OSM   H15G15763   5.281   0.341   7.993 -0.0427  1.4171 -0.8432
  143OSM   C16F15764   5.305   0.407   8.194  0.1140  0.4756  0.0330
  143OSM   H16F15765   5.241   0.497   8.178  1.0964  1.2268  0.2363
  143OSM   H16G15766   5.383   0.468   8.244 -0.4835  0.7370  0.6716
  143OSM   C17F15767   5.245   0.306   8.292  0.0419  0.1623 -0.1877
  143OSM   H17F15768   5.327   0.243   8.332  1.8918  1.6060 -1.5892
  143OSM   H17G15769   5.165   0.249   8.242  0.6052  0.8642 -1.9153
  143OSM   C18F15770   5.175   0.378   8.410 -0.8544 -0.2362 -0.7359
  143OSM   H18F15771   5.164   0.315   8.500  0.9939  0.6769  0.1550
  143OSM   H18G15772   5.072   0.414   8.387 -0.8464  2.0402  2.5217
  143OSM   H18H15773   5.233   0.467   8.440 -0.9690 -1.4763  3.4213
  144OSM      N15774   3.764   1.182   6.156 -0.5520 -0.9909  0.1532
  144OSM    C1515775   3.678   1.185   6.273  0.1282  0.4541  0.2035
  144OSM   H15A15776   3.583   1.135   6.255  1.0785 -0.6422 -2.0172
  144OSM   H15B15777   3.644   1.280   6.310  0.0312  1.1308 -1.5790
  144OSM   H15C15778   3.731   1.132   6.350 -1.4772  0.5547  1.4126
  144OSM    C1415779   3.697   1.247   6.041 -0.8049 -0.7263 -0.0764
  144OSM   H14A15780   3.599   1.208   6.018 -1.1818 -0.2748  0.7324
  144OSM   H14B15781   3.763   1.247   5.955 -0.5080 -1.6066  0.1455
  144OSM   H14C15782   3.679   1.350   6.066 -0.9187 -0.0649 -2.7431
  144OSM    C1315783   3.896   1.256   6.178  0.2533  0.0553 -0.0861
  144OSM   H13A15784   3.878   1.358   6.209  1.8752  0.4338 -0.3554
  144OSM   H13B15785   3.967   1.258   6.097  0.4617 -0.7923  0.0682
  144OSM   H13C15786   3.953   1.218   6.261  0.6757 -1.2457 -0.9594
  144OSM    C1215787   3.797   1.037   6.116  0.9086 -0.2601  0.7835
  144OSM   H12A15788   3.859   1.043   6.028 -1.5356  1.6912 -0.8490
  144OSM   H12B15789   3.704   0.987   6.092  0.4300 -0.3145  2.6647
  144OSM    C1115790   3.873   0.950   6.218  0.2002  0.3267  0.3189
  144OSM   H11A15791   3.968   1.001   6.247  1.1521  0.2205 -2.4584
  144OSM   H11B15792   3.908   0.863   6.158 -0.7759 -0.1260  0.3909
  144OSM      P15793   3.714   0.772   6.312 -0.3152  0.0030  0.5253
  144OSM    O1315794   3.609   0.770   6.415  0.0213 -0.6617  0.4850
  144OSM    O1415795   3.683   0.737   6.175  0.4843  0.2524 -0.5225
  144OSM    O1115796   3.829   0.671   6.353 -0.2568 -0.0806  0.3455
  144OSM    O1215797   3.786   0.912   6.322  0.0571 -0.4398  0.3766
  144OSM    C1S15798   3.857   0.658   6.502 -0.5647 -0.5347  0.8406
  144OSM    H1S15799   3.778   0.689   6.574  0.1990  1.1785  0.9499
  144OSM    H1T15800   3.945   0.715   6.536  0.1715 -0.6347 -0.8565
  144OSM     NF15801   3.877   0.487   6.680  0.3289  0.0515  0.4757
  144OSM    HNF15802   3.955   0.452   6.732  0.3172 -0.9261 -0.1593
  144OSM    C2S15803   3.881   0.515   6.537  0.3046  0.5983 -0.6309
  144OSM    H2S15804   3.800   0.450   6.497 -1.0548  0.3487  2.3436
  144OSM    C3S15805   4.010   0.468   6.456 -1.0340  0.1040 -0.0692
  144OSM    H3S15806   4.099   0.535   6.466 -0.6216 -0.6409  1.4114
  144OSM     O315807   3.984   0.456   6.317 -0.3670  0.3748 -0.6287
  144OSM    HO315808   3.910   0.515   6.303  0.6380  1.8585  0.2086
  144OSM    C4S15809   4.060   0.334   6.511  1.2276  0.2758 -0.8129
  144OSM    H4S15810   4.135   0.349   6.589 -0.8279  0.0318  1.2671
  144OSM    C5S15811   4.007   0.203   6.496 -0.4489  0.1818 -0.7777
  144OSM    H5S15812   3.927   0.188   6.422 -1.1928 -0.7463  0.2067
  144OSM    C6S15813   4.060   0.084   6.563 -1.2212 -0.5275 -0.5182
  144OSM    H6S15814   4.091   0.012   6.485  1.0674 -0.8060  0.6170
  144OSM    H6T15815   3.986   0.022   6.618 -0.4292 -0.2843  0.8630
  144OSM    C7S15816   4.177   0.106   6.658  0.6753  0.2008  0.3850
  144OSM    H7S15817   4.154   0.173   6.743 -1.4083 -0.2181  0.1960
  144OSM    H7T15818   4.266   0.139   6.600 -0.3807  0.0461 -1.3631
  144OSM    C8S15819   4.223  -0.021   6.736 -0.4247  0.6924 -0.0813
  144OSM    H8S15820   4.249  -0.096   6.659 -2.0749  0.8325 -0.8017
  144OSM    H8T15821   4.150  -0.069   6.803  1.3268  0.1954  1.5093
  144OSM    C9S15822   4.351   0.012   6.820  0.0162 -0.2083 -0.6932
  144OSM    H9S15823   4.313   0.075   6.903  3.2991  0.3785  0.4052
  144OSM    H9T15824   4.411   0.077   6.753  0.1260  1.1816  0.7485
  144OSM   C10S15825   4.420  -0.116   6.865  0.2117 -0.4840 -0.4834
  144OSM   H10S15826   4.485  -0.158   6.785  1.1061  0.0830 -0.0588
  144OSM   H10T15827   4.347  -0.189   6.906  1.3398 -0.2161  2.0889
  144OSM   C11S15828   4.523  -0.080   6.978 -0.3976 -0.0280 -0.6158
  144OSM   H11S15829   4.618  -0.041   6.935  0.1372  1.7903  2.1052
  144OSM   H11T15830   4.563  -0.178   7.011 -2.5113 -0.9362 -0.6511
  144OSM   C12S15831   4.477  -0.010   7.100  0.2730 -0.2779  0.1325
  144OSM   H12S15832   4.375  -0.047   7.125  0.0521 -1.4510 -2.3038
  144OSM   H12T15833   4.456   0.096   7.075  0.7600 -0.5965 -1.7341
  144OSM   C13S15834   4.558  -0.027   7.227 -0.4697  0.2974  0.2473
  144OSM   H13S15835   4.661   0.008   7.204 -0.1802  0.0217  1.0968
  144OSM   H13T15836   4.570  -0.136   7.249 -1.7006 -0.0091 -0.5339
  144OSM   C14S15837   4.500   0.066   7.342 -0.3274  0.3861 -0.1625
  144OSM   H14S15838   4.399   0.026   7.366 -0.3682  1.0205  0.7336
  144OSM   H14T15839   4.479   0.168   7.302 -2.1979  0.4433  0.9070
  144OSM   C15S15840   4.581   0.073   7.466  0.8094 -0.4376 -0.4625
  144OSM   H15S15841   4.682   0.097   7.427  1.1265 -0.4896  0.3172
  144OSM   H15T15842   4.590  -0.030   7.506  0.0191 -1.0700 -1.8766
  144OSM   C16S15843   4.536   0.181   7.571 -0.2922 -0.1617  0.2784
  144OSM   H16S15844   4.541   0.284   7.529  1.5257 -0.7901 -1.1019
  144OSM   H16T15845   4.608   0.170   7.655 -0.8743 -1.4134  0.6249
  144OSM   C17S15846   4.395   0.153   7.633 -0.0167 -0.4952 -0.5096
  144OSM   H17S15847   4.398   0.043   7.643 -2.3173 -0.7293 -2.0134
  144OSM   H17T15848   4.320   0.170   7.553 -0.3262 -2.0135 -0.5458
  144OSM   C18S15849   4.354   0.231   7.763  0.7027  0.6919  0.4778
  144OSM   H18S15850   4.369   0.339   7.746 -0.9757  0.3513 -3.6641
  144OSM   H18T15851   4.410   0.193   7.851 -0.0729 -0.2387  0.5824
  144OSM   H18U15852   4.248   0.209   7.789  0.8341  0.1697  0.5776
  144OSM    C1F15853   3.769   0.492   6.756  0.0493  0.7611  0.7398
  144OSM     OF15854   3.666   0.531   6.699  0.6691  0.1179  0.4389
  144OSM    C2F15855   3.791   0.455   6.898  0.0040 -0.7671 -1.1175
  144OSM    H2F15856   3.877   0.517   6.932 -0.3130 -1.2446  0.5948
  144OSM    H2G15857   3.821   0.348   6.892 -0.7627 -1.2212  2.0688
  144OSM    C3F15858   3.683   0.476   7.004  0.0452 -0.6694  0.4336
  144OSM    H3F15859   3.585   0.435   6.972 -0.2221  0.2685  0.0419
  144OSM    H3G15860   3.665   0.585   7.009  1.3180 -0.4303 -0.1014
  144OSM    C4F15861   3.724   0.436   7.142  0.0446 -0.5380 -1.0409
  144OSM    H4F15862   3.834   0.434   7.151 -0.1494 -1.4471  1.5675
  144OSM    H4G15863   3.689   0.334   7.169  1.6065 -0.4058  1.6134
  144OSM    C5F15864   3.669   0.524   7.260 -0.6945 -0.4512  0.0456
  144OSM    H5F15865   3.559   0.509   7.251 -0.0373 -4.1919 -2.7733
  144OSM    H5G15866   3.693   0.629   7.231  0.3513 -0.6263  0.2897
  144OSM    C6F15867   3.736   0.488   7.382 -0.2205  0.2834  0.4085
  144OSM    H6F15868   3.839   0.527   7.400  0.3189 -0.9810  0.0900
  144OSM    H6G15869   3.752   0.378   7.376  2.1237  0.5336  1.5058
  144OSM    C7F15870   3.642   0.515   7.506  0.1322 -0.9038 -0.4232
  144OSM    H7F15871   3.536   0.508   7.476  0.1523 -1.2556 -0.4158
  144OSM    H7G15872   3.669   0.616   7.543  0.2510 -1.3553  0.7407
  144OSM    C8F15873   3.667   0.422   7.621 -0.2791  0.4564  0.0643
  144OSM    H8F15874   3.634   0.318   7.600 -0.0246  0.3417  0.2249
  144OSM    H8G15875   3.605   0.454   7.708 -0.9608 -0.7982  0.0559
  144OSM    C9F15876   3.807   0.409   7.671  0.3187  0.7193  0.4776
  144OSM    H9F15877   3.858   0.318   7.635 -0.3905 -0.1051  1.5301
  144OSM   C10F15878   3.879   0.491   7.753 -0.2751 -0.5271  0.0047
  144OSM   H10F15879   3.982   0.466   7.783 -0.8099 -0.9096  1.5583
  144OSM   C11F15880   3.823   0.622   7.820  0.0416  0.6243  0.2424
  144OSM   H11F15881   3.715   0.627   7.798 -0.1609 -4.4778 -0.6689
  144OSM   H11G15882   3.868   0.718   7.787 -0.1105  0.4958 -0.3403
  144OSM   C12F15883   3.831   0.608   7.975 -0.4980  0.1582  0.5738
  144OSM   H12F15884   3.929   0.599   8.026 -1.1293 -1.1245  1.5892
  144OSM   H12G15885   3.775   0.521   8.015  0.2431 -1.3689 -1.5692
  144OSM   C13F15886   3.765   0.735   8.042 -0.0158  0.0803 -0.1363
  144OSM   H13F15887   3.660   0.746   8.006  0.2767  1.2946 -0.6380
  144OSM   H13G15888   3.813   0.826   8.001 -1.7589 -0.2088 -2.9597
  144OSM   C14F15889   3.779   0.740   8.194 -0.3028  0.3489  0.1544
  144OSM   H14F15890   3.884   0.727   8.227 -0.8191  0.0886  1.7510
  144OSM   H14G15891   3.734   0.647   8.235  0.6561 -0.9675 -1.6853
  144OSM   C15F15892   3.717   0.868   8.253  0.3267  0.2985 -0.5438
  144OSM   H15F15893   3.617   0.886   8.208  0.8632  0.4181 -1.7078
  144OSM   H15G15894   3.776   0.953   8.214  0.1544  0.9014  0.4840
  144OSM   C16F15895   3.719   0.882   8.409 -0.2779  0.4265 -0.1826
  144OSM   H16F15896   3.670   0.978   8.437  3.0819  1.7535  1.4240
  144OSM   H16G15897   3.825   0.896   8.438 -0.1479  0.0960 -0.4976
  144OSM   C17F15898   3.658   0.764   8.478 -0.3120  0.2675  0.0863
  144OSM   H17F15899   3.647   0.800   8.583 -1.6306 -1.1537  0.4507
  144OSM   H17G15900   3.714   0.668   8.474 -1.1886 -0.2023 -1.5061
  144OSM   C18F15901   3.511   0.734   8.449 -0.4240 -0.5567  0.3984
  144OSM   H18F15902   3.506   0.672   8.358  0.2703 -0.5199  0.3308
  144OSM   H18G15903   3.466   0.831   8.419  2.0617  0.4637 -0.1619
  144OSM   H18H15904   3.461   0.686   8.536 -0.4231 -0.1577  0.6236
  145SAPE     N15905   2.229   1.675  10.652 -0.6815  0.2050  0.1332
  145SAPE   HN115906   2.260   1.734  10.572 -1.3075  1.9496  1.1571
  145SAPE   HN215907   2.277   1.583  10.660 -2.7994 -1.0181 -0.7246
  145SAPE   HN315908   2.125   1.667  10.644 -0.5851 -0.3741 -0.5904
  145SAPE   C1215909   2.254   1.738  10.790  0.3701  0.0158  0.3047
  145SAPE  H12A15910   2.232   1.661  10.867  0.6551  0.5368  0.9136
  145SAPE  H12B15911   2.185   1.824  10.799  0.1411  0.1027 -2.0030
  145SAPE   C1115912   2.402   1.782  10.808  0.2126 -0.2195  0.0083
  145SAPE  H11A15913   2.466   1.691  10.809  2.1335  1.1185  0.9694
  145SAPE  H11B15914   2.414   1.825  10.910 -3.3640  2.4292 -0.5893
  145SAPE     P15915   2.453   2.021  10.696  0.0943  0.1565 -0.2251
  145SAPE   O1315916   2.316   2.066  10.672  0.1514  0.2455  0.1786
  145SAPE   O1415917   2.535   2.074  10.807  0.5558 -0.3223  0.1899
  145SAPE   O1215918   2.442   1.865  10.702  0.2704  0.2103  0.4283
  145SAPE   O1115919   2.534   2.033  10.561  0.3694  0.1355 -0.1005
  145SAPE    C115920   2.668   1.994  10.551  0.2461  0.8449  0.0119
  145SAPE    HA15921   2.725   2.087  10.570  0.6380  0.2754  1.6691
  145SAPE    HB15922   2.705   1.923  10.627 -1.9721 -1.4472 -0.9750
  145SAPE    C215923   2.688   1.933  10.407 -0.5111 -0.3807  0.0163
  145SAPE    HS15924   2.793   1.898  10.403 -0.2304  0.0818  2.3715
  145SAPE   O2115925   2.666   2.029  10.308  0.3207  0.5669  0.0449
  145SAPE   C2115926   2.762   2.124  10.294  0.3341  0.6782 -0.0465
  145SAPE   O2215927   2.858   2.129  10.368 -0.5219  0.4791 -0.0319
  145SAPE   C2215928   2.731   2.210  10.167 -0.5998 -0.0459 -0.0055
  145SAPE   H2R15929   2.621   2.225  10.179 -0.5567 -0.0059  0.3505
  145SAPE   H2S15930   2.789   2.304  10.174  1.9203 -1.6313  1.3702
  145SAPE    C315931   2.603   1.815  10.385 -0.6566  0.0895 -0.1049
  145SAPE    HX15932   2.497   1.833  10.412 -0.5649  0.6502 -0.0984
  145SAPE    HY15933   2.637   1.738  10.458  0.6231  1.1854  0.4942
  145SAPE   O3115934   2.623   1.776  10.245  0.2747 -0.3604 -0.2059
  145SAPE   C3115935   2.533   1.816  10.153 -0.4470  0.1029  0.0528
  145SAPE   O3215936   2.427   1.869  10.181  0.0933  0.2736  0.5125
  145SAPE   C3215937   2.582   1.769  10.009 -0.3309  0.2879 -0.1175
  145SAPE   H2X15938   2.646   1.681  10.030  1.8412  0.6916 -4.4913
  145SAPE   H2Y15939   2.636   1.853   9.961 -2.2082  0.1144 -2.6528
  145SAPE   C2315940   2.792   2.140  10.048  0.0479 -0.2699 -0.0484
  145SAPE   H3R15941   2.731   2.048  10.040 -1.1850  0.4166  1.2997
  145SAPE   H3S15942   2.901   2.118  10.051 -0.0497 -0.6371  2.8581
  145SAPE   C2415943   2.771   2.220   9.919  0.0087  0.7520 -0.5364
  145SAPE   H4R15944   2.819   2.320   9.923  0.8133  0.3230  1.4262
  145SAPE   H4S15945   2.661   2.235   9.920 -0.4244 -1.9254 -1.9122
  145SAPE   C2515946   2.820   2.135   9.801  0.6098  0.3149  0.4602
  145SAPE   H5R15947   2.803   2.027   9.806  1.1133  0.2698  1.3651
  145SAPE   C2615948   2.888   2.178   9.697  0.1564  0.2277 -0.1888
  145SAPE   H6R15949   2.905   2.101   9.620 -1.2471  1.1885 -1.4837
  145SAPE   C2715950   2.927   2.314   9.657  0.4272  0.8012  0.0466
  145SAPE   H7R15951   3.032   2.310   9.620  0.8518  1.0819  1.2285
  145SAPE   H7S15952   2.945   2.375   9.748 -0.0411  0.3063  0.4754
  145SAPE   C2815953   2.825   2.392   9.573 -0.0171  0.8704 -0.3048
  145SAPE   H8R15954   2.717   2.376   9.584  0.2232 -0.4024  0.2000
  145SAPE   C2915955   2.852   2.453   9.453  0.5364  0.9270  0.0215
  145SAPE   H9R15956   2.775   2.502   9.390  2.1959  0.1001 -2.7375
  145SAPE  C21015957   2.996   2.451   9.396 -0.2726 -0.6115 -0.3028
  145SAPE  H10R15958   3.020   2.352   9.351 -1.0237 -0.8312 -0.2314
  145SAPE  H10S15959   3.068   2.466   9.479  0.1853  0.5416 -0.8973
  145SAPE  C21115960   3.017   2.572   9.308  0.0947  1.0517  0.1411
  145SAPE  H11R15961   2.989   2.665   9.359 -0.6543  1.7644 -1.5627
  145SAPE  C21215962   3.060   2.571   9.176 -0.2426 -0.2202  0.8395
  145SAPE  H12R15963   3.057   2.669   9.127  1.2181  0.8970  2.9146
  145SAPE  C21315964   3.096   2.446   9.097 -0.0163  0.6512 -0.3428
  145SAPE  H13R15965   3.060   2.467   8.995 -0.8589 -1.6248 -0.5291
  145SAPE  H13S15966   3.046   2.357   9.140 -1.8575  0.6983 -2.3416
  145SAPE  C21415967   3.237   2.402   9.084 -0.3786 -0.2390  0.3711
  145SAPE  H14R15968   3.314   2.481   9.092 -1.0392  0.4049  0.4404
  145SAPE  C21515969   3.287   2.276   9.076 -0.1079 -0.4795  0.7057
  145SAPE  H15R15970   3.394   2.283   9.054  0.0876  2.4116  2.2848
  145SAPE  C21615971   3.215   2.141   9.077 -0.3181 -0.5558 -0.8468
  145SAPE  H16R15972   3.115   2.133   9.126  0.2969  0.6679  0.6521
  145SAPE  H16S15973   3.268   2.069   9.144 -0.5722  1.0128  1.1061
  145SAPE  C21715974   3.193   2.088   8.938  0.0969  0.0305  0.2086
  145SAPE  H17R15975   3.285   2.075   8.877  0.0161  1.4062 -0.2156
  145SAPE  H17S15976   3.125   2.159   8.888 -3.4066 -0.1703  4.3645
  145SAPE  C21815977   3.119   1.948   8.944 -0.9662 -0.2102 -0.3592
  145SAPE  H18R15978   3.104   1.919   9.050 -1.3651 -2.5922 -1.0396
  145SAPE  H18S15979   3.187   1.870   8.904 -1.0685  0.2220 -1.3967
  145SAPE  C21915980   2.987   1.945   8.864 -0.3631  0.1401 -0.0892
  145SAPE  H19R15981   2.930   2.037   8.890  0.7717  0.7063  0.4030
  145SAPE  H19S15982   2.920   1.858   8.886 -0.6976  0.7401  1.2850
  145SAPE  C22015983   3.015   1.944   8.713  0.1939  0.0599 -0.1857
  145SAPE  H20R15984   3.092   1.867   8.692  1.0110  1.1292 -1.2413
  145SAPE  H20S15985   3.051   2.043   8.677 -2.0845  0.5684 -1.1473
  145SAPE  H20T15986   2.926   1.907   8.659  1.2830 -2.0847 -0.5867
  145SAPE   C3315987   2.473   1.738   9.908  0.1334  0.2670 -0.1376
  145SAPE   H3X15988   2.393   1.810   9.933 -1.6714 -2.3612  1.8500
  145SAPE   H3Y15989   2.431   1.635   9.905  1.1771 -0.1478 -0.8340
  145SAPE   C3415990   2.512   1.790   9.766  0.4113  0.2499  0.2727
  145SAPE   H4X15991   2.571   1.884   9.771 -0.0071  0.6043 -1.4030
  145SAPE   H4Y15992   2.414   1.820   9.725 -1.2874 -0.4700  3.6551
  145SAPE   C3515993   2.561   1.675   9.679 -0.0738 -0.1301  0.1819
  145SAPE   H5X15994   2.480   1.599   9.679  0.1593 -0.4087  1.8660
  145SAPE   H5Y15995   2.647   1.631   9.734  0.8591  0.6998 -0.6034
  145SAPE   C3615996   2.604   1.721   9.538  0.4091 -0.5631  0.0793
  145SAPE   H6X15997   2.702   1.771   9.549  0.6485 -1.4982  2.4826
  145SAPE   H6Y15998   2.531   1.798   9.505  2.0555  1.1931  0.4752
  145SAPE   C3715999   2.618   1.606   9.440  0.2220  0.3638 -0.1129
  145SAPE   H7X16000   2.521   1.553   9.426  0.0003  0.3707  1.3242
  145SAPE   H7Y16001   2.695   1.534   9.474  0.3857  1.1768  1.2937
  145SAPE   C3816002   2.662   1.658   9.308 -0.3303  0.0518 -0.1648
  145SAPE   H8X16003   2.772   1.646   9.300 -0.3033 -2.5915  3.3182
  145SAPE   H8Y16004   2.633   1.765   9.313 -2.3594 -0.4406 -1.1022
  145SAPE   C3916005   2.585   1.598   9.191  0.2418 -0.0221 -0.8739
  145SAPE   H9X16006   2.474   1.596   9.202  0.0907  1.4081 -1.9077
  145SAPE   H9Y16007   2.621   1.493   9.190  1.0236  0.2154  1.3498
  145SAPE  C31016008   2.617   1.660   9.060  0.5035  0.7578  0.4675
  145SAPE  H10X16009   2.722   1.695   9.047  0.7121  0.3428  1.0027
  145SAPE  H10Y16010   2.551   1.749   9.048 -0.4561 -0.1368 -1.0604
  145SAPE  C31116011   2.597   1.557   8.940 -0.1741 -0.1223 -0.1118
  145SAPE  H11X16012   2.498   1.509   8.952  0.7548 -2.1051 -0.2010
  145SAPE  H11Y16013   2.677   1.482   8.958 -0.5468 -0.3518  0.6266
  145SAPE  C31216014   2.624   1.627   8.805 -0.5298 -0.1347  0.0388
  145SAPE  H12X16015   2.623   1.542   8.733  0.9572  0.2435 -0.4351
  145SAPE  H12Y16016   2.727   1.668   8.801  0.1869 -1.8510  0.3674
  145SAPE  C31316017   2.527   1.740   8.768  0.1786  0.3353  0.9612
  145SAPE  H13X16018   2.537   1.813   8.852 -2.0739  0.3875  1.2108
  145SAPE  H13Y16019   2.423   1.702   8.777  0.3809 -0.6979 -0.8649
  145SAPE  C31416020   2.557   1.791   8.634 -0.4111 -0.5859 -0.1746
  145SAPE  H14X16021   2.550   1.714   8.555 -0.5003 -2.4711  1.6365
  145SAPE  H14Y16022   2.660   1.831   8.643 -0.1504 -1.6573  1.8459
  145SAPE  C31516023   2.474   1.910   8.593  0.0600 -0.3332  0.4698
  145SAPE  H15X16024   2.373   1.865   8.581  0.5133 -1.2157 -0.0894
  145SAPE  H15Y16025   2.498   1.943   8.490  1.2200 -2.5558 -0.0075
  145SAPE  C31616026   2.488   2.029   8.692  0.6533 -0.0634 -0.2820
  145SAPE  H16X16027   2.587   2.078   8.679  3.2998 -3.7934  4.0470
  145SAPE  H16Y16028   2.483   1.995   8.798 -0.0925 -0.8673 -0.5683
  145SAPE  C31716029   2.373   2.128   8.665 -0.5068 -0.6584 -0.4110
  145SAPE  H17X16030   2.406   2.182   8.574 -1.8265 -1.0767 -1.1432
  145SAPE  H17Y16031   2.376   2.204   8.747 -0.8261 -1.1260  0.0396
  145SAPE  C31816032   2.234   2.071   8.653  0.3677  0.1364  0.5529
  145SAPE  H18X16033   2.208   2.037   8.550  0.1790 -0.6461  0.8597
  145SAPE  H18Y16034   2.165   2.157   8.668 -0.6282 -0.1047 -2.3083
  145SAPE  H18Z16035   2.204   1.992   8.724 -1.2523  0.8928  0.7271
  146SAPE     N16036   1.320   3.222  10.879 -0.6078 -0.1943 -0.2948
  146SAPE   HN116037   1.322   3.322  10.851 -1.0786 -0.0435  0.1969
  146SAPE   HN216038   1.290   3.210  10.978  2.9735  3.9919  1.4521
  146SAPE   HN316039   1.417   3.187  10.870  0.6586  3.1099 -0.1506
  146SAPE   C1216040   1.220   3.163  10.777 -0.3531 -0.2220 -0.5313
  146SAPE  H12A16041   1.131   3.230  10.774  0.3662  0.7334 -0.9411
  146SAPE  H12B16042   1.206   3.058  10.810  0.9706 -0.1391  0.3601
  146SAPE   C1116043   1.289   3.153  10.634  0.1271  0.1865 -0.4700
  146SAPE  H11A16044   1.321   3.255  10.604 -0.5292  0.6715  0.4401
  146SAPE  H11B16045   1.217   3.116  10.557  0.0721 -0.9335  0.1110
  146SAPE     P16046   1.542   3.076  10.663  0.5538  0.1843 -0.0201
  146SAPE   O1316047   1.555   3.161  10.784 -0.2556 -0.2772  0.4020
  146SAPE   O1416048   1.621   2.945  10.662  0.4434  0.7702 -0.1040
  146SAPE   O1216049   1.391   3.049  10.639  0.2136  1.0107  0.5330
  146SAPE   O1116050   1.573   3.167  10.537 -0.2090  0.2051  0.1006
  146SAPE    C116051   1.511   3.143  10.411 -0.1445 -0.3446  0.4727
  146SAPE    HA16052   1.472   3.039  10.401  1.2446 -0.7851 -0.5523
  146SAPE    HB16053   1.419   3.204  10.400  0.4839  0.6918  0.9153
  146SAPE    C216054   1.593   3.191  10.283  0.3839 -0.0522  0.2884
  146SAPE    HS16055   1.586   3.302  10.274  1.9175 -0.0738 -1.7890
  146SAPE   O2116056   1.548   3.127  10.162  0.4275  0.7113 -0.5547
  146SAPE   C2116057   1.515   3.199  10.060 -0.1424  0.4832  0.8427
  146SAPE   O2216058   1.529   3.316  10.047  0.3826  0.0750 -0.6472
  146SAPE   C2216059   1.419   3.126   9.965 -0.7481 -0.4575  0.5389
  146SAPE   H2R16060   1.360   3.041  10.006 -1.4206 -0.2974 -0.0907
  146SAPE   H2S16061   1.355   3.207   9.925  1.4134  1.0890  0.1523
  146SAPE    C316062   1.749   3.160  10.306  1.2704  0.0875  0.5515
  146SAPE    HX16063   1.757   3.061  10.358  0.3322  0.5056  1.5139
  146SAPE    HY16064   1.785   3.238  10.375 -0.1433 -0.5398  2.0492
  146SAPE   O3116065   1.817   3.172  10.177  0.0836  0.6058  0.0037
  146SAPE   C3116066   1.955   3.163  10.179 -0.1067  0.4832 -0.5475
  146SAPE   O3216067   2.020   3.134  10.276  0.4071 -0.2844  0.5535
  146SAPE   C3216068   2.013   3.190  10.037  0.0756  0.0276  0.2482
  146SAPE   H2X16069   2.029   3.299  10.020  0.2926 -0.1873 -0.9731
  146SAPE   H2Y16070   1.934   3.151   9.970 -2.5336  0.4121  2.9474
  146SAPE   C2316071   1.502   3.060   9.854  0.5104  0.5325  0.7783
  146SAPE   H3R16072   1.573   2.980   9.883 -0.5343  0.4723  3.3502
  146SAPE   H3S16073   1.562   3.142   9.809  0.9179 -0.3606 -0.3009
  146SAPE   C2416074   1.411   2.983   9.754  0.1074 -0.1620 -0.0772
  146SAPE   H4R16075   1.321   3.046   9.736 -0.4861  0.0706  3.3487
  146SAPE   H4S16076   1.372   2.905   9.823 -0.5680  1.7797  1.7833
  146SAPE   C2516077   1.477   2.936   9.622  0.1100 -0.8570  0.8065
  146SAPE   H5R16078   1.535   2.844   9.633  1.4872  0.1179  1.8647
  146SAPE   C2616079   1.453   2.979   9.498 -0.4914  0.3399 -0.1815
  146SAPE   H6R16080   1.506   2.921   9.422  0.4365  0.2654  0.5024
  146SAPE   C2716081   1.357   3.079   9.447 -0.0770 -0.5203  0.3585
  146SAPE   H7R16082   1.388   3.124   9.350 -0.2785 -0.7721  0.1762
  146SAPE   H7S16083   1.343   3.158   9.524 -0.0796 -0.0288 -0.1479
  146SAPE   C2816084   1.222   3.020   9.415  0.2121  0.6528  0.6375
  146SAPE   H8R16085   1.161   2.984   9.499 -1.7040 -0.0614 -0.9933
  146SAPE   C2916086   1.160   3.019   9.294 -0.3394  0.4555 -0.2834
  146SAPE   H9R16087   1.068   2.960   9.281 -0.8963  1.3324 -0.4156
  146SAPE  C21016088   1.225   3.065   9.166 -0.3736 -0.1583  0.0643
  146SAPE  H10R16089   1.290   3.151   9.191 -1.9775  1.2188 -0.4678
  146SAPE  H10S16090   1.149   3.096   9.092  0.4437 -2.0968 -1.6399
  146SAPE  C21116091   1.300   2.947   9.102  0.1948  0.1378  0.4772
  146SAPE  H11R16092   1.400   2.933   9.145  1.2939 -1.1420 -2.3410
  146SAPE  C21216093   1.275   2.878   8.982  0.2589 -0.6173 -0.8208
  146SAPE  H12R16094   1.352   2.814   8.937  2.6934  2.0104 -0.5310
  146SAPE  C21316095   1.151   2.899   8.895 -0.2239 -0.2575 -0.5695
  146SAPE  H13R16096   1.065   2.921   8.962  0.1699 -0.2775 -0.0596
  146SAPE  H13S16097   1.134   2.808   8.834 -1.1094 -0.9110  0.6222
  146SAPE  C21416098   1.161   3.025   8.806  0.4951  0.8081 -0.1029
  146SAPE  H14R16099   1.189   3.116   8.861 -0.6708 -1.1941  3.9968
  146SAPE  C21516100   1.120   3.030   8.682 -0.7349  0.0079  0.1667
  146SAPE  H15R16101   1.134   3.127   8.631  0.5983 -0.3832 -0.2496
  146SAPE  C21616102   1.058   2.923   8.596  0.2955  0.7726 -0.5600
  146SAPE  H16R16103   0.967   2.959   8.542  0.7782 -0.7303 -2.4288
  146SAPE  H16S16104   1.028   2.834   8.656 -1.8646  1.3689 -0.7055
  146SAPE  C21716105   1.156   2.872   8.495  0.5294 -0.2863 -0.5398
  146SAPE  H17R16106   1.244   2.844   8.556 -0.0077 -2.6644 -0.8335
  146SAPE  H17S16107   1.195   2.958   8.435  0.3158  0.8802  0.9704
  146SAPE  C21816108   1.100   2.757   8.417  0.2805  0.1851 -0.2577
  146SAPE  H18R16109   1.025   2.794   8.344 -1.6638  1.6814  2.3639
  146SAPE  H18S16110   1.042   2.687   8.481  0.1775  1.2009  0.7771
  146SAPE  C21916111   1.203   2.671   8.334 -0.5260 -0.2457 -0.0654
  146SAPE  H19R16112   1.272   2.631   8.410  0.0389 -1.2267 -1.0772
  146SAPE  H19S16113   1.254   2.743   8.267  2.2917 -2.0540  0.0679
  146SAPE  C22016114   1.148   2.563   8.251 -0.3392 -0.0124 -0.1757
  146SAPE  H20R16115   1.234   2.512   8.202 -0.4013  1.0597 -1.4408
  146SAPE  H20S16116   1.085   2.599   8.167  0.2214 -0.2218 -0.6880
  146SAPE  H20T16117   1.087   2.493   8.312 -0.1401  0.1182  0.1715
  146SAPE   C3316118   2.147   3.112  10.010 -0.2222 -0.0135  0.0834
  146SAPE   H3X16119   2.156   3.022  10.074 -2.2519  0.9907  1.8247
  146SAPE   H3Y16120   2.235   3.175  10.036  2.1980 -3.2727  0.0230
  146SAPE   C3416121   2.170   3.078   9.861 -0.0143 -0.2065 -0.9222
  146SAPE   H4X16122   2.280   3.075   9.849  0.0988  3.4763 -1.5683
  146SAPE   H4Y16123   2.119   3.160   9.805 -1.8717 -0.4687  0.3389
  146SAPE   C3516124   2.102   2.939   9.827  0.9399  0.1067  0.2491
  146SAPE   H5X16125   1.996   2.936   9.859  1.0335 -1.2007  0.4336
  146SAPE   H5Y16126   2.163   2.861   9.878  3.3647  1.3571 -0.6387
  146SAPE   C3616127   2.097   2.926   9.672 -0.5769  0.0199  0.6610
  146SAPE   H6X16128   2.082   2.819   9.646 -0.0545 -0.3874  1.9868
  146SAPE   H6Y16129   2.196   2.958   9.633 -0.7274 -1.0247 -0.6099
  146SAPE   C3716130   1.969   2.990   9.617 -0.0214  0.8919  0.2620
  146SAPE   H7X16131   1.948   3.089   9.663 -2.3049  0.1458  0.8676
  146SAPE   H7Y16132   1.879   2.927   9.631 -0.2760  0.1089 -4.1403
  146SAPE   C3816133   1.974   3.001   9.461  0.0202  0.0671 -0.5192
  146SAPE   H8X16134   2.022   2.912   9.415 -1.7148 -1.8749  1.3057
  146SAPE   H8Y16135   2.042   3.087   9.442  1.0659 -0.4630  0.6871
  146SAPE   C3916136   1.836   3.039   9.409  0.2055 -0.7003 -1.1460
  146SAPE   H9X16137   1.797   3.134   9.452 -1.1044 -1.9179  0.3926
  146SAPE   H9Y16138   1.761   2.958   9.426 -2.1093  1.5902  0.0243
  146SAPE  C31016139   1.843   3.071   9.259 -0.2589  0.3105 -0.8823
  146SAPE  H10X16140   1.883   2.982   9.204  1.1201  0.7085 -0.5502
  146SAPE  H10Y16141   1.917   3.150   9.234  0.9747 -0.6272 -0.2723
  146SAPE  C31116142   1.709   3.111   9.198  0.4325  0.0794 -0.4486
  146SAPE  H11X16143   1.685   3.217   9.220 -0.0092 -0.0462 -0.3206
  146SAPE  H11Y16144   1.631   3.042   9.235 -0.3410  1.4810  0.5913
  146SAPE  C31216145   1.722   3.093   9.048 -1.2999 -0.0267  0.1966
  146SAPE  H12X16146   1.716   2.989   9.010 -1.6853  0.7222 -1.8842
  146SAPE  H12Y16147   1.826   3.124   9.020 -0.9305 -0.6370  0.8760
  146SAPE  C31316148   1.627   3.181   8.961 -0.3857 -0.5855  0.0144
  146SAPE  H13X16149   1.637   3.291   8.974 -4.6109 -0.1182  0.1173
  146SAPE  H13Y16150   1.519   3.170   8.987 -0.1673  1.9329  2.1727
  146SAPE  C31416151   1.642   3.140   8.813  0.5696 -0.3889 -0.6626
  146SAPE  H14X16152   1.614   3.034   8.797 -1.6723 -0.2342  1.9713
  146SAPE  H14Y16153   1.752   3.151   8.803  0.6537 -0.6998 -0.0986
  146SAPE  C31516154   1.567   3.224   8.713 -0.2382  0.4185 -0.2386
  146SAPE  H15X16155   1.578   3.333   8.734  0.0603  0.5604 -1.1241
  146SAPE  H15Y16156   1.462   3.189   8.710  0.3622 -1.4266 -0.4694
  146SAPE  C31616157   1.612   3.210   8.568  0.1200 -0.4037 -0.5019
  146SAPE  H16X16158   1.593   3.108   8.530 -1.4033 -0.6262  0.7849
  146SAPE  H16Y16159   1.721   3.231   8.567  0.0194  0.6884  2.7938
  146SAPE  C31716160   1.549   3.312   8.471 -0.3798 -0.1116  0.6454
  146SAPE  H17X16161   1.594   3.298   8.370  1.8766  2.2656  1.2790
  146SAPE  H17Y16162   1.587   3.407   8.513  0.0486 -0.4011  0.9192
  146SAPE  C31816163   1.394   3.287   8.459 -0.8692 -0.1116  1.0645
  146SAPE  H18X16164   1.366   3.181   8.480  0.2052 -0.6312 -0.0923
  146SAPE  H18Y16165   1.350   3.318   8.362 -1.5373 -4.0455  0.0112
  146SAPE  H18Z16166   1.338   3.347   8.534 -2.0848 -0.1929  0.2480
  147SAPE     N16167   2.663   6.068  11.030  0.9925 -0.2105 -0.0115
  147SAPE   HN116168   2.624   6.137  10.962  1.1628  0.7364  0.8488
  147SAPE   HN216169   2.660   6.104  11.127  0.8018  0.3829 -0.2394
  147SAPE   HN316170   2.762   6.052  11.003  0.6029 -0.6382 -1.2225
  147SAPE   C1216171   2.579   5.945  11.016 -0.3058 -1.1011 -0.4699
  147SAPE  H12A16172   2.474   5.975  10.999  0.1824 -0.3862 -2.2910
  147SAPE  H12B16173   2.575   5.899  11.117  2.4620 -1.3393 -0.4232
  147SAPE   C1116174   2.624   5.847  10.899 -0.3686  0.5794 -0.3988
  147SAPE  H11A16175   2.635   5.908  10.807  0.2318  0.2462 -0.5529
  147SAPE  H11B16176   2.550   5.765  10.889 -0.6995  0.8066  0.1748
  147SAPE     P16177   2.888   5.850  10.883  0.0934 -0.3551  0.1497
  147SAPE   O1316178   2.889   5.990  10.930  0.2354 -0.6725 -0.0107
  147SAPE   O1416179   2.997   5.764  10.940 -0.1106  0.0799  0.4197
  147SAPE   O1216180   2.749   5.782  10.934 -0.4956  0.0047  0.1253
  147SAPE   O1116181   2.888   5.843  10.727  1.2993 -0.2064 -0.3360
  147SAPE    C116182   2.831   5.738  10.647  0.5226  0.4704 -0.5868
  147SAPE    HA16183   2.802   5.646  10.703 -0.1967  1.4574  0.6813
  147SAPE    HB16184   2.740   5.758  10.586  0.2578 -0.3591 -0.4704
  147SAPE    C216185   2.932   5.683  10.544  0.1395 -0.3379 -0.7414
  147SAPE    HS16186   3.020   5.649  10.601 -1.2306 -0.8947  1.0939
  147SAPE   O2116187   2.963   5.782  10.442  0.6817  0.2289  0.0017
  147SAPE   C2116188   3.074   5.856  10.457 -0.0686 -0.0055  0.2136
  147SAPE   O2216189   3.154   5.850  10.547 -0.3463  0.2902  0.1136
  147SAPE   C2216190   3.081   5.959  10.347 -0.2715 -0.6414 -0.5925
  147SAPE   H2R16191   3.054   5.913  10.249 -2.7893 -2.0252  0.7074
  147SAPE   H2S16192   3.005   6.038  10.366  0.0450  0.5176 -3.6871
  147SAPE    C316193   2.872   5.552  10.473  0.8338  0.3396 -0.3249
  147SAPE    HX16194   2.783   5.589  10.418  0.8363  2.4255  1.0107
  147SAPE    HY16195   2.842   5.479  10.552  1.4165  0.8942  0.4138
  147SAPE   O3116196   2.973   5.491  10.388  0.4279  0.0907 -0.0156
  147SAPE   C3116197   2.910   5.395  10.308  0.5429  0.7173  0.3243
  147SAPE   O3216198   2.807   5.335  10.347 -0.5216  0.0024  0.3081
  147SAPE   C3216199   2.993   5.355  10.180  0.2504  0.0471 -0.0808
  147SAPE   H2X16200   3.079   5.298  10.222  0.0966  0.6728  1.0950
  147SAPE   H2Y16201   3.038   5.451  10.147  0.1301  0.9634  2.3459
  147SAPE   C2316202   3.219   6.027  10.337 -0.1713  0.5132  0.8640
  147SAPE   H3R16203   3.289   5.941  10.345 -2.0428 -1.0972  0.3887
  147SAPE   H3S16204   3.235   6.094  10.423  0.2013 -1.2617  2.1984
  147SAPE   C2416205   3.248   6.102  10.200 -0.5677 -0.1396 -0.5272
  147SAPE   H4R16206   3.257   6.037  10.111  1.6963  0.7583 -0.9966
  147SAPE   H4S16207   3.349   6.145  10.216 -0.8014 -0.1942  1.2679
  147SAPE   C2516208   3.138   6.199  10.177  0.4646 -0.1634  0.3542
  147SAPE   H5R16209   3.106   6.246  10.271 -2.9754 -0.1982 -0.7384
  147SAPE   C2616210   3.076   6.225  10.059  0.3328 -0.1916  0.2435
  147SAPE   H6R16211   3.002   6.306  10.061  0.8923  0.3368 -0.5558
  147SAPE   C2716212   3.104   6.172   9.927 -0.2996  0.7643  0.3746
  147SAPE   H7R16213   3.014   6.183   9.862  0.7684  0.6248 -1.1512
  147SAPE   H7S16214   3.131   6.064   9.929 -3.1547  0.0154  0.8773
  147SAPE   C2816215   3.223   6.248   9.866 -0.0300 -0.0042 -0.6155
  147SAPE   H8R16216   3.305   6.270   9.936  0.6550 -4.5784  0.1674
  147SAPE   C2916217   3.251   6.253   9.731  0.1146 -0.2232 -0.3891
  147SAPE   H9R16218   3.350   6.296   9.708 -0.6306  1.0427 -1.2710
  147SAPE  C21016219   3.173   6.194   9.622 -0.1319 -0.2663  0.0470
  147SAPE  H10R16220   3.111   6.273   9.573  1.0466 -0.1714 -1.2949
  147SAPE  H10S16221   3.099   6.118   9.657 -0.0022  0.4387  1.9344
  147SAPE  C21116222   3.265   6.142   9.516  0.6292 -0.4172  0.1250
  147SAPE  H11R16223   3.370   6.128   9.546  0.6017 -0.4890  0.1908
  147SAPE  C21216224   3.231   6.081   9.404 -0.1972  0.1411 -0.2540
  147SAPE  H12R16225   3.307   6.046   9.333  2.1945  2.3611  1.1028
  147SAPE  C21316226   3.089   6.081   9.363 -0.0580  0.5990  0.6866
  147SAPE  H13R16227   3.039   6.174   9.394 -1.8177 -0.4111  0.9315
  147SAPE  H13S16228   3.030   6.010   9.424  0.6123 -0.1047  0.5220
  147SAPE  C21416229   3.064   6.051   9.219  0.3357 -0.1249 -0.8742
  147SAPE  H14R16230   3.073   5.943   9.198 -0.0280 -0.0600 -1.3761
  147SAPE  C21516231   3.072   6.138   9.120  0.1880  0.1199  0.0134
  147SAPE  H15R16232   3.055   6.101   9.017  0.6663  1.2915 -0.4997
  147SAPE  C21616233   3.093   6.286   9.128  0.0784  0.2522  0.2630
  147SAPE  H16R16234   3.191   6.301   9.177  0.1436 -0.5493  0.3857
  147SAPE  H16S16235   3.010   6.336   9.183 -0.0950  0.3862 -0.1125
  147SAPE  C21716236   3.100   6.358   8.989 -0.0729  0.3706  0.1946
  147SAPE  H17R16237   3.022   6.318   8.920 -1.4856  1.7785  0.9382
  147SAPE  H17S16238   3.203   6.347   8.949  0.4843  1.3307  1.3269
  147SAPE  C21816239   3.072   6.510   8.994 -0.5149 -0.0630 -0.0210
  147SAPE  H18R16240   3.132   6.585   9.049  0.3846  0.1173 -1.2338
  147SAPE  H18S16241   2.975   6.522   9.048 -0.4556 -0.6826  0.2284
  147SAPE  C21916242   3.086   6.551   8.843  0.6925 -0.2215  0.6721
  147SAPE  H19R16243   3.030   6.480   8.777 -2.4088  1.9657  0.8368
  147SAPE  H19S16244   3.196   6.544   8.834  0.8556  0.8859  1.7461
  147SAPE  C22016245   3.048   6.698   8.812 -0.6559  0.2103  0.2617
  147SAPE  H20R16246   3.069   6.724   8.707 -1.2459  0.5435  0.2251
  147SAPE  H20S16247   3.113   6.765   8.872 -1.8152  0.4662  1.2529
  147SAPE  H20T16248   2.941   6.717   8.834 -0.8352  0.3181 -0.6845
  147SAPE   C3316249   2.921   5.278  10.074 -0.3311  0.6471 -0.5000
  147SAPE   H3X16250   2.821   5.324  10.054 -0.2241  1.2092  0.2392
  147SAPE   H3Y16251   2.911   5.170  10.097 -0.6933  0.3977 -1.7398
  147SAPE   C3416252   3.000   5.274   9.937  0.6929  0.6990 -0.3006
  147SAPE   H4X16253   2.998   5.374   9.889 -0.2334  0.1029 -1.5117
  147SAPE   H4Y16254   2.945   5.215   9.861 -0.6829 -2.2203  2.8195
  147SAPE   C3516255   3.140   5.221   9.946 -0.0768 -0.3289  0.0599
  147SAPE   H5X16256   3.130   5.127  10.005 -2.2696  1.1923  2.2195
  147SAPE   H5Y16257   3.208   5.290  10.000 -0.6691  1.0962 -0.9767
  147SAPE   C3616258   3.194   5.181   9.808 -0.8355  0.1709 -0.0792
  147SAPE   H6X16259   3.121   5.111   9.760  0.4107 -0.6552 -0.8074
  147SAPE   H6Y16260   3.284   5.124   9.838  0.1290  0.5080 -2.2190
  147SAPE   C3716261   3.219   5.298   9.709 -0.0782  0.2552  0.8615
  147SAPE   H7X16262   3.303   5.356   9.752  0.7355 -1.0808  1.1035
  147SAPE   H7Y16263   3.124   5.352   9.689  0.0185  0.7575  1.7174
  147SAPE   C3816264   3.277   5.234   9.579  0.1603 -0.5871 -0.0752
  147SAPE   H8X16265   3.202   5.170   9.528  0.3236 -1.0799  0.3035
  147SAPE   H8Y16266   3.359   5.165   9.609  2.6001 -0.1684 -5.2880
  147SAPE   C3916267   3.324   5.338   9.472  0.5816  0.3097  0.6880
  147SAPE   H9X16268   3.416   5.388   9.510 -0.0744  1.2787  1.0090
  147SAPE   H9Y16269   3.247   5.418   9.481 -0.8541 -1.0501  0.7095
  147SAPE  C31016270   3.351   5.283   9.331  0.3726 -0.3289 -0.3531
  147SAPE  H10X16271   3.353   5.376   9.270  0.2268  0.6576  1.1184
  147SAPE  H10Y16272   3.266   5.216   9.304 -0.8463  1.3453 -0.7117
  147SAPE  C31116273   3.490   5.223   9.303 -0.2880 -0.3976 -0.3980
  147SAPE  H11X16274   3.507   5.145   9.381 -0.5369 -0.9763 -0.9242
  147SAPE  H11Y16275   3.571   5.297   9.324  0.2392 -1.2878  0.7721
  147SAPE  C31216276   3.503   5.146   9.164  0.3978 -0.6086 -0.1232
  147SAPE  H12X16277   3.405   5.097   9.153  0.3526 -0.7451  0.8374
  147SAPE  H12Y16278   3.575   5.063   9.183 -0.9627 -2.2902 -2.1321
  147SAPE  C31316279   3.560   5.227   9.048 -0.8789 -0.3038 -0.4997
  147SAPE  H13X16280   3.523   5.332   9.051 -0.0416  0.0712 -2.5234
  147SAPE  H13Y16281   3.540   5.171   8.954 -2.2693 -0.3517 -0.1818
  147SAPE  C31416282   3.713   5.238   9.059 -0.6105  1.0126  0.3238
  147SAPE  H14X16283   3.751   5.134   9.073 -1.2742  0.5984 -0.8358
  147SAPE  H14Y16284   3.742   5.305   9.143 -1.0732  1.0005  0.4999
  147SAPE  C31516285   3.778   5.292   8.930  0.1808  0.3092  1.0128
  147SAPE  H15X16286   3.737   5.394   8.918  0.5432  0.2386 -0.9210
  147SAPE  H15Y16287   3.739   5.245   8.837 -0.1168  3.1504 -0.3456
  147SAPE  C31616288   3.927   5.300   8.936 -0.4273  0.4311  0.1687
  147SAPE  H16X16289   3.954   5.230   9.018  3.4383  0.4928 -0.9289
  147SAPE  H16Y16290   3.937   5.402   8.978  1.2507 -0.1070  1.1245
  147SAPE  C31716291   4.001   5.257   8.809  0.9266 -0.0594 -0.2361
  147SAPE  H17X16292   4.110   5.276   8.818  0.6502  0.3164  2.6551
  147SAPE  H17Y16293   3.966   5.322   8.726  2.2871 -2.5698 -2.8868
  147SAPE  C31816294   3.980   5.106   8.774 -0.0060  0.0999  0.4662
  147SAPE  H18X16295   3.876   5.075   8.749  0.2430 -1.4456  1.2355
  147SAPE  H18Y16296   4.003   5.035   8.857  1.5541  1.4734  1.2435
  147SAPE  H18Z16297   4.045   5.078   8.689  0.3419 -2.8427  1.6436
  148SAPE     N16298   4.945   1.400  10.386  0.2857 -0.0870  0.3036
  148SAPE   HN116299   4.927   1.400  10.284  0.0400  0.2032  0.3473
  148SAPE   HN216300   5.009   1.479  10.408  2.0629 -1.2333 -0.5891
  148SAPE   HN316301   4.975   1.312  10.433  0.2385 -0.6314 -0.6714
  148SAPE   C1216302   4.813   1.424  10.457  0.7692  0.8266  0.0484
  148SAPE  H12A16303   4.741   1.476  10.391 -0.2530  0.7760  1.1187
  148SAPE  H12B16304   4.829   1.502  10.534 -1.7263 -0.9129  2.4061
  148SAPE   C1116305   4.754   1.301  10.523  0.4695 -0.0153  0.1157
  148SAPE  H11A16306   4.662   1.332  10.576  0.2167 -0.1465 -0.2480
  148SAPE  H11B16307   4.828   1.267  10.600 -0.8703  0.9683  1.8655
  148SAPE     P16308   4.590   1.139  10.398 -0.3829  0.1117 -0.4417
  148SAPE   O1316309   4.550   1.075  10.529 -0.0789 -0.2226  0.0836
  148SAPE   O1416310   4.499   1.243  10.348 -0.2223 -0.2916  0.1608
  148SAPE   O1216311   4.737   1.200  10.425 -0.6954  0.0189  0.2067
  148SAPE   O1116312   4.617   1.027  10.292  0.3150  0.1381 -0.5600
  148SAPE    C116313   4.727   1.025  10.197 -0.7022  0.3032 -0.4898
  148SAPE    HA16314   4.792   1.113  10.216  0.4801 -0.8496  0.8622
  148SAPE    HB16315   4.791   0.938  10.222 -0.4807  0.5169 -0.3213
  148SAPE    C216316   4.681   0.994  10.054 -0.5619 -0.1853 -1.1248
  148SAPE    HS16317   4.766   0.994   9.983  0.1510  2.4870 -0.3253
  148SAPE   O2116318   4.576   1.080  10.007  0.1944  0.6832 -0.5599
  148SAPE   C2116319   4.625   1.195   9.968 -0.5417  0.7535  0.7305
  148SAPE   O2216320   4.741   1.237   9.957 -0.0039  0.0522 -0.6092
  148SAPE   C2216321   4.505   1.263   9.901  0.0840 -0.0070 -0.4041
  148SAPE   H2R16322   4.427   1.184   9.889  0.1778 -0.6910  3.0405
  148SAPE   H2S16323   4.471   1.339   9.974  1.5366  1.0366 -0.7952
  148SAPE    C316324   4.621   0.844  10.047 -0.3703 -0.1991  0.5512
  148SAPE    HX16325   4.513   0.844  10.072 -0.7063 -1.8312 -0.8048
  148SAPE    HY16326   4.679   0.781  10.118  0.8166 -0.0320 -0.2629
  148SAPE   O3116327   4.643   0.789   9.914 -0.3411  0.0067  0.1356
  148SAPE   C3116328   4.543   0.803   9.823 -0.2442 -0.2587 -0.7734
  148SAPE   O3216329   4.440   0.858   9.858 -0.1192  0.5220 -0.0352
  148SAPE   C3216330   4.573   0.758   9.682 -0.0747 -0.7232  0.5633
  148SAPE   H2X16331   4.563   0.648   9.665 -1.8436 -0.5361  0.3241
  148SAPE   H2Y16332   4.672   0.802   9.656 -1.1618  1.1972 -0.4092
  148SAPE   C2316333   4.528   1.332   9.765  0.2861 -0.0404  0.1343
  148SAPE   H3R16334   4.628   1.380   9.763 -0.0405  0.5514 -2.6105
  148SAPE   H3S16335   4.468   1.425   9.752 -0.0263 -0.3424 -0.6093
  148SAPE   C2416336   4.487   1.244   9.650  0.1850  0.3259  0.6190
  148SAPE   H4R16337   4.455   1.307   9.564 -0.2491 -0.1625  0.4256
  148SAPE   H4S16338   4.400   1.186   9.686 -0.2878  0.4026 -0.3937
  148SAPE   C2516339   4.600   1.159   9.604 -0.1785 -0.0786 -0.4351
  148SAPE   H5R16340   4.647   1.099   9.683  1.9677  2.5710  0.3789
  148SAPE   C2616341   4.644   1.147   9.475 -0.5669 -0.8759 -0.1534
  148SAPE   H6R16342   4.722   1.077   9.443  0.0760 -0.7259  1.0491
  148SAPE   C2716343   4.585   1.220   9.358 -0.1393 -0.0053  0.2164
  148SAPE   H7R16344   4.474   1.220   9.364 -0.2072  1.8989 -0.6783
  148SAPE   H7S16345   4.603   1.152   9.272 -1.1351 -0.2507  0.1990
  148SAPE   C2816346   4.628   1.358   9.315  0.4147 -0.1708 -0.1328
  148SAPE   H8R16347   4.606   1.440   9.386 -4.4060 -0.7401 -0.7833
  148SAPE   C2916348   4.666   1.392   9.193  0.4044  0.2678 -0.0172
  148SAPE   H9R16349   4.686   1.501   9.195  1.4137  0.1034 -0.7782
  148SAPE  C21016350   4.693   1.304   9.074 -0.5471  0.5680  0.2501
  148SAPE  H10R16351   4.729   1.206   9.113  1.7617  0.8126 -1.2265
  148SAPE  H10S16352   4.772   1.360   9.020  0.1353 -0.9134 -0.3154
  148SAPE  C21116353   4.572   1.270   8.989 -0.1689  0.0491 -0.3864
  148SAPE  H11R16354   4.473   1.296   9.030  0.6985  1.8325  0.6637
  148SAPE  C21216355   4.580   1.225   8.858  0.5182 -0.1786  0.1277
  148SAPE  H12R16356   4.488   1.214   8.800 -1.3525  2.7222  2.3905
  148SAPE  C21316357   4.709   1.188   8.785  0.0929  0.0060  0.0997
  148SAPE  H13R16358   4.674   1.135   8.694 -0.2805  0.5363 -0.0635
  148SAPE  H13S16359   4.759   1.122   8.860  1.2583  1.9116  1.0300
  148SAPE  C21416360   4.798   1.306   8.748  0.8041  0.2215  0.2639
  148SAPE  H14R16361   4.820   1.374   8.832 -1.0936  0.6625  0.4330
  148SAPE  C21516362   4.833   1.347   8.626 -0.1799  0.2548 -0.9664
  148SAPE  H15R16363   4.897   1.437   8.619  0.3312  0.0790  1.1384
  148SAPE  C21616364   4.783   1.288   8.498  0.0751 -0.1932  0.0706
  148SAPE  H16R16365   4.773   1.363   8.417  2.1939  0.7880  0.6907
  148SAPE  H16S16366   4.679   1.254   8.520  0.4806 -0.9635  0.8022
  148SAPE  C21716367   4.865   1.160   8.468  0.1261  0.3365 -0.6082
  148SAPE  H17R16368   4.822   1.098   8.386  1.5574 -1.1472 -0.2539
  148SAPE  H17S16369   4.859   1.096   8.559  0.8754 -0.8833 -1.4071
  148SAPE  C21816370   5.016   1.182   8.432  0.7505 -0.4909  0.0038
  148SAPE  H18R16371   5.065   1.085   8.411 -1.1626 -1.4085 -0.2264
  148SAPE  H18S16372   5.056   1.230   8.524 -1.6573 -0.8130  1.2657
  148SAPE  C21916373   5.029   1.277   8.309 -1.4371  0.3537 -0.6890
  148SAPE  H19R16374   5.137   1.303   8.297 -1.1612  0.9196  2.5417
  148SAPE  H19S16375   4.979   1.376   8.303  0.9504  1.8394  2.7626
  148SAPE  C22016376   4.999   1.200   8.178 -0.1505 -0.5380 -0.6314
  148SAPE  H20R16377   4.909   1.139   8.201 -1.0635  1.5756  1.5907
  148SAPE  H20S16378   5.083   1.137   8.140  1.5835  1.2555  0.1435
  148SAPE  H20T16379   4.961   1.276   8.106 -1.1864  1.4874  1.9849
  148SAPE   C3316380   4.474   0.820   9.578  0.2254  0.3245 -0.4675
  148SAPE   H3X16381   4.456   0.924   9.612 -1.1772 -0.1427  0.2224
  148SAPE   H3Y16382   4.373   0.778   9.596  1.4361 -1.6993  1.9232
  148SAPE   C3416383   4.514   0.809   9.435  0.1927  0.2927 -0.3470
  148SAPE   H4X16384   4.528   0.706   9.396 -1.6641  0.1386 -0.6280
  148SAPE   H4Y16385   4.612   0.860   9.419  0.0742  0.6554  0.0655
  148SAPE   C3516386   4.408   0.882   9.346 -0.2730  0.1667  0.2091
  148SAPE   H5X16387   4.419   0.992   9.353  0.6976  0.0293  0.7903
  148SAPE   H5Y16388   4.307   0.853   9.383 -1.0576  0.7365 -1.3919
  148SAPE   C3616389   4.423   0.834   9.200  0.4543 -0.3518 -0.3505
  148SAPE   H6X16390   4.343   0.887   9.144  2.8074  3.0714 -0.6191
  148SAPE   H6Y16391   4.398   0.726   9.204 -0.1529 -0.2875 -1.9481
  148SAPE   C3716392   4.570   0.869   9.151  0.0558 -0.6673 -0.3571
  148SAPE   H7X16393   4.626   0.778   9.183 -0.8893 -0.7053  1.2227
  148SAPE   H7Y16394   4.611   0.964   9.191 -1.9419  0.1400 -0.1840
  148SAPE   C3816395   4.574   0.897   9.001  0.1476  0.5720  0.5894
  148SAPE   H8X16396   4.678   0.917   8.968  1.9497 -4.7736  2.4519
  148SAPE   H8Y16397   4.522   0.990   8.972  2.1513  1.8355  0.9317
  148SAPE   C3916398   4.534   0.773   8.916  0.1070 -0.1374 -0.6916
  148SAPE   H9X16399   4.429   0.754   8.947 -0.2779  1.6972 -0.7752
  148SAPE   H9Y16400   4.585   0.684   8.957 -2.3827 -0.4552  1.8662
  148SAPE  C31016401   4.551   0.798   8.771 -0.6187  0.7975  0.2281
  148SAPE  H10X16402   4.658   0.823   8.756  0.0019 -1.9798 -0.1514
  148SAPE  H10Y16403   4.482   0.878   8.736  0.4951  0.5269 -2.7588
  148SAPE  C31116404   4.523   0.678   8.680  0.4622 -0.5066  0.1429
  148SAPE  H11X16405   4.433   0.621   8.714 -0.4499  0.4356 -0.6753
  148SAPE  H11Y16406   4.604   0.602   8.678 -1.5984 -2.7266 -1.0711
  148SAPE  C31216407   4.501   0.719   8.534  1.1896 -0.4393  0.3310
  148SAPE  H12X16408   4.591   0.773   8.496 -1.4866  4.3825  0.5170
  148SAPE  H12Y16409   4.419   0.794   8.541  0.3972 -0.9725 -2.5395
  148SAPE  C31316410   4.462   0.608   8.440 -0.2325 -0.1720  0.1093
  148SAPE  H13X16411   4.396   0.534   8.491  1.7961 -1.4529  0.9480
  148SAPE  H13Y16412   4.555   0.550   8.423 -0.1915 -0.5417  1.4637
  148SAPE  C31416413   4.388   0.656   8.315  0.3973 -0.0497 -0.5039
  148SAPE  H14X16414   4.443   0.738   8.265  0.3058  0.5818  0.4403
  148SAPE  H14Y16415   4.299   0.700   8.363  0.3370 -1.6247  0.8857
  148SAPE  C31516416   4.345   0.546   8.216  0.3415  0.3847  0.2303
  148SAPE  H15X16417   4.296   0.467   8.277  0.9146 -1.1427 -1.2845
  148SAPE  H15Y16418   4.431   0.508   8.157 -0.2433  0.5539 -0.7241
  148SAPE  C31616419   4.241   0.591   8.113 -0.4589  0.9566  0.4109
  148SAPE  H16X16420   4.279   0.682   8.062 -1.0560  1.3390  0.6439
  148SAPE  H16Y16421   4.149   0.624   8.167 -0.3363 -0.0082  1.2279
  148SAPE  C31716422   4.198   0.486   8.004  0.0428 -0.3782  0.3923
  148SAPE  H17X16423   4.284   0.460   7.938  1.2047  1.8973  0.9753
  148SAPE  H17Y16424   4.124   0.539   7.939 -0.2112  0.3123  1.2373
  148SAPE  C31816425   4.126   0.377   8.071 -0.2286 -0.3293 -0.2597
  148SAPE  H18X16426   4.181   0.324   8.152  1.0593  0.7730 -0.4106
  148SAPE  H18Y16427   4.111   0.291   8.002 -2.6500 -1.5516  1.6991
  148SAPE  H18Z16428   4.027   0.419   8.100  0.1024 -0.2233  0.7550
  149SAPE     N16429   6.354   3.271  11.007 -0.5656 -0.3426 -0.7455
  149SAPE   HN116430   6.452   3.259  11.038 -1.6783  1.1537  3.8203
  149SAPE   HN216431   6.343   3.365  10.964  1.5469  0.2780 -0.0136
  149SAPE   HN316432   6.304   3.270  11.099  0.8886 -0.5762  0.0586
  149SAPE   C1216433   6.311   3.159  10.923  0.2658 -0.4433  0.2279
  149SAPE  H12A16434   6.211   3.186  10.885 -0.0946 -0.4394  1.1549
  149SAPE  H12B16435   6.310   3.072  10.992  3.0995  0.8301  1.9696
  149SAPE   C1116436   6.412   3.120  10.809 -0.9556  0.7171 -0.3124
  149SAPE  H11A16437   6.407   3.203  10.736 -0.0881  0.9090 -0.1535
  149SAPE  H11B16438   6.386   3.030  10.748  2.2734 -1.3386  1.2000
  149SAPE     P16439   6.603   2.981  10.934  0.3671 -0.2270  0.5312
  149SAPE   O1316440   6.731   3.014  10.991 -0.0740 -0.0548  0.4545
  149SAPE   O1416441   6.504   2.923  11.026 -0.4580 -0.1616  0.6744
  149SAPE   O1216442   6.542   3.114  10.865 -0.0959 -0.7713 -0.1190
  149SAPE   O1116443   6.631   2.878  10.821 -0.5835 -0.2325 -0.1703
  149SAPE    C116444   6.743   2.901  10.728  0.0758 -0.0099  0.2404
  149SAPE    HA16445   6.789   3.002  10.724 -0.5610  0.2335 -1.2842
  149SAPE    HB16446   6.814   2.824  10.765  1.6278  1.9927  1.5450
  149SAPE    C216447   6.714   2.868  10.575 -0.5482 -0.3638 -0.7684
  149SAPE    HS16448   6.811   2.878  10.523 -0.0571  0.7218  0.3354
  149SAPE   O2116449   6.615   2.956  10.528 -0.3319 -0.0140  0.6094
  149SAPE   C2116450   6.655   3.073  10.492 -0.0143  0.6556 -0.0188
  149SAPE   O2216451   6.768   3.118  10.498  0.1976 -0.2185  0.4217
  149SAPE   C2216452   6.533   3.154  10.455 -0.1053 -0.4734  0.1963
  149SAPE   H2R16453   6.446   3.086  10.442 -0.8208  0.7059 -1.2864
  149SAPE   H2S16454   6.499   3.220  10.537 -4.4919 -1.5016 -0.7001
  149SAPE    C316455   6.669   2.719  10.552  0.4891  0.2603  0.1529
  149SAPE    HX16456   6.563   2.723  10.586  0.9729 -0.5309  1.8266
  149SAPE    HY16457   6.720   2.642  10.614  3.0751  1.8894  0.0739
  149SAPE   O3116458   6.687   2.685  10.411  0.1031 -0.6184 -0.2602
  149SAPE   C3116459   6.577   2.623  10.354  0.4182 -0.8513 -0.1340
  149SAPE   O3216460   6.479   2.588  10.413 -0.0347  0.6338  0.1488
  149SAPE   C3216461   6.610   2.607  10.207  0.1514  0.0262  0.0363
  149SAPE   H2X16462   6.718   2.597  10.183 -0.1704  0.0914 -1.5148
  149SAPE   H2Y16463   6.579   2.698  10.151 -0.2950  1.1064  2.0198
  149SAPE   C2316464   6.540   3.238  10.326  0.0831 -0.0321 -0.3971
  149SAPE   H3R16465   6.631   3.302  10.328 -0.6818  1.1776 -2.7874
  149SAPE   H3S16466   6.450   3.302  10.315  1.1344  1.4441 -0.5115
  149SAPE   C2416467   6.567   3.158  10.190  0.6229  0.6392  0.4972
  149SAPE   H4R16468   6.661   3.100  10.205  0.3995 -0.0395 -0.6955
  149SAPE   H4S16469   6.600   3.236  10.119  1.1471 -0.4667 -0.4882
  149SAPE   C2516470   6.449   3.068  10.144  0.4243  0.1867  0.0936
  149SAPE   H5R16471   6.361   3.064  10.210  0.7188  2.1208  0.6258
  149SAPE   C2616472   6.434   3.011  10.022 -0.4678  0.1379 -0.0124
  149SAPE   H6R16473   6.344   2.952  10.004  1.3103 -3.6126  2.6685
  149SAPE   C2716474   6.524   3.008   9.899 -0.6118  0.2008 -0.1749
  149SAPE   H7R16475   6.564   2.907   9.877 -0.8047  0.1859 -0.4530
  149SAPE   H7S16476   6.615   3.064   9.932  0.4216 -1.8217  0.4744
  149SAPE   C2816477   6.465   3.072   9.770 -0.7313  0.3299 -0.0054
  149SAPE   H8R16478   6.412   3.167   9.787  0.4804  1.0154 -0.0630
  149SAPE   C2916479   6.451   3.010   9.649  0.8150  0.1535  0.3201
  149SAPE   H9R16480   6.406   3.060   9.563 -0.2150  0.5509  1.0824
  149SAPE  C21016481   6.488   2.870   9.619  0.1533  0.1000 -0.4592
  149SAPE  H10R16482   6.408   2.834   9.551 -0.0947 -1.6690  0.7463
  149SAPE  H10S16483   6.477   2.807   9.710 -4.8109  1.3019 -0.0982
  149SAPE  C21116484   6.620   2.876   9.543  0.2182  0.5805 -0.2623
  149SAPE  H11R16485   6.700   2.932   9.592  0.1152  0.9689 -0.5401
  149SAPE  C21216486   6.632   2.817   9.423  0.0920 -1.0409  0.0121
  149SAPE  H12R16487   6.733   2.798   9.384  0.3438 -1.6889  0.9854
  149SAPE  C21316488   6.533   2.743   9.333 -0.4408  0.4903 -0.0136
  149SAPE  H13R16489   6.440   2.731   9.393  0.0973 -2.3396  0.3584
  149SAPE  H13S16490   6.580   2.644   9.314  3.0409  1.4227  3.1971
  149SAPE  C21416491   6.500   2.827   9.217  0.0004 -0.8347  0.3857
  149SAPE  H14R16492   6.463   2.927   9.243  0.3306 -0.3836 -0.8526
  149SAPE  C21516493   6.510   2.794   9.086  0.6672  0.4723  0.8028
  149SAPE  H15R16494   6.491   2.857   8.998 -1.0059 -2.3146 -0.8981
  149SAPE  C21616495   6.552   2.661   9.034 -0.6196  0.0245 -0.6579
  149SAPE  H16R16496   6.498   2.624   8.944  0.6927 -1.3821 -0.8812
  149SAPE  H16S16497   6.522   2.583   9.108 -1.7505  1.0624  0.0066
  149SAPE  C21716498   6.706   2.644   9.013 -0.2052  0.2219 -0.5229
  149SAPE  H17R16499   6.735   2.537   9.001 -1.1760 -0.1004  0.0183
  149SAPE  H17S16500   6.764   2.689   9.097  0.0449 -1.9597  0.4964
  149SAPE  C21816501   6.765   2.715   8.892 -0.2097 -0.2953  0.5697
  149SAPE  H18R16502   6.728   2.818   8.872 -1.5387 -1.2848 -2.3518
  149SAPE  H18S16503   6.738   2.648   8.808 -0.7469 -1.3921  1.6166
  149SAPE  C21916504   6.918   2.735   8.906 -0.3593  0.5148  0.4062
  149SAPE  H19R16505   6.951   2.764   9.008 -0.7984  1.6614  0.2220
  149SAPE  H19S16506   6.956   2.820   8.846  1.5201  1.1257  2.4009
  149SAPE  C22016507   7.009   2.614   8.867 -0.2250 -0.0218  0.3337
  149SAPE  H20R16508   6.979   2.526   8.927  1.5947 -0.0458  1.2509
  149SAPE  H20S16509   7.114   2.638   8.895  0.0574  1.9102 -2.1741
  149SAPE  H20T16510   7.020   2.589   8.759 -0.7671 -0.9463  0.4820
  149SAPE   C3316511   6.529   2.485  10.153 -0.5593 -0.2922  0.2114
  149SAPE   H3X16512   6.422   2.517  10.158 -0.4790 -0.2768  1.9629
  149SAPE   H3Y16513   6.533   2.404  10.228  2.0503 -1.2627 -0.9244
  149SAPE   C3416514   6.574   2.435  10.018  0.0625 -1.0541  1.6150
  149SAPE   H4X16515   6.497   2.364   9.983 -0.1627 -0.5476  1.0662
  149SAPE   H4Y16516   6.663   2.369  10.011  0.8333  0.0507  0.5729
  149SAPE   C3516517   6.588   2.552   9.921 -0.0276 -0.1126 -0.3241
  149SAPE   H5X16518   6.675   2.615   9.947 -0.1563  0.6770 -1.7317
  149SAPE   H5Y16519   6.497   2.615   9.930 -1.0414 -1.4988 -0.6067
  149SAPE   C3616520   6.597   2.511   9.772 -0.5418 -0.1001  0.2337
  149SAPE   H6X16521   6.694   2.465   9.744 -1.0325 -1.1722  0.2882
  149SAPE   H6Y16522   6.585   2.605   9.714  0.3798  0.4502  0.9095
  149SAPE   C3716523   6.483   2.422   9.724 -0.3616  0.5417  0.5846
  149SAPE   H7X16524   6.394   2.458   9.779 -0.5403 -0.4543  0.9570
  149SAPE   H7Y16525   6.500   2.318   9.760 -2.9091 -0.3859 -0.7695
  149SAPE   C3816526   6.473   2.427   9.572 -0.0654  0.8379  0.4022
  149SAPE   H8X16527   6.473   2.532   9.536  1.3238  0.2431 -1.4274
  149SAPE   H8Y16528   6.373   2.382   9.556 -0.9974  2.3477  1.8460
  149SAPE   C3916529   6.577   2.348   9.490 -0.2421 -0.0129 -0.2324
  149SAPE   H9X16530   6.608   2.252   9.535  0.4545  0.5603  0.5240
  149SAPE   H9Y16531   6.669   2.409   9.476  0.8023 -1.1171  1.6274
  149SAPE  C31016532   6.512   2.311   9.356 -0.3730 -0.4974  0.1136
  149SAPE  H10X16533   6.469   2.405   9.316  0.5667 -0.0189  0.2319
  149SAPE  H10Y16534   6.434   2.234   9.375  0.9481 -1.5544  1.3499
  149SAPE  C31116535   6.613   2.250   9.254 -0.5891 -0.2135 -0.2607
  149SAPE  H11X16536   6.665   2.166   9.306  1.4258  0.5257 -1.0184
  149SAPE  H11Y16537   6.693   2.322   9.229  0.7799 -1.8224 -0.6539
  149SAPE  C31216538   6.553   2.180   9.135 -0.2710  0.3221 -0.6091
  149SAPE  H12X16539   6.503   2.254   9.070  0.0203  1.4553  0.4505
  149SAPE  H12Y16540   6.475   2.112   9.176 -2.4316  1.1761 -3.1357
  149SAPE  C31316541   6.658   2.103   9.059  1.5206  0.4422  0.4518
  149SAPE  H13X16542   6.603   2.026   9.000  2.3955  0.4675 -0.4277
  149SAPE  H13Y16543   6.718   2.032   9.121  0.3355 -1.5576 -0.6265
  149SAPE  C31416544   6.742   2.194   8.973  0.0646  0.0848  0.8859
  149SAPE  H14X16545   6.794   2.279   9.022  1.2709 -0.5476  0.7526
  149SAPE  H14Y16546   6.683   2.254   8.901  0.8551 -0.1671  0.0085
  149SAPE  C31516547   6.857   2.114   8.904 -0.2040 -0.1870 -0.7365
  149SAPE  H15X16548   6.803   2.045   8.835  2.2261 -1.8550 -1.0497
  149SAPE  H15Y16549   6.921   2.053   8.971 -0.4210  1.5482  1.0815
  149SAPE  C31616550   6.946   2.213   8.828  0.4078  0.7046  0.5702
  149SAPE  H16X16551   6.991   2.286   8.898  0.7627  0.2920  0.7796
  149SAPE  H16Y16552   6.882   2.277   8.763 -0.7361 -0.2480  0.7340
  149SAPE  C31716553   7.056   2.141   8.758 -0.4392 -0.2443 -0.0292
  149SAPE  H17X16554   7.019   2.066   8.684 -0.4044 -0.2819 -0.0072
  149SAPE  H17Y16555   7.112   2.082   8.833 -0.3358  1.0573  0.9366
  149SAPE  C31816556   7.159   2.222   8.685  0.0062 -0.0905 -0.1565
  149SAPE  H18X16557   7.106   2.296   8.622 -0.4404 -0.0808  0.2252
  149SAPE  H18Y16558   7.213   2.166   8.605 -1.1047 -0.6422 -0.5356
  149SAPE  H18Z16559   7.221   2.276   8.759 -0.3269  0.9562 -0.6364
  150SAPE     N16560   1.421   2.552  10.764 -0.3913 -0.4075 -0.5920
  150SAPE   HN116561   1.519   2.524  10.782 -0.1590  2.2406  2.8643
  150SAPE   HN216562   1.376   2.477  10.707  1.0119 -1.0295 -0.8926
  150SAPE   HN316563   1.406   2.643  10.716 -3.4478  0.5178  1.9038
  150SAPE   C1216564   1.345   2.566  10.891 -0.0901  0.1972 -0.0902
  150SAPE  H12A16565   1.242   2.601  10.867  0.1102  0.2226 -0.9112
  150SAPE  H12B16566   1.381   2.658  10.942  2.0284  0.9845 -2.9246
  150SAPE   C1116567   1.368   2.449  10.987  0.1471  0.2694  0.4129
  150SAPE  H11A16568   1.315   2.462  11.084  1.6651 -2.4918  1.6815
  150SAPE  H11B16569   1.475   2.447  11.019  0.4862 -2.8173 -0.7627
  150SAPE     P16570   1.219   2.236  10.942 -0.3410  0.2039  0.5190
  150SAPE   O1316571   1.239   2.161  11.067 -0.1565 -0.5531 -0.6503
  150SAPE   O1416572   1.107   2.333  10.931  0.0485 -0.6907 -0.5509
  150SAPE   O1216573   1.344   2.324  10.919 -0.6341 -0.0414 -0.4048
  150SAPE   O1116574   1.227   2.137  10.816  0.5886 -0.6775  0.0623
  150SAPE    C116575   1.345   2.062  10.785  0.0852 -0.3030  0.0504
  150SAPE    HA16576   1.420   2.070  10.866 -0.4301 -0.0038  0.5007
  150SAPE    HB16577   1.312   1.956  10.773 -2.6544  0.4612  0.3945
  150SAPE    C216578   1.418   2.108  10.655  0.0340  0.4637 -0.1638
  150SAPE    HS16579   1.466   2.205  10.680  2.1565 -0.3784 -0.8663
  150SAPE   O2116580   1.315   2.125  10.554  0.0130  0.1020 -0.0652
  150SAPE   C2116581   1.267   2.257  10.548 -0.6107  1.2563 -0.2333
  150SAPE   O2216582   1.317   2.350  10.607  0.3783  0.1149 -0.1711
  150SAPE   C2216583   1.123   2.251  10.498  0.6047  0.0359  0.6934
  150SAPE   H2R16584   1.112   2.205  10.397 -2.1575  0.9212  0.5449
  150SAPE   H2S16585   1.066   2.175  10.555  0.7868 -0.1277  0.6564
  150SAPE    C316586   1.519   2.012  10.593 -0.2369  0.4970 -0.0019
  150SAPE    HX16587   1.474   1.911  10.582  1.4496 -0.6294  2.7992
  150SAPE    HY16588   1.602   1.990  10.664  1.0296  0.5621 -1.4200
  150SAPE   O3116589   1.580   2.064  10.472  0.4905  0.2507  0.5578
  150SAPE   C3116590   1.615   1.971  10.387  0.3835 -0.2490  0.2413
  150SAPE   O3216591   1.590   1.851  10.392  0.1081 -0.0859 -0.4302
  150SAPE   C3216592   1.686   2.046  10.270 -0.1263  0.2323 -0.5215
  150SAPE   H2X16593   1.778   2.098  10.305 -0.2773  0.7535 -0.8934
  150SAPE   H2Y16594   1.621   2.128  10.235  0.9732  1.3804  0.0939
  150SAPE   C2316595   1.051   2.387  10.484 -0.6762 -0.6964 -0.2480
  150SAPE   H3R16596   1.044   2.431  10.586 -1.7436  1.5866 -1.2555
  150SAPE   H3S16597   0.943   2.375  10.461 -0.0396 -2.3969 -2.4341
  150SAPE   C2416598   1.124   2.486  10.387 -1.0369  0.1410  0.5410
  150SAPE   H4R16599   1.231   2.502  10.412 -1.5058  3.4212  0.6435
  150SAPE   H4S16600   1.088   2.591  10.387  0.2102  0.5905 -0.8453
  150SAPE   C2516601   1.099   2.454  10.242  0.8570 -0.3324  0.2171
  150SAPE   H5R16602   1.004   2.497  10.207  2.1335  1.8999 -0.6522
  150SAPE   C2616603   1.174   2.382  10.149  0.2842 -0.1171 -0.1157
  150SAPE   H6R16604   1.140   2.383  10.044 -0.0992  2.5760 -0.0003
  150SAPE   C2716605   1.304   2.319  10.171  0.1636  0.3463  0.5087
  150SAPE   H7R16606   1.362   2.372  10.250  0.7205  0.9854 -0.3153
  150SAPE   H7S16607   1.370   2.324  10.081  1.6160 -1.2155  1.4575
  150SAPE   C2816608   1.286   2.174  10.210 -0.6703 -0.0330  0.5582
  150SAPE   H8R16609   1.323   2.161  10.312 -0.9159 -1.5674  0.4611
  150SAPE   C2916610   1.276   2.071  10.121 -0.3231  0.5222 -0.7672
  150SAPE   H9R16611   1.274   1.966  10.154  1.0563  1.8211  3.9106
  150SAPE  C21016612   1.259   2.084   9.971 -0.4517 -0.5380 -0.0179
  150SAPE  H10R16613   1.232   2.187   9.938 -1.5063 -1.1846 -1.1996
  150SAPE  H10S16614   1.171   2.019   9.951 -0.0223 -0.8409 -0.9686
  150SAPE  C21116615   1.366   2.020   9.890 -0.3824  0.3440 -0.3783
  150SAPE  H11R16616   1.375   1.916   9.926 -0.4726  0.0761 -1.1299
  150SAPE  C21216617   1.427   2.056   9.780 -0.2397  0.4190 -0.0979
  150SAPE  H12R16618   1.496   1.980   9.740  1.2798  1.4697  0.4748
  150SAPE  C21316619   1.424   2.179   9.698  0.0980  0.7405  1.0733
  150SAPE  H13R16620   1.366   2.253   9.757 -2.2073  0.8433 -1.2591
  150SAPE  H13S16621   1.366   2.160   9.606  0.6470 -1.3845  1.1396
  150SAPE  C21416622   1.562   2.233   9.662  0.2423  0.1812  0.0850
  150SAPE  H14R16623   1.645   2.162   9.669 -0.0035  0.0281  1.6155
  150SAPE  C21516624   1.593   2.358   9.633  0.3739 -0.1785  0.4040
  150SAPE  H15R16625   1.696   2.381   9.602 -0.3006  2.9348  0.3699
  150SAPE  C21616626   1.512   2.486   9.626  0.1139 -0.1807 -0.5512
  150SAPE  H16R16627   1.556   2.566   9.689 -0.3899 -1.9206  2.1117
  150SAPE  H16S16628   1.415   2.464   9.676  1.6425 -4.6135  0.7155
  150SAPE  C21716629   1.491   2.536   9.483 -0.0034  0.3463 -0.0380
  150SAPE  H17R16630   1.409   2.610   9.485  0.4815  0.8830  0.4304
  150SAPE  H17S16631   1.454   2.447   9.429  0.9705 -0.1922  0.1746
  150SAPE  C21816632   1.617   2.594   9.420  0.3222 -0.2295  0.2247
  150SAPE  H18R16633   1.691   2.515   9.397 -0.1451 -0.7016  0.3313
  150SAPE  H18S16634   1.669   2.678   9.470 -2.5472  1.8581 -0.1335
  150SAPE  C21916635   1.585   2.659   9.284 -0.2526 -0.1279  0.6395
  150SAPE  H19R16636   1.527   2.752   9.302 -2.8787 -1.9901  2.2985
  150SAPE  H19S16637   1.519   2.589   9.229 -0.5831 -0.3582  1.3198
  150SAPE  C22016638   1.710   2.686   9.193 -0.4392 -0.5720  0.6671
  150SAPE  H20R16639   1.738   2.587   9.151 -3.1626  0.1148 -2.9971
  150SAPE  H20S16640   1.788   2.731   9.257 -0.4971 -0.5441  0.7167
  150SAPE  H20T16641   1.682   2.751   9.108  0.9142 -0.4518  0.2884
  150SAPE   C3316642   1.726   1.953  10.160 -0.4250 -0.7802  0.6521
  150SAPE   H3X16643   1.642   1.903  10.107  0.3386  1.6909 -3.0471
  150SAPE   H3Y16644   1.800   1.881  10.201  1.8406  1.3023  0.3184
  150SAPE   C3416645   1.808   2.022  10.042 -0.1405  0.1480 -0.0037
  150SAPE   H4X16646   1.896   2.066  10.093  0.8488 -2.6033  0.7621
  150SAPE   H4Y16647   1.746   2.108  10.009  0.0572  1.0489  1.8824
  150SAPE   C3516648   1.838   1.933   9.925  0.7438  0.0510 -0.1178
  150SAPE   H5X16649   1.741   1.888   9.895  0.1937  1.4953 -0.5401
  150SAPE   H5Y16650   1.897   1.845   9.955  1.4368 -0.0802 -1.7915
  150SAPE   C3616651   1.904   1.989   9.799  0.5890  0.1415  0.5636
  150SAPE   H6X16652   2.000   2.036   9.827  1.0939 -0.8265  0.4959
  150SAPE   H6Y16653   1.846   2.071   9.752  1.9199  0.3217 -0.7828
  150SAPE   C3716654   1.922   1.876   9.692 -0.4278 -0.0457  1.0822
  150SAPE   H7X16655   1.834   1.809   9.686  1.7566 -3.0888  1.6681
  150SAPE   H7Y16656   2.003   1.806   9.721 -1.1388 -1.5653 -0.5104
  150SAPE   C3816657   1.950   1.925   9.545 -0.3021  0.4579 -0.0884
  150SAPE   H8X16658   1.985   1.832   9.495 -0.6462  1.5134 -2.3408
  150SAPE   H8Y16659   2.036   1.995   9.553 -0.3573  0.6133 -0.8762
  150SAPE   C3916660   1.825   1.988   9.492 -0.1395 -0.3766 -0.1207
  150SAPE   H9X16661   1.796   2.078   9.550  1.2408 -1.2315  1.9571
  150SAPE   H9Y16662   1.738   1.920   9.504 -0.2293 -0.6773 -2.1659
  150SAPE  C31016663   1.836   2.015   9.342 -0.2903 -0.0598 -0.7819
  150SAPE  H10X16664   1.826   1.917   9.290  0.1203 -1.7275  2.2201
  150SAPE  H10Y16665   1.929   2.067   9.308  0.3541 -0.2199  0.7158
  150SAPE  C31116666   1.718   2.116   9.300  0.7316  0.3197 -0.4650
  150SAPE  H11X16667   1.754   2.165   9.207  3.9269  1.3017  1.2038
  150SAPE  H11Y16668   1.713   2.191   9.382  1.8075 -0.3645  0.2543
  150SAPE  C31216669   1.579   2.046   9.302 -0.0722  0.6526 -0.2421
  150SAPE  H12X16670   1.564   2.000   9.402  0.7861  1.8774  0.4622
  150SAPE  H12Y16671   1.580   1.961   9.231  0.0076  3.7014 -4.1095
  150SAPE  C31316672   1.455   2.126   9.254 -0.0933  0.0360  0.4931
  150SAPE  H13X16673   1.459   2.215   9.320  0.9379  0.9614 -0.7966
  150SAPE  H13Y16674   1.362   2.072   9.282  0.5120 -1.0194  0.5196
  150SAPE  C31416675   1.448   2.190   9.107  0.4406 -0.1220 -0.6767
  150SAPE  H14X16676   1.448   2.109   9.031 -4.5370  0.0842 -1.0766
  150SAPE  H14Y16677   1.536   2.257   9.100  2.0942 -2.1887  0.0228
  150SAPE  C31516678   1.318   2.264   9.091  0.6040 -0.0444 -0.2096
  150SAPE  H15X16679   1.331   2.357   9.151  0.8484  0.1282 -0.5302
  150SAPE  H15Y16680   1.234   2.204   9.131  0.9102  0.0363  0.5615
  150SAPE  C31616681   1.276   2.300   8.946 -0.2926  0.3418  0.0633
  150SAPE  H16X16682   1.276   2.201   8.895  0.6660 -0.4933  1.6443
  150SAPE  H16Y16683   1.358   2.366   8.911 -0.3918  0.6560  0.4259
  150SAPE  C31716684   1.138   2.372   8.925  0.6404  0.1274 -0.2706
  150SAPE  H17X16685   1.144   2.471   8.974  2.0433 -0.2842  0.4014
  150SAPE  H17Y16686   1.055   2.310   8.966 -0.0879 -0.3771 -2.4002
  150SAPE  C31816687   1.101   2.380   8.775  0.8633 -1.1784  0.0011
  150SAPE  H18X16688   1.183   2.406   8.704  2.0659 -2.5435  0.8628
  150SAPE  H18Y16689   1.009   2.443   8.765  1.2581 -0.5913  0.0106
  150SAPE  H18Z16690   1.077   2.276   8.746  0.8157 -1.3447  0.6508
  151SAPE     N16691   6.087   6.208  10.572  0.5410 -0.4449 -0.0369
  151SAPE   HN116692   6.084   6.267  10.657 -2.9654 -1.2979  0.5386
  151SAPE   HN216693   6.002   6.151  10.591 -0.0207  0.5218  0.3715
  151SAPE   HN316694   6.175   6.154  10.560  1.2257  0.9256 -1.2586
  151SAPE   C1216695   6.062   6.290  10.454 -0.5447 -0.2883 -0.1857
  151SAPE  H12A16696   6.148   6.359  10.445 -0.8175  0.2392  1.1500
  151SAPE  H12B16697   5.967   6.341  10.482 -0.0828  1.2336 -1.3546
  151SAPE   C1116698   6.050   6.206  10.329  0.4017  0.7891  0.5472
  151SAPE  H11A16699   6.135   6.136  10.320 -0.9113 -0.8628  0.7887
  151SAPE  H11B16700   6.067   6.257  10.231  0.8546  1.2384  0.8603
  151SAPE     P16701   5.794   6.208  10.300 -0.0918  0.1673 -0.6031
  151SAPE   O1316702   5.729   6.232  10.426 -0.2642  0.4938  0.0315
  151SAPE   O1416703   5.821   6.329  10.224 -0.1632  0.0650  0.0879
  151SAPE   O1216704   5.930   6.128  10.321  0.4414 -0.0918 -0.2971
  151SAPE   O1116705   5.702   6.107  10.216  0.0715 -0.5234 -0.4848
  151SAPE    C116706   5.755   6.038  10.101  0.7531  0.3814 -0.2155
  151SAPE    HA16707   5.861   6.012  10.121  0.5925  0.1169  0.3134
  151SAPE    HB16708   5.713   5.936  10.090  1.6036 -0.0185  0.2150
  151SAPE    C216709   5.746   6.127   9.975 -0.0084 -0.1602 -0.3040
  151SAPE    HS16710   5.781   6.230  10.000  1.0302 -0.2401 -1.3673
  151SAPE   O2116711   5.612   6.116   9.924  0.5579 -0.6884 -0.5487
  151SAPE   C2116712   5.558   6.235   9.884  0.3456 -0.3199 -0.9390
  151SAPE   O2216713   5.607   6.344   9.907 -0.0077 -0.4256  0.0841
  151SAPE   C2216714   5.447   6.211   9.774  1.2105 -0.2769  0.1107
  151SAPE   H2R16715   5.438   6.300   9.708  0.1272  0.0121  0.6300
  151SAPE   H2S16716   5.474   6.130   9.704  0.5034 -1.6730  1.4293
  151SAPE    C316717   5.845   6.068   9.871 -0.0813  1.1553 -0.4087
  151SAPE    HX16718   5.814   5.962   9.856 -1.6533  1.1851  2.2353
  151SAPE    HY16719   5.944   6.077   9.920  0.1290  1.0361 -0.8148
  151SAPE   O3116720   5.833   6.134   9.746 -0.0377 -0.4128 -0.0381
  151SAPE   C3116721   5.900   6.246   9.738 -0.0946 -0.0208 -0.1102
  151SAPE   O3216722   5.946   6.309   9.834  0.3308 -0.2781 -0.5763
  151SAPE   C3216723   5.897   6.309   9.596  0.6393 -0.1446  0.9167
  151SAPE   H2X16724   5.962   6.246   9.532 -0.8369 -3.1359  2.2349
  151SAPE   H2Y16725   5.927   6.416   9.599 -0.1276  0.0822  0.5650
  151SAPE   C2316726   5.318   6.168   9.839 -0.0368  0.1195 -0.2113
  151SAPE   H3R16727   5.281   6.242   9.912 -1.6561 -0.1731 -0.7214
  151SAPE   H3S16728   5.344   6.074   9.892  1.6146 -0.5088 -2.0458
  151SAPE   C2416729   5.204   6.122   9.749  0.4775  0.5471 -0.1648
  151SAPE   H4R16730   5.132   6.069   9.816 -0.0545  2.5480  0.8836
  151SAPE   H4S16731   5.243   6.049   9.674  0.1704 -1.3447  1.4690
  151SAPE   C2516732   5.152   6.248   9.689  0.0690 -0.3158 -0.3350
  151SAPE   H5R16733   5.125   6.328   9.760 -0.9602 -1.4401  0.5607
  151SAPE   C2616734   5.164   6.284   9.558  0.2123 -0.2510 -0.6355
  151SAPE   H6R16735   5.122   6.380   9.524  1.2667  0.7167  0.7393
  151SAPE   C2716736   5.216   6.210   9.437 -0.0157 -0.0121 -0.1220
  151SAPE   H7R16737   5.275   6.126   9.479  0.4857 -0.5230 -1.8244
  151SAPE   H7S16738   5.290   6.277   9.389 -1.9430  0.6586 -2.2146
  151SAPE   C2816739   5.119   6.145   9.337  0.5120  0.2823 -0.4471
  151SAPE   H8R16740   5.028   6.107   9.386 -0.4291  2.7922 -0.1540
  151SAPE   C2916741   5.126   6.139   9.202  0.3287  0.1181  0.1515
  151SAPE   H9R16742   5.054   6.074   9.150  0.0332  0.9185 -0.4504
  151SAPE  C21016743   5.235   6.196   9.111 -0.4290 -0.8060 -0.3863
  151SAPE  H10R16744   5.230   6.148   9.011  0.6479 -2.6409  0.4266
  151SAPE  H10S16745   5.331   6.165   9.156 -0.4166 -2.1921 -1.3650
  151SAPE  C21116746   5.223   6.347   9.102 -0.2619  0.1577 -0.3426
  151SAPE  H11R16747   5.168   6.401   9.181  0.1539 -0.2708  0.2450
  151SAPE  C21216748   5.255   6.417   8.991 -0.0112  0.0244  0.1163
  151SAPE  H12R16749   5.228   6.523   8.990  0.0288  0.0537  1.3424
  151SAPE  C21316750   5.318   6.365   8.865 -0.5807  0.0991 -0.2918
  151SAPE  H13R16751   5.411   6.309   8.892  1.1186  1.9811 -2.0654
  151SAPE  H13S16752   5.360   6.447   8.803 -2.2021  0.9519 -0.2719
  151SAPE  C21416753   5.226   6.287   8.772 -0.3355  0.0647  0.1896
  151SAPE  H14R16754   5.129   6.252   8.811  0.5046 -2.7305 -0.1456
  151SAPE  C21516755   5.261   6.247   8.647 -1.2335 -0.2547  0.3131
  151SAPE  H15R16756   5.182   6.196   8.590 -1.4233 -0.2258  0.5457
  151SAPE  C21616757   5.385   6.276   8.571  0.3832  0.1167  0.1689
  151SAPE  H16R16758   5.458   6.324   8.641  1.4170  2.4753 -2.4465
  151SAPE  H16S16759   5.358   6.347   8.490  0.2019  1.5076  1.4123
  151SAPE  C21716760   5.442   6.147   8.503  0.9084  0.0832  0.1565
  151SAPE  H17R16761   5.361   6.104   8.440  1.1298 -1.3437  0.8249
  151SAPE  H17S16762   5.476   6.070   8.575 -0.8115 -0.5056  0.3699
  151SAPE  C21816763   5.554   6.171   8.398 -0.6247  0.2252  0.1125
  151SAPE  H18R16764   5.642   6.205   8.457  2.2439 -0.6385 -3.4571
  151SAPE  H18S16765   5.516   6.252   8.333 -0.1966  1.2009  1.0666
  151SAPE  C21916766   5.591   6.051   8.309  0.0892  0.1058  0.5817
  151SAPE  H19R16767   5.652   6.068   8.217 -0.9948 -2.7352 -0.7172
  151SAPE  H19S16768   5.500   6.000   8.270  1.9658 -1.1762 -2.2973
  151SAPE  C22016769   5.673   5.947   8.393  0.4187 -0.7552  0.5250
  151SAPE  H20R16770   5.603   5.890   8.458 -0.5790 -1.0033 -0.7250
  151SAPE  H20S16771   5.752   5.987   8.459  0.4906  1.4170 -0.8071
  151SAPE  H20T16772   5.720   5.877   8.320 -1.2911 -1.5251  0.1266
  151SAPE   C3316773   5.760   6.309   9.523 -0.6691 -0.2881  0.3214
  151SAPE   H3X16774   5.687   6.347   9.596 -1.3747 -2.7046  0.9197
  151SAPE   H3Y16775   5.726   6.205   9.505  0.8659 -0.7647  0.0317
  151SAPE   C3416776   5.751   6.394   9.387  0.1015  1.2782 -0.3721
  151SAPE   H4X16777   5.838   6.360   9.327  0.3743  1.8550 -0.3142
  151SAPE   H4Y16778   5.756   6.501   9.419 -2.3112  0.1450  4.1172
  151SAPE   C3516779   5.615   6.371   9.316 -0.3965  0.4402 -0.1325
  151SAPE   H5X16780   5.536   6.375   9.394 -0.1306 -1.1576  0.2455
  151SAPE   H5Y16781   5.607   6.268   9.275  1.7539  1.2140 -2.6126
  151SAPE   C3616782   5.583   6.471   9.205 -0.5558 -0.2291 -0.0512
  151SAPE   H6X16783   5.581   6.578   9.235 -2.1187 -0.3122  0.1730
  151SAPE   H6Y16784   5.477   6.444   9.185 -0.4288 -1.0437  0.3298
  151SAPE   C3716785   5.686   6.464   9.095 -0.0365 -1.4769  0.0089
  151SAPE   H7X16786   5.778   6.507   9.141  0.2483 -1.9472 -0.1198
  151SAPE   H7Y16787   5.670   6.540   9.015 -0.8199  1.7658  3.1088
  151SAPE   C3816788   5.716   6.326   9.033  0.2502 -1.2738 -0.3072
  151SAPE   H8X16789   5.618   6.280   9.010 -0.7223 -0.3659  1.9303
  151SAPE   H8Y16790   5.770   6.258   9.102 -0.4418 -2.0664 -0.5436
  151SAPE   C3916791   5.793   6.334   8.900 -0.9079 -0.5278 -0.1325
  151SAPE   H9X16792   5.895   6.372   8.921 -2.1225  2.9852 -0.3743
  151SAPE   H9Y16793   5.747   6.401   8.825  0.3085 -0.1239 -0.5282
  151SAPE  C31016794   5.813   6.192   8.847 -0.2038 -0.1830  1.0217
  151SAPE  H10X16795   5.720   6.133   8.830  0.2643 -0.6002 -0.1039
  151SAPE  H10Y16796   5.870   6.129   8.918  1.1055 -0.6641 -0.4351
  151SAPE  C31116797   5.887   6.189   8.709 -0.3409 -0.4389  0.4979
  151SAPE  H11X16798   5.840   6.243   8.624 -0.2662 -2.5776 -0.9484
  151SAPE  H11Y16799   5.899   6.082   8.682  0.8314 -0.3697  0.7540
  151SAPE  C31216800   6.033   6.242   8.725  0.0096 -0.0428 -0.6895
  151SAPE  H12X16801   6.070   6.234   8.830 -0.8876 -2.4155 -0.5190
  151SAPE  H12Y16802   6.030   6.351   8.702 -0.5910  0.6068  2.2194
  151SAPE  C31316803   6.122   6.164   8.639  0.3252 -0.1608 -0.1539
  151SAPE  H13X16804   6.100   6.168   8.531  1.1800 -1.0256 -0.3614
  151SAPE  H13Y16805   6.109   6.064   8.685 -0.8175  1.0036  2.1723
  151SAPE  C31416806   6.262   6.221   8.659  0.6341 -0.4871  0.5947
  151SAPE  H14X16807   6.281   6.254   8.763 -1.3589 -0.1469  0.8727
  151SAPE  H14Y16808   6.277   6.302   8.584  0.9969 -2.4781 -1.5378
  151SAPE  C31516809   6.373   6.108   8.636 -0.3645 -0.6186 -0.0999
  151SAPE  H15X16810   6.347   6.067   8.536  0.4504 -1.3691  0.0009
  151SAPE  H15Y16811   6.357   6.024   8.706 -0.9710 -0.2994  0.1504
  151SAPE  C31616812   6.512   6.172   8.648  0.4118 -0.0061  0.5241
  151SAPE  H16X16813   6.525   6.236   8.557  1.3498 -0.1847  0.5270
  151SAPE  H16Y16814   6.592   6.095   8.647 -0.1373 -0.5951  1.6035
  151SAPE  C31716815   6.542   6.263   8.773 -0.1971 -0.2433  0.2678
  151SAPE  H17X16816   6.491   6.227   8.866 -2.8655  1.8247 -0.3356
  151SAPE  H17Y16817   6.500   6.365   8.762 -0.7522 -0.7649 -2.7848
  151SAPE  C31816818   6.694   6.284   8.802  0.4154 -0.0666 -0.2765
  151SAPE  H18X16819   6.748   6.329   8.716 -0.5151 -1.3567 -1.5571
  151SAPE  H18Y16820   6.753   6.194   8.830 -0.7672 -1.6032 -2.5340
  151SAPE  H18Z16821   6.703   6.358   8.884 -3.3372 -0.7630  0.8354
  152SAPE     N16822   0.477   6.367  10.937 -0.0872 -0.8350 -1.1322
  152SAPE   HN116823   0.379   6.391  10.910 -0.7047 -0.2078  1.5787
  152SAPE   HN216824   0.494   6.269  10.967 -1.1913 -1.6137 -2.9291
  152SAPE   HN316825   0.483   6.425  11.023 -3.2039  0.1308 -1.4900
  152SAPE   C1216826   0.591   6.413  10.850 -0.0674  0.7943 -0.2067
  152SAPE  H12A16827   0.680   6.411  10.917 -0.4804 -4.2126  0.4076
  152SAPE  H12B16828   0.574   6.520  10.826  2.2314  0.7852 -2.0563
  152SAPE   C1116829   0.603   6.349  10.715 -0.2111  0.0759 -0.3479
  152SAPE  H11A16830   0.678   6.403  10.653 -0.2543  0.2681 -0.2325
  152SAPE  H11B16831   0.504   6.358  10.665 -0.6880 -1.0435  0.3623
  152SAPE     P16832   0.568   6.091  10.658 -0.3101  0.2589 -0.2557
  152SAPE   O1316833   0.660   5.981  10.634  0.3152 -0.1714  0.3677
  152SAPE   O1416834   0.445   6.053  10.726  0.0955  0.2398  0.3292
  152SAPE   O1216835   0.648   6.215  10.728  0.2031 -0.1522 -0.0458
  152SAPE   O1116836   0.529   6.142  10.516 -0.2588  0.3796 -0.8284
  152SAPE    C116837   0.630   6.166  10.417 -0.8339  0.5761 -0.4502
  152SAPE    HA16838   0.734   6.175  10.457  0.3925 -0.3106 -3.2749
  152SAPE    HB16839   0.626   6.080  10.346  1.6082  0.1363 -0.1250
  152SAPE    C216840   0.607   6.294  10.332  0.0070  0.8848 -0.6135
  152SAPE    HS16841   0.629   6.376  10.403  3.9076 -0.0118 -0.6856
  152SAPE   O2116842   0.474   6.292  10.290 -0.1433  0.5509  0.0941
  152SAPE   C2116843   0.435   6.405  10.241 -0.1640  0.2677 -0.6238
  152SAPE   O2216844   0.489   6.512  10.254 -0.7133  0.4551 -0.1473
  152SAPE   C2216845   0.294   6.385  10.179  0.0168  0.7060 -0.7506
  152SAPE   H2R16846   0.262   6.279  10.176  2.0493  0.0468  0.1018
  152SAPE   H2S16847   0.224   6.427  10.254  0.8728 -1.0012  1.0562
  152SAPE    C316848   0.706   6.299  10.209 -0.3225 -0.3499  0.3488
  152SAPE    HX16849   0.809   6.295  10.250  0.8382  1.4971 -2.2681
  152SAPE    HY16850   0.705   6.404  10.174  1.7267 -0.3040  0.3568
  152SAPE   O3116851   0.691   6.213  10.095  0.6081  0.3045  0.2895
  152SAPE   C3116852   0.766   6.113  10.069 -0.0719 -0.5259  0.1764
  152SAPE   O3216853   0.869   6.084  10.132  0.0646 -0.0131 -0.7603
  152SAPE   C3216854   0.715   6.054   9.933  0.3954 -0.2176 -0.7785
  152SAPE   H2X16855   0.745   6.131   9.859 -0.1390 -0.1061 -0.8825
  152SAPE   H2Y16856   0.604   6.060   9.936  0.5211  2.0815 -0.4407
  152SAPE   C2316857   0.284   6.450  10.040 -0.5216  1.0890 -0.1695
  152SAPE   H3R16858   0.294   6.560  10.054  1.0715  0.7068  1.9711
  152SAPE   H3S16859   0.188   6.433   9.987 -1.8782  0.4850  2.3731
  152SAPE   C2416860   0.401   6.413   9.943  0.0886 -0.4250 -0.2524
  152SAPE   H4R16861   0.423   6.307   9.967 -0.2370 -0.2725  0.7404
  152SAPE   H4S16862   0.483   6.478   9.983 -0.1576 -1.5556  2.1667
  152SAPE   C2516863   0.367   6.437   9.797 -0.2506  0.3641 -0.1202
  152SAPE   H5R16864   0.308   6.528   9.783 -1.3122 -0.2792  0.1178
  152SAPE   C2616865   0.400   6.345   9.704 -0.0836  0.4542  0.2455
  152SAPE   H6R16866   0.362   6.366   9.603  2.5901  0.8147 -0.7318
  152SAPE   C2716867   0.467   6.213   9.731 -0.6359 -0.4798  0.6881
  152SAPE   H7R16868   0.452   6.169   9.832 -0.0245 -0.1564  0.9218
  152SAPE   H7S16869   0.578   6.225   9.727 -0.6482  0.1283  1.9907
  152SAPE   C2816870   0.425   6.111   9.628  0.8404  0.6327  0.2340
  152SAPE   H8R16871   0.347   6.038   9.654  0.0173  0.7544 -1.7477
  152SAPE   C2916872   0.469   6.116   9.500 -0.0809 -0.3575 -0.1174
  152SAPE   H9R16873   0.441   6.025   9.445  0.9638 -1.0989  0.5604
  152SAPE  C21016874   0.570   6.207   9.437  0.2640 -0.1342  0.7468
  152SAPE  H10R16875   0.666   6.152   9.426  0.6029  0.7224 -0.6248
  152SAPE  H10S16876   0.590   6.292   9.505 -0.6978 -0.2934  1.2331
  152SAPE  C21116877   0.514   6.257   9.307  0.1217  0.5873  0.4027
  152SAPE  H11R16878   0.412   6.296   9.314  1.2646  4.1636 -1.4694
  152SAPE  C21216879   0.564   6.251   9.181  0.1682  0.2797 -0.3678
  152SAPE  H12R16880   0.492   6.278   9.102  0.1884 -2.8381 -1.5236
  152SAPE  C21316881   0.700   6.200   9.142 -0.0193  0.3775 -0.7767
  152SAPE  H13R16882   0.682   6.099   9.100  0.7253  0.2052 -0.6971
  152SAPE  H13S16883   0.765   6.177   9.229  1.4297 -0.5397 -2.0892
  152SAPE  C21416884   0.770   6.288   9.035 -0.8655 -0.3547  0.3574
  152SAPE  H14R16885   0.863   6.332   9.074  1.6478 -2.4611 -2.9973
  152SAPE  C21516886   0.736   6.309   8.909  0.0184 -0.0752 -0.6943
  152SAPE  H15R16887   0.792   6.385   8.853 -0.8177  2.6089  1.9792
  152SAPE  C21616888   0.616   6.235   8.839  0.5133 -0.7395 -0.3077
  152SAPE  H16R16889   0.556   6.179   8.913 -1.7108  0.0819 -1.4268
  152SAPE  H16S16890   0.650   6.151   8.774 -0.0307 -3.2406  2.5617
  152SAPE  C21716891   0.526   6.330   8.751  0.0923 -0.2504  0.2635
  152SAPE  H17R16892   0.497   6.414   8.818  0.7606 -0.4525  0.8102
  152SAPE  H17S16893   0.427   6.283   8.735 -0.3085 -0.4579  3.1955
  152SAPE  C21816894   0.584   6.369   8.612 -0.3010 -0.0111  0.4858
  152SAPE  H18R16895   0.694   6.374   8.625 -0.0465 -1.4832 -1.0998
  152SAPE  H18S16896   0.537   6.467   8.587 -1.4410 -0.7019 -0.1252
  152SAPE  C21916897   0.545   6.276   8.496 -1.2561  0.2184  0.8084
  152SAPE  H19R16898   0.435   6.286   8.480 -1.5749  1.1970  3.4186
  152SAPE  H19S16899   0.564   6.170   8.523  0.0580  0.0897 -0.5543
  152SAPE  C22016900   0.632   6.315   8.377 -0.6122  0.2845 -0.2792
  152SAPE  H20R16901   0.722   6.250   8.386 -0.9891 -0.0560  1.1922
  152SAPE  H20S16902   0.670   6.416   8.402  1.0126 -1.3316  4.4936
  152SAPE  H20T16903   0.587   6.307   8.276  0.8437 -2.7875 -0.7564
  152SAPE   C3316904   0.775   5.914   9.907  0.3236 -0.4908 -0.4585
  152SAPE   H3X16905   0.761   5.862  10.004  2.4452 -0.4479 -0.0902
  152SAPE   H3Y16906   0.882   5.933   9.882  0.4392 -0.8390 -0.2314
  152SAPE   C3416907   0.712   5.830   9.799  0.7664  0.2426  0.0103
  152SAPE   H4X16908   0.609   5.800   9.829  1.1050 -1.2547 -0.2837
  152SAPE   H4Y16909   0.778   5.741   9.803  0.6667  0.1949  0.7209
  152SAPE   C3516910   0.708   5.887   9.657  0.1299 -0.0894 -0.2760
  152SAPE   H5X16911   0.811   5.930   9.653 -0.2915  1.1416  1.4378
  152SAPE   H5Y16912   0.641   5.974   9.640 -1.0183 -1.3922 -2.5386
  152SAPE   C3616913   0.685   5.782   9.547 -0.0698  0.6483 -0.2477
  152SAPE   H6X16914   0.577   5.759   9.550 -0.0397  0.5729  0.4738
  152SAPE   H6Y16915   0.738   5.687   9.571  0.4755  0.3677 -2.4925
  152SAPE   C3716916   0.723   5.822   9.400 -0.8960  0.1730 -0.0877
  152SAPE   H7X16917   0.828   5.859   9.398 -0.9927  0.4440 -0.1251
  152SAPE   H7Y16918   0.657   5.908   9.378 -0.2177  0.8848  0.6042
  152SAPE   C3816919   0.703   5.696   9.307  0.6144  0.2674  0.2136
  152SAPE   H8X16920   0.600   5.654   9.316 -1.1249  4.0423 -0.9873
  152SAPE   H8Y16921   0.766   5.614   9.349 -3.2509 -1.5093  2.9117
  152SAPE   C3916922   0.748   5.730   9.166  0.2654  0.1518  0.1393
  152SAPE   H9X16923   0.854   5.701   9.150  0.5970  0.2168  2.1407
  152SAPE   H9Y16924   0.737   5.840   9.160  0.8106  0.2011  0.0381
  152SAPE  C31016925   0.653   5.667   9.063 -0.1688 -0.9443 -0.3282
  152SAPE  H10X16926   0.562   5.731   9.053  2.0001  2.8565  2.7537
  152SAPE  H10Y16927   0.619   5.569   9.103 -0.6582 -0.5588  0.2187
  152SAPE  C31116928   0.709   5.636   8.924  0.6170 -0.7167 -0.1539
  152SAPE  H11X16929   0.648   5.579   8.852  0.1718 -2.0984  1.2922
  152SAPE  H11Y16930   0.797   5.570   8.938 -0.8061 -2.5775  0.0949
  152SAPE  C31216931   0.752   5.769   8.851  0.7341 -0.2065 -1.0841
  152SAPE  H12X16932   0.831   5.820   8.910  0.5745 -1.0040 -0.1662
  152SAPE  H12Y16933   0.673   5.842   8.824  1.5399  1.0259 -0.1859
  152SAPE  C31316934   0.813   5.745   8.715  0.4719 -0.0690  0.6460
  152SAPE  H13X16935   0.740   5.676   8.668  0.1261 -0.3489  1.5797
  152SAPE  H13Y16936   0.907   5.687   8.723  0.7149  0.2780  0.3132
  152SAPE  C31416937   0.837   5.862   8.627 -0.3446 -0.6541  0.2597
  152SAPE  H14X16938   0.887   5.944   8.682  0.2442 -0.5501 -0.4258
  152SAPE  H14Y16939   0.738   5.902   8.595  0.3949  0.2276 -0.9724
  152SAPE  C31516940   0.929   5.835   8.504 -0.5155 -0.1687  0.6572
  152SAPE  H15X16941   0.884   5.747   8.454 -0.9919 -0.3224  1.3567
  152SAPE  H15Y16942   1.025   5.799   8.546 -0.2802 -1.0497 -0.5861
  152SAPE  C31616943   0.954   5.954   8.406  0.5798 -0.6305  0.2938
  152SAPE  H16X16944   1.016   6.033   8.452 -1.6594 -0.2852  2.8023
  152SAPE  H16Y16945   0.852   5.997   8.397  1.6395  2.1636  0.9507
  152SAPE  C31716946   1.016   5.920   8.276 -0.4192 -0.1529 -0.2156
  152SAPE  H17X16947   1.118   5.883   8.297 -0.0150  1.7120  1.2553
  152SAPE  H17Y16948   1.020   6.016   8.220 -0.6110 -1.4826 -2.5482
  152SAPE  C31816949   0.936   5.817   8.191 -0.0425 -0.5527 -0.7033
  152SAPE  H18X16950   0.980   5.719   8.219  1.3495  0.2353 -0.0615
  152SAPE  H18Y16951   0.950   5.839   8.083  3.3728  0.3749 -0.1600
  152SAPE  H18Z16952   0.829   5.822   8.220 -0.5490 -0.8048 -2.4404
  153SAPE     N16953   0.866   0.334  10.477  0.0848  0.0637 -0.2116
  153SAPE   HN116954   0.849   0.248  10.422 -0.9773  1.5087 -2.2262
  153SAPE   HN216955   0.967   0.360  10.472  0.3204 -1.2768 -3.4597
  153SAPE   HN316956   0.852   0.316  10.579  0.7457 -0.8514 -0.2816
  153SAPE   C1216957   0.773   0.438  10.424  0.2069  0.0414  0.3759
  153SAPE  H12A16958   0.768   0.420  10.314 -2.1322  2.0522  0.1122
  153SAPE  H12B16959   0.827   0.535  10.437  1.3401 -0.7451  1.7158
  153SAPE   C1116960   0.637   0.447  10.484 -0.2860  0.4388 -0.2227
  153SAPE  H11A16961   0.586   0.535  10.439  1.0957 -0.5782 -3.9316
  153SAPE  H11B16962   0.634   0.460  10.595 -1.6936 -0.0934 -0.1866
  153SAPE     P16963   0.501   0.237  10.563  0.1366  0.4777  0.1940
  153SAPE   O1316964   0.608   0.202  10.661 -0.2524  0.6332 -0.2241
  153SAPE   O1416965   0.388   0.313  10.620  0.0654 -0.6425  0.5777
  153SAPE   O1216966   0.559   0.334  10.448  0.0343 -0.3259  0.1421
  153SAPE   O1116967   0.451   0.109  10.490  0.6369  0.2393 -0.0767
  153SAPE    C116968   0.483   0.073  10.360  0.5016 -0.3839 -0.3106
  153SAPE    HA16969   0.593   0.084  10.347  0.2620  2.1317 -0.4299
  153SAPE    HB16970   0.468  -0.037  10.352  0.3977 -0.2558 -1.9565
  153SAPE    C216971   0.400   0.147  10.255  0.2814  0.4654 -0.2860
  153SAPE    HS16972   0.448   0.246  10.242  0.2059  0.5213 -0.1411
  153SAPE   O2116973   0.258   0.160  10.290 -0.2941  0.3482 -0.1917
  153SAPE   C2116974   0.203   0.281  10.286 -1.1271 -0.2255 -0.2154
  153SAPE   O2216975   0.267   0.378  10.264 -0.3536  0.5934 -0.1356
  153SAPE   C2216976   0.053   0.270  10.310  0.3899  0.2958 -0.4240
  153SAPE   H2R16977   0.007   0.211  10.228  1.0568 -0.2011 -0.4458
  153SAPE   H2S16978   0.034   0.218  10.406 -2.1540  1.2483 -0.3849
  153SAPE    C316979   0.404   0.067  10.121 -0.3010 -0.2552  0.0044
  153SAPE    HX16980   0.348  -0.028  10.135 -0.3601 -0.4040 -1.2334
  153SAPE    HY16981   0.510   0.045  10.099  0.5373  1.3176  2.2703
  153SAPE   O3116982   0.342   0.148  10.017  0.3965  0.0636 -0.0694
  153SAPE   C3116983   0.428   0.228   9.953 -0.2662 -0.6076  0.6818
  153SAPE   O3216984   0.540   0.259  10.000  0.8109 -0.2434 -0.2992
  153SAPE   C3216985   0.384   0.266   9.814 -0.2693 -0.0191 -0.2638
  153SAPE   H2X16986   0.381   0.377   9.817  2.1511  0.0829 -1.1034
  153SAPE   H2Y16987   0.281   0.234   9.787 -0.5249  1.1297 -0.6940
  153SAPE   C2316988  -0.019   0.398  10.333 -0.2296 -0.4847  0.5148
  153SAPE   H3R16989   0.032   0.463  10.407 -3.5099  3.9095 -0.9011
  153SAPE   H3S16990  -0.115   0.371  10.380  0.3775 -1.3589  1.2820
  153SAPE   C2416991  -0.041   0.482  10.207  0.3410  0.0825 -0.6135
  153SAPE   H4R16992   0.054   0.521  10.166  0.8286 -0.7471 -0.2925
  153SAPE   H4S16993  -0.104   0.571  10.223  0.9543  0.1871  1.3542
  153SAPE   C2516994  -0.123   0.409  10.102 -0.3385  0.4194 -0.4298
  153SAPE   H5R16995  -0.225   0.390  10.138 -0.1048 -0.2787 -0.1353
  153SAPE   C2616996  -0.084   0.367   9.988 -0.4292 -0.3487  0.3415
  153SAPE   H6R16997  -0.161   0.314   9.929  0.8875 -0.9646 -0.8609
  153SAPE   C2716998   0.056   0.372   9.927 -0.6641  0.0346  0.0385
  153SAPE   H7R16999   0.073   0.266   9.898  2.0947  0.2525  0.7425
  153SAPE   H7S17000   0.134   0.390  10.004  0.9486 -1.7041 -1.1511
  153SAPE   C2817001   0.067   0.469   9.820  1.0856 -0.1626  0.2504
  153SAPE   H8R17002   0.078   0.575   9.851 -0.5369  0.1420 -0.1564
  153SAPE   C2917003   0.076   0.440   9.690  0.0537 -1.0439 -0.4715
  153SAPE   H9R17004   0.071   0.530   9.626 -0.7924 -0.1619  0.8107
  153SAPE  C21017005   0.065   0.312   9.616  0.5711 -0.2836  0.2177
  153SAPE  H10R17006   0.019   0.235   9.681  0.0730  1.3562  1.8425
  153SAPE  H10S17007   0.170   0.278   9.608  0.2555 -1.2878  0.2773
  153SAPE  C21117008  -0.007   0.319   9.483 -0.3605  0.0952  0.2174
  153SAPE  H11R17009  -0.115   0.340   9.486 -0.3276  0.5734 -1.6360
  153SAPE  C21217010   0.041   0.298   9.363 -0.5223 -0.6377  0.3420
  153SAPE  H12R17011  -0.034   0.304   9.283  1.8489 -1.5751 -2.0323
  153SAPE  C21317012   0.190   0.275   9.330  0.0056 -0.3507  0.2803
  153SAPE  H13R17013   0.242   0.268   9.428  0.3299 -1.2737  0.0536
  153SAPE  H13S17014   0.228   0.370   9.287  0.7156 -0.0542  1.5468
  153SAPE  C21417015   0.216   0.166   9.229 -0.6581 -0.7151 -0.9753
  153SAPE  H14R17016   0.161   0.072   9.250 -1.7228 -0.3388 -2.0216
  153SAPE  C21517017   0.299   0.167   9.125  0.4919  0.0486 -0.3165
  153SAPE  H15R17018   0.317   0.074   9.069 -2.1938  0.5533 -2.0995
  153SAPE  C21617019   0.385   0.285   9.085 -0.2876  0.2312 -0.5236
  153SAPE  H16R17020   0.486   0.245   9.061 -0.0894 -0.7416  1.8290
  153SAPE  H16S17021   0.397   0.351   9.174  2.8323 -2.1868  0.9342
  153SAPE  C21717022   0.344   0.348   8.951  0.3114  0.0363 -0.3621
  153SAPE  H17R17023   0.343   0.264   8.878 -1.7396 -2.5255  2.4683
  153SAPE  H17S17024   0.417   0.422   8.913 -2.7082  1.8137 -2.9983
  153SAPE  C21817025   0.206   0.424   8.933 -0.5704 -0.3045 -0.1153
  153SAPE  H18R17026   0.195   0.500   9.013  1.6260  1.6442 -1.5995
  153SAPE  H18S17027   0.126   0.353   8.963 -0.7805 -0.6444 -1.4187
  153SAPE  C21917028   0.185   0.498   8.799  0.2799  0.3011  0.6032
  153SAPE  H19R17029   0.203   0.416   8.726  3.3267  1.3513  0.1112
  153SAPE  H19S17030   0.268   0.569   8.785  0.3682  0.6359  2.6704
  153SAPE  C22017031   0.050   0.572   8.781 -0.4178  0.0170 -0.0859
  153SAPE  H20R17032   0.042   0.636   8.690  0.2308  1.3176  0.7550
  153SAPE  H20S17033   0.016   0.623   8.873 -0.3799  0.7340 -0.4657
  153SAPE  H20T17034  -0.034   0.499   8.775  1.2970 -2.0379  0.2986
  153SAPE   C3317035   0.478   0.215   9.701  0.2967 -0.2257  0.0483
  153SAPE   H3X17036   0.575   0.194   9.753  0.0508 -0.2553  0.5012
  153SAPE   H3Y17037   0.490   0.291   9.622  0.8243 -0.2290  0.1186
  153SAPE   C3417038   0.423   0.082   9.647 -0.5043  0.3279 -0.0420
  153SAPE   H4X17039   0.324   0.100   9.601 -1.9020  1.0851  3.1519
  153SAPE   H4Y17040   0.400   0.014   9.731  1.6154 -1.8866 -1.1619
  153SAPE   C3517041   0.511   0.016   9.537  0.2824 -0.4403 -0.4993
  153SAPE   H5X17042   0.608  -0.014   9.582  0.3076 -1.4577 -1.2249
  153SAPE   H5Y17043   0.537   0.090   9.458  1.5228 -0.6746 -0.3223
  153SAPE   C3617044   0.449  -0.116   9.480  0.4593 -0.2000  0.2521
  153SAPE   H6X17045   0.340  -0.108   9.461  0.4473 -0.6916  0.1136
  153SAPE   H6Y17046   0.457  -0.183   9.568 -0.5294 -0.8592 -0.1569
  153SAPE   C3717047   0.531  -0.177   9.367  0.1875  0.4668 -0.1674
  153SAPE   H7X17048   0.474  -0.264   9.329  2.8220 -1.7358  0.7224
  153SAPE   H7Y17049   0.624  -0.221   9.409 -0.7994 -2.1411 -0.6565
  153SAPE   C3817050   0.557  -0.097   9.240  0.1709  0.2024  0.1308
  153SAPE   H8X17051   0.611  -0.000   9.251 -2.8815  1.8132  1.7142
  153SAPE   H8Y17052   0.456  -0.074   9.200 -0.1917  0.0546  0.9523
  153SAPE   C3917053   0.635  -0.177   9.137  0.7908  0.5197 -0.6175
  153SAPE   H9X17054   0.582  -0.266   9.097  0.9647  0.0952  0.0877
  153SAPE   H9Y17055   0.725  -0.228   9.178 -0.9437 -1.2787  1.0231
  153SAPE  C31017056   0.697  -0.094   9.018 -0.2311 -0.2243  0.3256
  153SAPE  H10X17057   0.745  -0.176   8.960  0.2261  0.8584 -0.8508
  153SAPE  H10Y17058   0.769  -0.017   9.053 -0.1034  0.5820 -1.6567
  153SAPE  C31117059   0.596  -0.014   8.930 -0.3654  0.0945  0.5362
  153SAPE  H11X17060   0.557   0.077   8.980 -2.2089 -0.1793 -0.3585
  153SAPE  H11Y17061   0.496  -0.059   8.913 -0.5572  0.8179 -0.2804
  153SAPE  C31217062   0.668   0.039   8.804  0.8641  0.3130  0.1373
  153SAPE  H12X17063   0.707  -0.050   8.751  0.1793 -1.3393  2.3006
  153SAPE  H12Y17064   0.746   0.112   8.833 -0.2707  1.7163 -0.3083
  153SAPE  C31317065   0.579   0.126   8.708 -0.4462 -0.2823  0.0829
  153SAPE  H13X17066   0.645   0.180   8.638 -3.8939  1.8062 -1.7178
  153SAPE  H13Y17067   0.524   0.197   8.774  3.3814  2.2591  0.6551
  153SAPE  C31417068   0.456   0.057   8.636  0.5952  0.1973 -0.0034
  153SAPE  H14X17069   0.419  -0.021   8.706 -0.1964  1.1293  0.6363
  153SAPE  H14Y17070   0.499   0.015   8.543 -1.8347  3.1496 -2.5929
  153SAPE  C31517071   0.344   0.158   8.609 -1.1086  0.4774  0.7840
  153SAPE  H15X17072   0.393   0.257   8.606 -0.1573  0.0054  0.6440
  153SAPE  H15Y17073   0.282   0.166   8.701 -2.2286 -0.2342  0.1085
  153SAPE  C31617074   0.260   0.133   8.485 -0.7822 -0.5482  0.6023
  153SAPE  H16X17075   0.208   0.037   8.508  0.2432 -1.2497  0.0244
  153SAPE  H16Y17076   0.324   0.125   8.394 -2.3463  1.2018 -0.6976
  153SAPE  C31717077   0.161   0.252   8.464 -0.1291 -0.6320  0.1153
  153SAPE  H17X17078   0.219   0.338   8.423 -1.2933 -0.4196 -1.1073
  153SAPE  H17Y17079   0.116   0.290   8.558 -0.7606  0.7335 -0.7183
  153SAPE  C31817080   0.053   0.206   8.365 -0.1731  0.0796  0.1930
  153SAPE  H18X17081   0.095   0.186   8.264 -2.2965 -3.4539 -0.0863
  153SAPE  H18Y17082  -0.019   0.290   8.359  1.5927  1.6391  0.6308
  153SAPE  H18Z17083  -0.000   0.116   8.404 -2.3030  0.9293 -0.6430
  154SAPE     N17084   1.454   0.015  10.901  0.0448  0.2765 -0.8129
  154SAPE   HN117085   1.433  -0.086  10.888 -0.8849  0.5489 -1.4477
  154SAPE   HN217086   1.483   0.021  11.001  1.5041  2.1754 -1.3334
  154SAPE   HN317087   1.372   0.073  10.874  0.4666  0.9536 -0.6585
  154SAPE   C1217088   1.581   0.053  10.816  0.6502 -0.3203 -0.2557
  154SAPE  H12A17089   1.647  -0.036  10.827  0.9277 -0.4684 -2.8208
  154SAPE  H12B17090   1.621   0.152  10.846  1.6049 -0.6783 -0.3348
  154SAPE   C1117091   1.542   0.048  10.672  0.6950 -0.6786  0.2801
  154SAPE  H11A17092   1.514  -0.056  10.648  1.1505 -0.7480  0.0459
  154SAPE  H11B17093   1.625   0.079  10.606  0.4452  0.8153  0.6313
  154SAPE     P17094   1.421   0.276  10.595 -0.3084 -0.0879 -0.2204
  154SAPE   O1317095   1.296   0.343  10.643  0.2695  0.1570 -0.2345
  154SAPE   O1417096   1.547   0.343  10.638 -0.5734  0.3493  0.2299
  154SAPE   O1217097   1.428   0.130  10.645 -0.4762  0.1712 -0.4670
  154SAPE   O1117098   1.409   0.253  10.439  0.3097 -0.1097 -0.3996
  154SAPE    C117099   1.321   0.143  10.399 -0.2906 -1.0017 -0.7134
  154SAPE    HA17100   1.360   0.054  10.453 -0.5850  0.3842  1.8695
  154SAPE    HB17101   1.218   0.160  10.437 -0.1248 -2.3350  0.3701
  154SAPE    C217102   1.307   0.118  10.246  1.1529 -0.1462  0.5554
  154SAPE    HS17103   1.237   0.033  10.228  3.5379 -1.7994 -1.0996
  154SAPE   O2117104   1.437   0.078  10.186 -0.3113 -0.3843  0.0268
  154SAPE   C2117105   1.479  -0.035  10.241  0.4320  0.1452  0.6957
  154SAPE   O2217106   1.406  -0.118  10.294 -0.0563  0.6187  0.0365
  154SAPE   C2217107   1.628  -0.047  10.209 -0.8348 -0.4844  0.5591
  154SAPE   H2R17108   1.645  -0.020  10.103  2.1117 -2.1352  0.5574
  154SAPE   H2S17109   1.685   0.028  10.267 -0.2155 -0.6621  0.1783
  154SAPE    C317110   1.252   0.245  10.172  0.1618  0.4635  0.4873
  154SAPE    HX17111   1.341   0.312  10.174 -1.9486  3.3787  0.9088
  154SAPE    HY17112   1.177   0.294  10.238 -1.7441  1.2198 -2.1292
  154SAPE   O3117113   1.204   0.218  10.038  0.2335 -0.1341  0.1873
  154SAPE   C3117114   1.091   0.152  10.035 -0.2993  0.0009  0.2030
  154SAPE   O3217115   1.033   0.109  10.139 -0.5169 -0.6878  0.0077
  154SAPE   C3217116   1.058   0.129   9.886  0.0228 -1.0084  0.0494
  154SAPE   H2X17117   1.133   0.060   9.843  1.7019  1.4080 -1.0131
  154SAPE   H2Y17118   1.068   0.234   9.850 -0.4880 -0.5989  1.0480
  154SAPE   C2317119   1.683  -0.185  10.242  0.1121 -0.6663 -0.0309
  154SAPE   H3R17120   1.655  -0.216  10.345 -0.1759 -0.8620 -0.1667
  154SAPE   H3S17121   1.794  -0.185  10.248  0.0775 -1.7733  0.7880
  154SAPE   C2417122   1.649  -0.296  10.146 -0.3638 -0.1544 -0.1111
  154SAPE   H4R17123   1.539  -0.288  10.135 -0.1177  1.6819 -1.3841
  154SAPE   H4S17124   1.685  -0.384  10.204 -1.3642  1.0586  2.4215
  154SAPE   C2517125   1.725  -0.281  10.018  0.1245  0.1412  0.3503
  154SAPE   H5R17126   1.822  -0.332  10.019 -0.3296 -0.7227  0.9424
  154SAPE   C2617127   1.680  -0.230   9.905 -0.2561  0.0702  0.1970
  154SAPE   H6R17128   1.744  -0.229   9.815 -1.9728  0.8668 -1.0457
  154SAPE   C2717129   1.549  -0.159   9.880  0.2271  0.3132  0.1187
  154SAPE   H7R17130   1.580  -0.066   9.828  0.7200 -0.4976 -1.0489
  154SAPE   H7S17131   1.495  -0.121   9.970 -0.4520  0.3046 -0.2829
  154SAPE   C2817132   1.460  -0.253   9.804 -0.1425  0.3976 -1.1321
  154SAPE   H8R17133   1.406  -0.327   9.866 -0.7313  1.5690 -0.2288
  154SAPE   C2917134   1.439  -0.261   9.672 -0.0865 -0.4087 -0.0853
  154SAPE   H9R17135   1.373  -0.341   9.639  1.4600 -1.9448  0.4705
  154SAPE  C21017136   1.491  -0.179   9.555 -0.3058  0.2961 -0.2049
  154SAPE  H10R17137   1.529  -0.081   9.591 -0.4199  0.7396 -1.2971
  154SAPE  H10S17138   1.405  -0.171   9.485 -0.4216  0.6680 -0.0203
  154SAPE  C21117139   1.596  -0.252   9.472 -0.0154 -0.4633 -0.1987
  154SAPE  H11R17140   1.638  -0.348   9.505  0.5110 -0.0618  0.2951
  154SAPE  C21217141   1.636  -0.205   9.350  0.1222  0.0294 -0.3346
  154SAPE  H12R17142   1.698  -0.271   9.287  0.3805 -0.1422  0.0992
  154SAPE  C21317143   1.596  -0.081   9.275 -0.0601  0.0033 -0.7098
  154SAPE  H13R17144   1.495  -0.046   9.307  1.0995  2.7569  0.0618
  154SAPE  H13S17145   1.582  -0.096   9.165  1.5803 -3.0226 -0.5440
  154SAPE  C21417146   1.703   0.025   9.309  0.9118  0.1922 -0.8973
  154SAPE  H14R17147   1.746   0.019   9.410  1.4947  4.3173 -0.8131
  154SAPE  C21517148   1.770   0.112   9.230 -0.5233 -0.0820 -0.6144
  154SAPE  H15R17149   1.846   0.178   9.274  1.3127 -1.5710 -1.4940
  154SAPE  C21617150   1.750   0.128   9.083 -0.3544 -0.2844  0.1578
  154SAPE  H16R17151   1.734   0.236   9.063 -0.2583 -0.2539  0.2484
  154SAPE  H16S17152   1.673   0.059   9.042  0.2297 -1.3627  0.8548
  154SAPE  C21717153   1.875   0.080   9.005 -0.1532  0.2040  0.8761
  154SAPE  H17R17154   1.875  -0.028   8.980  0.3513  0.5333 -0.6032
  154SAPE  H17S17155   1.966   0.107   9.063  0.9662 -1.8024  0.1043
  154SAPE  C21817156   1.889   0.163   8.875  0.2332 -0.3886 -0.5184
  154SAPE  H18R17157   1.987   0.155   8.823  0.3298 -0.5431 -0.3174
  154SAPE  H18S17158   1.878   0.270   8.904 -2.4425 -0.4031 -1.3698
  154SAPE  C21917159   1.777   0.140   8.774 -1.2474  0.0925  0.1564
  154SAPE  H19R17160   1.676   0.142   8.821 -0.7238  1.5544  1.2887
  154SAPE  H19S17161   1.791   0.037   8.735  0.6140  0.3988 -0.0289
  154SAPE  C22017162   1.793   0.241   8.657  0.4204 -0.4068 -0.0627
  154SAPE  H20R17163   1.895   0.232   8.614  0.6178 -0.4828  0.4144
  154SAPE  H20S17164   1.795   0.345   8.695 -3.5439 -0.4557  0.5133
  154SAPE  H20T17165   1.701   0.237   8.594  0.2782  2.0622 -0.0355
  154SAPE   C3317166   0.906   0.092   9.856 -0.3615  0.5635 -0.1268
  154SAPE   H3X17167   0.849   0.171   9.911 -0.3198  0.9665 -0.6603
  154SAPE   H3Y17168   0.886  -0.003   9.909  1.4203 -0.1267 -0.6656
  154SAPE   C3417169   0.876   0.084   9.709 -0.2126 -0.1548 -0.2348
  154SAPE   H4X17170   0.791   0.012   9.707 -0.3497 -0.0705  1.5952
  154SAPE   H4Y17171   0.965   0.027   9.675  1.1397  1.0729  1.1751
  154SAPE   C3517172   0.849   0.212   9.629  0.3788 -1.0613 -0.9345
  154SAPE   H5X17173   0.936   0.280   9.639 -0.2502 -0.2669 -0.8929
  154SAPE   H5Y17174   0.764   0.272   9.666  0.3046 -0.1066 -2.6088
  154SAPE   C3617175   0.830   0.177   9.475 -0.3689 -0.4502 -0.1978
  154SAPE   H6X17176   0.756   0.094   9.470 -3.7885  2.4600  0.6342
  154SAPE   H6Y17177   0.930   0.152   9.433 -0.0638  0.6479 -0.1350
  154SAPE   C3717178   0.773   0.301   9.402 -0.3928  0.8016 -0.5124
  154SAPE   H7X17179   0.845   0.379   9.435 -0.1209  1.0104 -1.5503
  154SAPE   H7Y17180   0.668   0.314   9.436 -0.3025 -2.0180  1.0201
  154SAPE   C3817181   0.800   0.269   9.256  0.2668 -0.1999  0.3189
  154SAPE   H8X17182   0.740   0.177   9.237 -0.5882  0.1391  1.2887
  154SAPE   H8Y17183   0.902   0.230   9.235 -0.5341 -1.6452 -0.9977
  154SAPE   C3917184   0.739   0.367   9.161  0.5814  0.2061  0.5569
  154SAPE   H9X17185   0.654   0.422   9.206  1.1258  0.7595  0.9086
  154SAPE   H9Y17186   0.715   0.306   9.071 -2.2933  0.8291  0.8737
  154SAPE  C31017187   0.850   0.465   9.107  0.7054 -0.0980 -0.6874
  154SAPE  H10X17188   0.921   0.399   9.053 -0.4860 -0.5005 -1.7952
  154SAPE  H10Y17189   0.887   0.522   9.195 -0.2574 -0.0886 -0.2779
  154SAPE  C31117190   0.797   0.569   9.005 -0.2957 -0.1442  0.1444
  154SAPE  H11X17191   0.880   0.640   8.986 -2.6141  2.5499 -0.2765
  154SAPE  H11Y17192   0.711   0.629   9.044  0.3833  0.3754  0.8517
  154SAPE  C31217193   0.750   0.500   8.875  0.1325  0.2901  0.7689
  154SAPE  H12X17194   0.664   0.433   8.900  0.5276 -0.5161  0.0144
  154SAPE  H12Y17195   0.832   0.436   8.835 -0.5199 -1.5282  2.2294
  154SAPE  C31317196   0.708   0.607   8.773 -0.0566 -0.3517  0.0064
  154SAPE  H13X17197   0.798   0.668   8.750 -0.9449  1.1156  0.3669
  154SAPE  H13Y17198   0.640   0.671   8.833  3.1160  2.3957  0.7570
  154SAPE  C31417199   0.637   0.547   8.647  0.4884 -0.6960 -0.6096
  154SAPE  H14X17200   0.572   0.631   8.614  0.0746 -0.6094  0.3975
  154SAPE  H14Y17201   0.559   0.471   8.670 -2.1775  2.5174  1.4212
  154SAPE  C31517202   0.728   0.525   8.525 -0.6316 -1.1313  0.3895
  154SAPE  H15X17203   0.800   0.610   8.524 -1.5797 -0.3225  0.4787
  154SAPE  H15Y17204   0.672   0.542   8.430  0.1535 -0.1519  0.0873
  154SAPE  C31617205   0.808   0.395   8.523 -0.2750 -0.4749 -0.3749
  154SAPE  H16X17206   0.737   0.311   8.509 -1.2010  0.0593  1.0160
  154SAPE  H16Y17207   0.857   0.381   8.623 -1.3587 -1.5284  0.0192
  154SAPE  C31717208   0.905   0.373   8.407 -0.7243 -0.5362 -0.4869
  154SAPE  H17X17209   0.948   0.271   8.420  1.2104 -0.0342 -2.5767
  154SAPE  H17Y17210   0.985   0.450   8.413 -1.4008  0.0728  0.8021
  154SAPE  C31817211   0.831   0.367   8.268 -0.1547  0.4965 -0.6490
  154SAPE  H18X17212   0.915   0.386   8.198  0.5818 -0.7785 -0.1122
  154SAPE  H18Y17213   0.756   0.450   8.269  0.3057  0.9613 -2.4394
  154SAPE  H18Z17214   0.793   0.264   8.251 -1.7596  0.8473  0.6260
  155SAPE     N17215   1.714   1.209  11.132  0.3481 -0.2458 -0.2878
  155SAPE   HN117216   1.644   1.133  11.140  3.0932 -2.7891  0.6269
  155SAPE   HN217217   1.777   1.206  11.215 -1.8078 -0.2691  1.3873
  155SAPE   HN317218   1.671   1.303  11.132  2.9665  1.0256  2.3273
  155SAPE   C1217219   1.809   1.194  11.016  0.8393 -0.1079 -0.4131
  155SAPE  H12A17220   1.860   1.096  11.026  3.0468  0.7977 -2.0532
  155SAPE  H12B17221   1.892   1.267  11.032  1.8374 -0.9217 -1.6900
  155SAPE   C1117222   1.728   1.215  10.887 -0.9134  0.2534  0.1728
  155SAPE  H11A17223   1.793   1.236  10.800 -0.4609  0.3827  0.5399
  155SAPE  H11B17224   1.675   1.311  10.906 -0.1865  0.1914  2.8039
  155SAPE     P17225   1.530   1.109  10.755 -0.0249  0.1792 -0.0398
  155SAPE   O1317226   1.459   0.981  10.766  0.1914  0.1657 -0.6700
  155SAPE   O1417227   1.451   1.233  10.772  0.0273  0.1281  0.0547
  155SAPE   O1217228   1.643   1.105  10.867 -0.1610 -0.0499 -0.0996
  155SAPE   O1117229   1.613   1.105  10.620 -0.2036  0.2172 -0.6998
  155SAPE    C117230   1.726   1.009  10.612 -0.5233  0.1371  0.5890
  155SAPE    HA17231   1.803   1.035  10.686 -0.7955  1.2853  0.4756
  155SAPE    HB17232   1.686   0.905  10.609  0.8646 -0.3820 -0.5337
  155SAPE    C217233   1.792   1.038  10.477 -0.1786  0.4912 -0.0771
  155SAPE    HS17234   1.864   0.955  10.462 -1.0982 -0.2721 -0.3191
  155SAPE   O2117235   1.850   1.172  10.480  0.3547  0.3266  0.6367
  155SAPE   C2117236   1.981   1.176  10.495  0.3090 -0.4610 -0.1470
  155SAPE   O2217237   2.047   1.080  10.524 -0.2197 -0.1627  0.5056
  155SAPE   C2217238   2.030   1.322  10.490 -0.4962  0.0970  0.3264
  155SAPE   H2R17239   1.946   1.382  10.450  0.3993  1.5930  0.6543
  155SAPE   H2S17240   2.049   1.361  10.592  0.2253 -0.4878  0.4163
  155SAPE    C317241   1.687   1.028  10.366 -0.3585 -0.0988 -0.1313
  155SAPE    HX17242   1.611   1.108  10.383 -0.1685 -0.1194  0.8744
  155SAPE    HY17243   1.632   0.933  10.382 -0.2679 -0.5434 -2.3704
  155SAPE   O3117244   1.756   1.036  10.240 -0.2570  0.0681 -0.1294
  155SAPE   C3117245   1.674   1.061  10.139  0.4127 -0.3747  0.2063
  155SAPE   O3217246   1.553   1.067  10.146  0.3665 -0.6165 -0.6480
  155SAPE   C3217247   1.760   1.057  10.012  0.4839 -0.0136  0.1472
  155SAPE   H2X17248   1.796   0.953   9.997  0.3250  0.0150 -0.4147
  155SAPE   H2Y17249   1.852   1.120  10.014  0.4907  0.0460 -1.4478
  155SAPE   C2317250   2.154   1.336  10.391  0.1794  0.2665 -0.8285
  155SAPE   H3R17251   2.241   1.289  10.441 -1.2081 -0.7314  0.6964
  155SAPE   H3S17252   2.186   1.442  10.394 -0.5628  0.5639 -2.6235
  155SAPE   C2417253   2.131   1.295  10.253  0.4069 -0.2637  0.3931
  155SAPE   H4R17254   2.124   1.184  10.245 -1.0395 -0.2913  1.8915
  155SAPE   H4S17255   2.224   1.322  10.198  0.5019 -0.8638  0.2479
  155SAPE   C2517256   2.018   1.378  10.188 -0.0124  1.0121  0.5497
  155SAPE   H5R17257   1.923   1.370  10.241  0.7206 -0.0487  1.7118
  155SAPE   C2617258   2.025   1.461  10.071 -0.2093  0.1191 -1.0404
  155SAPE   H6R17259   1.931   1.514  10.047 -0.9664 -1.4028 -1.5260
  155SAPE   C2717260   2.139   1.501   9.978  0.3499 -0.0170 -0.3379
  155SAPE   H7R17261   2.221   1.537  10.043  3.1368 -1.9718 -2.6310
  155SAPE   H7S17262   2.105   1.594   9.928 -0.2060  0.0360  0.1239
  155SAPE   C2817263   2.191   1.384   9.894 -0.5986  0.9489 -0.8599
  155SAPE   H8R17264   2.244   1.302   9.944  0.1508  1.1529 -1.3074
  155SAPE   C2917265   2.181   1.378   9.761  0.7444  0.2875  0.0091
  155SAPE   H9R17266   2.231   1.293   9.712  2.9060  0.8797  1.1034
  155SAPE  C21017267   2.114   1.466   9.659  0.2323  0.2221  0.0419
  155SAPE  H10R17268   2.038   1.533   9.703 -3.0818 -2.1811 -1.7825
  155SAPE  H10S17269   2.051   1.404   9.592 -0.3913  0.6867  0.1956
  155SAPE  C21117270   2.208   1.551   9.582 -0.1335 -0.4509 -0.0481
  155SAPE  H11R17271   2.220   1.654   9.617 -0.1867 -0.0123 -1.3171
  155SAPE  C21217272   2.264   1.510   9.464  0.2733  0.1113 -0.4251
  155SAPE  H12R17273   2.317   1.581   9.398  2.1932  0.8186  1.8171
  155SAPE  C21317274   2.249   1.373   9.405  0.2165  0.8753 -0.2445
  155SAPE  H13R17275   2.211   1.297   9.476  3.7910 -0.0936  0.7141
  155SAPE  H13S17276   2.351   1.334   9.386 -0.1346 -0.4422  0.5429
  155SAPE  C21417277   2.150   1.380   9.288 -0.1856  0.0317 -0.7286
  155SAPE  H14R17278   2.043   1.372   9.315  0.4089 -1.8713  1.2137
  155SAPE  C21517279   2.180   1.371   9.159 -0.5454 -0.1845 -0.2850
  155SAPE  H15R17280   2.101   1.388   9.085  0.5322 -0.2347 -1.4628
  155SAPE  C21617281   2.312   1.360   9.097 -0.9634 -0.0296  0.2366
  155SAPE  H16R17282   2.395   1.340   9.169  1.4037  2.2448 -1.7618
  155SAPE  H16S17283   2.341   1.447   9.034 -1.2760 -0.1226 -0.0323
  155SAPE  C21717284   2.319   1.241   9.002  0.5441 -0.3461  0.3435
  155SAPE  H17R17285   2.289   1.152   9.061 -2.0310  1.3740  1.6987
  155SAPE  H17S17286   2.428   1.236   8.979  0.6653  1.4551  0.4564
  155SAPE  C21817287   2.236   1.256   8.867 -0.3614 -0.7912 -0.3815
  155SAPE  H18R17288   2.136   1.300   8.885 -0.7678 -1.4838 -0.8868
  155SAPE  H18S17289   2.233   1.155   8.820  1.2817 -1.3474  0.6713
  155SAPE  C21917290   2.304   1.352   8.771 -0.0952 -0.2451  0.4214
  155SAPE  H19R17291   2.402   1.309   8.744 -1.0346 -2.2658  0.1436
  155SAPE  H19S17292   2.327   1.448   8.822  0.9361 -0.0874 -0.3408
  155SAPE  C22017293   2.216   1.373   8.646 -0.0570 -1.0365  0.4277
  155SAPE  H20R17294   2.112   1.383   8.683 -1.0396  0.7235 -2.5839
  155SAPE  H20S17295   2.228   1.286   8.577  1.8308 -0.3964 -0.0934
  155SAPE  H20T17296   2.237   1.471   8.597 -0.5044 -0.4612  1.3795
  155SAPE   C3317297   1.680   1.090   9.883 -1.3100  0.5842 -0.0063
  155SAPE   H3X17298   1.635   1.192   9.884  0.7331  1.6149 -3.4606
  155SAPE   H3Y17299   1.595   1.019   9.872 -1.0463  0.0979  0.9892
  155SAPE   C3417300   1.783   1.076   9.771  0.2048  0.3002 -0.0910
  155SAPE   H4X17301   1.817   0.970   9.770  0.4937  0.3973 -1.3383
  155SAPE   H4Y17302   1.871   1.143   9.781  2.1775 -2.1106 -0.7743
  155SAPE   C3517303   1.717   1.084   9.634  0.8796  0.5851  0.0345
  155SAPE   H5X17304   1.668   1.182   9.616 -0.1901 -0.3992 -2.6123
  155SAPE   H5Y17305   1.637   1.007   9.630 -1.7749  3.2497 -0.1223
  155SAPE   C3617306   1.813   1.045   9.521 -0.3203 -0.1875 -0.0924
  155SAPE   H6X17307   1.853   0.942   9.534 -1.8751 -0.8050 -0.0603
  155SAPE   H6Y17308   1.901   1.113   9.525 -0.1654 -0.2794 -1.8096
  155SAPE   C3717309   1.756   1.050   9.378 -0.8188 -0.1335  0.1400
  155SAPE   H7X17310   1.697   1.144   9.366  0.8948  0.8534 -0.6928
  155SAPE   H7Y17311   1.670   0.980   9.369 -1.3603  0.2216  2.3662
  155SAPE   C3817312   1.857   1.021   9.263  0.4591  0.6908  0.4457
  155SAPE   H8X17313   1.906   0.930   9.305  0.2418  1.5884  2.7205
  155SAPE   H8Y17314   1.922   1.111   9.261 -1.3672  1.9895 -2.4123
  155SAPE   C3917315   1.788   0.993   9.126  0.1794  0.1584 -0.1721
  155SAPE   H9X17316   1.714   1.069   9.093  1.2292  0.0784 -2.8093
  155SAPE   H9Y17317   1.733   0.896   9.131 -0.7474  0.6463 -0.7679
  155SAPE  C31017318   1.880   1.000   9.003  0.0257  0.7143 -0.0682
  155SAPE  H10X17319   1.946   0.911   9.011 -0.7049  0.1732 -0.0042
  155SAPE  H10Y17320   1.948   1.086   9.023 -1.4466  1.7716  0.4294
  155SAPE  C31117321   1.815   1.011   8.867 -0.0223 -0.3487  0.3543
  155SAPE  H11X17322   1.896   1.005   8.791  0.4859  2.0039  0.6608
  155SAPE  H11Y17323   1.757   1.105   8.854 -1.6796 -1.5685 -1.4881
  155SAPE  C31217324   1.712   0.894   8.846 -0.6466 -1.3775  1.1215
  155SAPE  H12X17325   1.619   0.923   8.900 -1.3842 -1.9609  0.1882
  155SAPE  H12Y17326   1.755   0.795   8.871  1.5293 -0.5149  0.8799
  155SAPE  C31317327   1.676   0.878   8.695  0.4600 -0.2289 -0.1208
  155SAPE  H13X17328   1.690   0.974   8.641 -4.1738  0.2145 -0.6850
  155SAPE  H13Y17329   1.573   0.839   8.686  0.9805 -2.8088  3.6641
  155SAPE  C31417330   1.759   0.777   8.624 -0.0697  0.0444  0.1321
  155SAPE  H14X17331   1.765   0.691   8.694  2.6236  1.2654  1.4746
  155SAPE  H14Y17332   1.868   0.798   8.611 -0.2424  0.7909 -0.1143
  155SAPE  C31517333   1.715   0.745   8.484  0.5816 -0.5873 -0.5764
  155SAPE  H15X17334   1.736   0.832   8.418 -2.4808  0.6691 -0.0178
  155SAPE  H15Y17335   1.605   0.730   8.479  0.4669 -0.1485  0.5784
  155SAPE  C31617336   1.774   0.612   8.421  0.7816  0.3267  0.6333
  155SAPE  H16X17337   1.713   0.523   8.451  1.0619 -0.7445 -1.8615
  155SAPE  H16Y17338   1.880   0.601   8.452  0.4851  1.8177  2.2504
  155SAPE  C31717339   1.763   0.603   8.266  0.0635 -0.2520  0.1032
  155SAPE  H17X17340   1.808   0.693   8.221 -0.7876  0.3128  0.3704
  155SAPE  H17Y17341   1.659   0.591   8.230  0.9372 -2.5094 -1.8185
  155SAPE  C31817342   1.846   0.489   8.202 -1.1282 -0.9303 -0.5679
  155SAPE  H18X17343   1.840   0.495   8.091  0.2865 -0.3059 -0.6327
  155SAPE  H18Y17344   1.821   0.386   8.234 -0.7758 -0.4367  1.3683
  155SAPE  H18Z17345   1.950   0.507   8.238 -0.8884 -0.6828 -1.3635
  156SAPE     N17346   6.307   4.863  10.457  0.6461 -0.0147  0.1061
  156SAPE   HN117347   6.282   4.964  10.465  1.8951  0.1835  1.8290
  156SAPE   HN217348   6.238   4.812  10.399  0.1062  0.0872  0.6508
  156SAPE   HN317349   6.298   4.816  10.549 -0.3092 -3.7187 -1.7961
  156SAPE   C1217350   6.442   4.820  10.401  0.0003 -0.8381  0.4634
  156SAPE  H12A17351   6.453   4.859  10.298  0.4565 -1.4270  0.2863
  156SAPE  H12B17352   6.421   4.711  10.394  0.4392 -0.9732  1.1995
  156SAPE   C1117353   6.561   4.860  10.483 -0.3139  0.1867  0.0512
  156SAPE  H11A17354   6.656   4.820  10.440 -0.4816  1.1310 -1.2251
  156SAPE  H11B17355   6.553   4.824  10.588  1.3608 -2.0241 -0.5293
  156SAPE     P17356   6.688   5.081  10.518  0.6969  0.0864 -0.4492
  156SAPE   O1317357   6.654   5.221  10.551  0.0502  0.3913  0.3468
  156SAPE   O1417358   6.752   5.004  10.632  0.4036  0.1490  0.4530
  156SAPE   O1217359   6.569   4.997  10.477 -1.0995  0.1769 -0.0408
  156SAPE   O1117360   6.770   5.074  10.384 -0.3811  0.1087  1.0281
  156SAPE    C117361   6.804   5.196  10.313  0.1442 -0.6269  0.6366
  156SAPE    HA17362   6.837   5.270  10.390 -0.8149  0.7769 -0.2787
  156SAPE    HB17363   6.890   5.185  10.244 -0.2350  0.1135  0.0320
  156SAPE    C217364   6.705   5.252  10.213 -0.3672 -1.0298 -0.1627
  156SAPE    HS17365   6.616   5.292  10.268 -1.1017 -0.6853 -1.5865
  156SAPE   O2117366   6.667   5.149  10.121 -0.0280  0.2206  0.1769
  156SAPE   C2117367   6.551   5.169  10.058  0.2790 -0.7422 -1.0108
  156SAPE   O2217368   6.461   5.251  10.081 -0.3090 -0.2967 -0.5705
  156SAPE   C2217369   6.534   5.061   9.957 -0.3737  0.3093 -0.8020
  156SAPE   H2R17370   6.633   5.029   9.919 -0.8201 -3.2036  0.8229
  156SAPE   H2S17371   6.487   4.975  10.009 -3.0215  1.3574 -1.3684
  156SAPE    C317372   6.779   5.368  10.131 -0.1590  0.6814  0.3906
  156SAPE    HX17373   6.867   5.323  10.082 -0.4555 -1.5201  1.8335
  156SAPE    HY17374   6.813   5.439  10.209  1.5204  0.2483  0.0537
  156SAPE   O3117375   6.704   5.428  10.028  0.1001 -0.0038 -0.1504
  156SAPE   C3117376   6.606   5.520  10.068  0.0167 -0.0032 -0.2312
  156SAPE   O3217377   6.579   5.542  10.187  0.0830 -0.0523 -0.4634
  156SAPE   C3217378   6.530   5.584   9.958 -0.6462  0.4222  0.6184
  156SAPE   H2X17379   6.490   5.682   9.990 -0.1960  0.2994  1.5666
  156SAPE   H2Y17380   6.437   5.524   9.956  2.2515 -4.3475 -2.7977
  156SAPE   C2317381   6.440   5.102   9.840 -0.2828 -0.1858 -0.5326
  156SAPE   H3R17382   6.347   5.135   9.890 -0.2455  1.6528 -1.6153
  156SAPE   H3S17383   6.427   5.018   9.768  0.2087 -0.8665  0.1697
  156SAPE   C2417384   6.508   5.216   9.766 -0.3315 -0.4533 -0.3084
  156SAPE   H4R17385   6.510   5.311   9.825  1.3654 -2.6134  3.2584
  156SAPE   H4S17386   6.438   5.223   9.680 -1.3641  1.5312  0.6436
  156SAPE   C2517387   6.653   5.206   9.727 -0.2884  0.7905 -0.2059
  156SAPE   H5R17388   6.729   5.223   9.804 -2.1264  0.7231  1.6972
  156SAPE   C2617389   6.714   5.174   9.610  0.2076  0.1612 -0.8034
  156SAPE   H6R17390   6.824   5.164   9.613  0.1262 -1.0912 -1.3522
  156SAPE   C2717391   6.641   5.134   9.485  0.8093 -0.5484  0.3809
  156SAPE   H7R17392   6.680   5.194   9.399  1.1345  1.7362  2.0689
  156SAPE   H7S17393   6.533   5.160   9.487  1.0687  0.5045  0.9101
  156SAPE   C2817394   6.641   4.987   9.473  0.3534 -0.1621 -0.0838
  156SAPE   H8R17395   6.661   4.935   9.568 -2.6534 -2.4715 -0.6228
  156SAPE   C2917396   6.622   4.928   9.360  0.2441  0.7065 -0.1461
  156SAPE   H9R17397   6.613   4.819   9.355 -0.0153  0.7362 -0.3705
  156SAPE  C21017398   6.603   4.988   9.219  0.3071 -0.1140 -0.9993
  156SAPE  H10R17399   6.631   5.095   9.220 -2.2623  0.5984 -0.8398
  156SAPE  H10S17400   6.494   4.986   9.197  0.2664 -0.3561 -0.7730
  156SAPE  C21117401   6.669   4.909   9.104 -0.1703 -0.2308 -0.5728
  156SAPE  H11R17402   6.707   4.813   9.142 -3.0374 -1.2743 -0.2444
  156SAPE  C21217403   6.695   4.956   8.981 -0.3022  0.1548  0.8695
  156SAPE  H12R17404   6.765   4.898   8.920 -0.5482  0.6360  0.1277
  156SAPE  C21317405   6.663   5.089   8.925 -1.0859 -0.5797  0.4308
  156SAPE  H13R17406   6.744   5.158   8.955 -0.2928 -2.2358  2.2195
  156SAPE  H13S17407   6.568   5.121   8.971 -1.4172 -0.8412 -0.0602
  156SAPE  C21417408   6.653   5.099   8.774  0.4451  0.4641  0.0130
  156SAPE  H14R17409   6.551   5.122   8.739  1.5760  0.0627 -3.8156
  156SAPE  C21517410   6.752   5.080   8.684  0.0636 -0.3047  0.1600
  156SAPE  H15R17411   6.732   5.114   8.581 -0.1670  0.5610  0.4827
  156SAPE  C21617412   6.890   5.049   8.710  0.5135 -0.2545 -0.3812
  156SAPE  H16R17413   6.912   4.950   8.663  2.1736  0.1987 -0.6178
  156SAPE  H16S17414   6.911   5.008   8.811 -0.9511  1.8525  0.8060
  156SAPE  C21717415   7.009   5.147   8.682  0.3464 -0.7454 -0.2094
  156SAPE  H17R17416   6.991   5.253   8.711 -1.1202 -0.5195 -1.8332
  156SAPE  H17S17417   7.031   5.150   8.573 -0.5580 -0.6193 -0.3921
  156SAPE  C21817418   7.133   5.108   8.759 -0.3875 -0.1731  0.1348
  156SAPE  H18R17419   7.154   5.001   8.736 -1.9809 -0.0607 -1.9913
  156SAPE  H18S17420   7.110   5.109   8.867 -1.6890  1.5730 -0.1427
  156SAPE  C21917421   7.264   5.193   8.747  0.3667  0.1720  0.2109
  156SAPE  H19R17422   7.331   5.136   8.815  0.2611  1.1312  1.1299
  156SAPE  H19S17423   7.254   5.289   8.803 -0.1374 -0.1235  0.6282
  156SAPE  C22017424   7.308   5.212   8.609 -0.4669 -0.1039  0.3150
  156SAPE  H20R17425   7.240   5.269   8.540  1.0584  1.0794 -0.2426
  156SAPE  H20S17426   7.342   5.117   8.563  0.8717  0.5344 -0.0266
  156SAPE  H20T17427   7.404   5.265   8.620 -0.0690 -0.5270 -0.9983
  156SAPE   C3317428   6.601   5.588   9.823 -0.1661 -0.6727  0.0478
  156SAPE   H3X17429   6.666   5.500   9.804  1.5170  0.8304 -1.4449
  156SAPE   H3Y17430   6.665   5.679   9.820 -2.8559  1.2569 -0.5391
  156SAPE   C3417431   6.497   5.599   9.712 -0.6733  0.1156 -0.0977
  156SAPE   H4X17432   6.435   5.687   9.738 -0.6094 -0.3178  1.5781
  156SAPE   H4Y17433   6.435   5.507   9.706 -2.4347  1.2643  0.2983
  156SAPE   C3517434   6.558   5.597   9.568  0.4692 -0.1489 -0.0448
  156SAPE   H5X17435   6.603   5.495   9.577 -0.6777 -0.7866 -1.2533
  156SAPE   H5Y17436   6.631   5.680   9.565  0.8840 -0.5101  0.0007
  156SAPE   C3617437   6.459   5.596   9.457 -0.3397  0.3708  0.0960
  156SAPE   H6X17438   6.394   5.686   9.470  2.4978  2.2196  1.9831
  156SAPE   H6Y17439   6.388   5.512   9.468  0.5833 -0.5796 -1.1020
  156SAPE   C3717440   6.532   5.578   9.319 -0.6228  0.5570  0.6518
  156SAPE   H7X17441   6.632   5.535   9.339 -0.7540 -1.2453 -2.2828
  156SAPE   H7Y17442   6.547   5.675   9.267 -0.6075  0.3787  0.3228
  156SAPE   C3817443   6.445   5.494   9.228  0.4553  0.1768  0.4932
  156SAPE   H8X17444   6.341   5.534   9.230  0.0198 -0.9337 -0.1571
  156SAPE   H8Y17445   6.436   5.390   9.264 -0.2959  0.5038  1.2877
  156SAPE   C3917446   6.473   5.480   9.081  0.1942  0.1806 -1.2726
  156SAPE   H9X17447   6.571   5.429   9.078  0.1015 -0.0746 -0.1314
  156SAPE   H9Y17448   6.479   5.583   9.041 -0.3706 -0.2756 -2.5702
  156SAPE  C31017449   6.367   5.395   9.008  0.2251 -0.0138 -0.2735
  156SAPE  H10X17450   6.264   5.413   9.046  0.9512  1.3030  1.0726
  156SAPE  H10Y17451   6.385   5.289   9.037 -2.3590 -0.7365 -1.1283
  156SAPE  C31117452   6.378   5.402   8.854 -0.0453 -0.0415 -0.5231
  156SAPE  H11X17453   6.472   5.350   8.827  0.4252 -0.3195  1.5409
  156SAPE  H11Y17454   6.398   5.508   8.826  1.3906  0.1987  1.2861
  156SAPE  C31217455   6.261   5.331   8.785 -0.5175  0.8772  0.1493
  156SAPE  H12X17456   6.172   5.393   8.811  0.2774  2.0782  0.0735
  156SAPE  H12Y17457   6.261   5.232   8.834 -0.0648  0.4930 -0.6288
  156SAPE  C31317458   6.282   5.334   8.629 -0.3418  0.7821  0.5732
  156SAPE  H13X17459   6.363   5.261   8.607 -3.0125 -2.1458  0.1598
  156SAPE  H13Y17460   6.317   5.437   8.605  1.6303  0.2072  0.8906
  156SAPE  C31417461   6.166   5.285   8.545  0.5094 -0.4961  0.2477
  156SAPE  H14X17462   6.086   5.359   8.562  0.1404 -1.2268  1.7018
  156SAPE  H14Y17463   6.143   5.180   8.574  2.0705 -0.6451  1.0267
  156SAPE  C31517464   6.198   5.284   8.390  0.1788  0.3184 -0.0836
  156SAPE  H15X17465   6.303   5.248   8.382  0.1470  0.0764  0.5706
  156SAPE  H15Y17466   6.203   5.391   8.360 -2.3479  0.2863 -0.7420
  156SAPE  C31617467   6.103   5.193   8.304  0.1510  0.0906 -0.7881
  156SAPE  H16X17468   6.117   5.090   8.344 -3.1718 -0.0216  0.2299
  156SAPE  H16Y17469   6.142   5.213   8.201  0.8291 -1.3788 -0.8255
  156SAPE  C31717470   5.952   5.218   8.318 -1.0853 -0.0506  0.3432
  156SAPE  H17X17471   5.936   5.278   8.410 -0.6172  1.1007 -0.3271
  156SAPE  H17Y17472   5.893   5.124   8.317  0.1582 -0.8339 -1.0394
  156SAPE  C31817473   5.899   5.307   8.201 -0.2236  0.2313 -0.2306
  156SAPE  H18X17474   5.949   5.406   8.202 -0.3337  0.2818  2.6468
  156SAPE  H18Y17475   5.791   5.325   8.219 -0.4819 -2.1046  0.6054
  156SAPE  H18Z17476   5.908   5.248   8.107  0.0792  0.5975 -0.4350
  157SAPE     N17477   5.569   6.044  10.498 -0.1155  0.3451 -0.0522
  157SAPE   HN117478   5.653   6.104  10.488 -1.9532  3.0897  0.4242
  157SAPE   HN217479   5.488   6.092  10.455  0.4530  0.6660 -0.7562
  157SAPE   HN317480   5.533   6.038  10.596 -0.2177  3.3548  0.1249
  157SAPE   C1217481   5.579   5.894  10.456 -0.0385  0.2544  0.8237
  157SAPE  H12A17482   5.651   5.838  10.518  0.1731 -2.1278 -1.4903
  157SAPE  H12B17483   5.611   5.897  10.350  3.1464  2.9890  1.7878
  157SAPE   C1117484   5.446   5.815  10.472  0.0290  0.0136  0.6077
  157SAPE  H11A17485   5.456   5.712  10.431 -1.1692 -0.3384  1.1936
  157SAPE  H11B17486   5.369   5.858  10.405  0.3617 -2.0515 -1.1373
  157SAPE     P17487   5.303   5.906  10.677 -0.1275  0.1781  0.2783
  157SAPE   O1317488   5.293   5.870  10.823  1.0155  0.3246  0.2462
  157SAPE   O1417489   5.322   6.048  10.652  0.1925  0.4564 -0.3721
  157SAPE   O1217490   5.423   5.821  10.614 -0.2834 -0.4744 -0.2451
  157SAPE   O1117491   5.178   5.859  10.600  0.2284 -0.2721 -0.5562
  157SAPE    C117492   5.151   5.718  10.566 -0.6967  0.3779 -0.4632
  157SAPE    HA17493   5.231   5.648  10.599  0.5457  2.5616  1.2728
  157SAPE    HB17494   5.057   5.685  10.614 -0.1823 -2.0291 -1.0638
  157SAPE    C217495   5.122   5.705  10.415 -1.2980  0.3590  0.4574
  157SAPE    HS17496   5.212   5.727  10.354 -0.0868 -1.6820  1.4534
  157SAPE   O2117497   5.018   5.801  10.388 -0.8917  0.0815  0.4799
  157SAPE   C2117498   5.022   5.858  10.270 -0.3345 -0.3566 -0.5113
  157SAPE   O2217499   5.102   5.839  10.182 -0.2123 -0.3035 -0.0683
  157SAPE   C2217500   4.897   5.937  10.254  0.0016  0.0724  0.2236
  157SAPE   H2R17501   4.807   5.883  10.292 -0.0635  0.7648  1.0706
  157SAPE   H2S17502   4.903   6.026  10.320  1.0038  1.3814 -1.6180
  157SAPE    C317503   5.074   5.564  10.386  0.5771 -0.2886  0.4837
  157SAPE    HX17504   4.970   5.560  10.423  0.7100 -1.9082  0.7190
  157SAPE    HY17505   5.126   5.486  10.445 -0.3685 -0.4447  1.1189
  157SAPE   O3117506   5.073   5.547  10.242  0.3433  0.4486 -0.1759
  157SAPE   C3117507   5.178   5.492  10.194 -0.3280  0.1022  0.0596
  157SAPE   O3217508   5.270   5.445  10.263 -0.3803  0.1611 -0.4869
  157SAPE   C3217509   5.180   5.486  10.040 -0.0420 -0.7781 -0.0976
  157SAPE   H2X17510   5.286   5.462  10.018  0.7855  2.4382  0.0829
  157SAPE   H2Y17511   5.156   5.587   9.999 -1.6909 -1.5384 -1.0512
  157SAPE   C2317512   4.881   5.995  10.117  0.5654 -0.1834 -0.0314
  157SAPE   H3R17513   4.968   6.052  10.078  0.0130  0.2065 -0.7145
  157SAPE   H3S17514   4.804   6.074  10.135  0.0647 -0.2198 -1.8848
  157SAPE   C2417515   4.825   5.899  10.002  0.0179  0.7334 -0.1141
  157SAPE   H4R17516   4.795   5.969   9.921 -0.3001 -1.8499 -2.3006
  157SAPE   H4S17517   4.733   5.861  10.051 -0.3507  0.5379 -0.9421
  157SAPE   C2517518   4.918   5.789   9.951 -0.3530  0.6854  0.2529
  157SAPE   H5R17519   4.945   5.710  10.023  1.1647  0.9358 -0.0219
  157SAPE   C2617520   4.958   5.767   9.822  0.0269  1.0797 -0.2209
  157SAPE   H6R17521   5.022   5.679   9.806 -0.3628  0.0802  3.3423
  157SAPE   C2717522   4.924   5.856   9.701  0.7123  0.2449 -0.5754
  157SAPE   H7R17523   5.016   5.877   9.642  1.4632  0.7763  0.7368
  157SAPE   H7S17524   4.880   5.952   9.737 -2.3580 -1.5393  0.6388
  157SAPE   C2817525   4.823   5.785   9.616  0.0037 -0.7443  0.5078
  157SAPE   H8R17526   4.725   5.786   9.665 -1.3708  1.9123 -2.0802
  157SAPE   C2917527   4.831   5.759   9.483  0.0771 -0.1320  1.0311
  157SAPE   H9R17528   4.743   5.706   9.442 -1.3678  2.0009  1.2978
  157SAPE  C21017529   4.936   5.784   9.381  0.6595 -0.5250 -0.3172
  157SAPE  H10R17530   4.995   5.693   9.356  1.2550  0.0175 -0.9141
  157SAPE  H10S17531   5.009   5.859   9.418 -0.1975  0.1625 -0.0021
  157SAPE  C21117532   4.867   5.843   9.257  0.3998  0.4509 -0.0962
  157SAPE  H11R17533   4.828   5.946   9.263  0.5665  0.5454 -0.5712
  157SAPE  C21217534   4.859   5.782   9.133 -0.1817  0.4932 -0.2393
  157SAPE  H12R17535   4.799   5.841   9.063  1.5287  1.8407 -0.5868
  157SAPE  C21317536   4.919   5.651   9.097 -0.8179 -0.7192 -0.3846
  157SAPE  H13R17537   4.845   5.570   9.115 -0.3256 -1.4442 -1.5830
  157SAPE  H13S17538   5.007   5.636   9.163 -0.7624  2.2365  0.2816
  157SAPE  C21417539   4.970   5.631   8.955  0.1646  0.0043  0.0393
  157SAPE  H14R17540   5.079   5.642   8.943  0.4399 -2.1948  0.3631
  157SAPE  C21517541   4.905   5.589   8.847 -0.1532 -0.1174 -0.5521
  157SAPE  H15R17542   4.949   5.582   8.746 -0.7428  0.5200 -0.8528
  157SAPE  C21617543   4.756   5.564   8.849  0.1104  0.3472  1.6290
  157SAPE  H16R17544   4.690   5.644   8.811  0.3537  0.2124  0.9209
  157SAPE  H16S17545   4.715   5.529   8.946 -0.2156 -0.5855  1.1649
  157SAPE  C21717546   4.730   5.451   8.753  1.0165 -0.4453  0.3985
  157SAPE  H17R17547   4.794   5.364   8.779  0.6162 -1.6638 -2.4748
  157SAPE  H17S17548   4.743   5.489   8.649  0.2344 -3.7075 -0.9751
  157SAPE  C21817549   4.584   5.404   8.761 -0.0702  0.1260  0.3627
  157SAPE  H18R17550   4.526   5.491   8.723  0.8323  1.3421  1.6844
  157SAPE  H18S17551   4.559   5.396   8.869  3.1272 -0.8000  1.1100
  157SAPE  C21917552   4.552   5.287   8.675 -0.1378  0.4284 -0.6423
  157SAPE  H19R17553   4.641   5.225   8.697 -0.7536  0.7590  3.1243
  157SAPE  H19S17554   4.548   5.308   8.566 -1.6147 -1.0193 -0.8835
  157SAPE  C22017555   4.423   5.219   8.728 -0.0172  0.3250 -0.3310
  157SAPE  H20R17556   4.361   5.308   8.752  0.1580  0.7541 -1.4126
  157SAPE  H20S17557   4.439   5.176   8.829 -0.3236 -0.3249 -0.5553
  157SAPE  H20T17558   4.371   5.151   8.656  0.8766 -0.9313  0.1863
  157SAPE   C3317559   5.084   5.374   9.985  0.2181 -0.1903  0.0619
  157SAPE   H3X17560   5.010   5.355  10.066 -0.3211  1.1503 -0.0899
  157SAPE   H3Y17561   5.149   5.286   9.972  0.5230  0.3813 -2.7032
  157SAPE   C3417562   5.015   5.416   9.855  0.4921 -0.1058 -0.1595
  157SAPE   H4X17563   4.954   5.507   9.872 -1.2397 -1.0811 -1.0248
  157SAPE   H4Y17564   4.941   5.338   9.828 -0.4730  0.3001  1.2622
  157SAPE   C3517565   5.122   5.432   9.740 -0.0316 -0.2959 -0.3811
  157SAPE   H5X17566   5.197   5.351   9.752  2.2388  1.8465  0.3707
  157SAPE   H5Y17567   5.173   5.529   9.761 -1.8545  0.7082 -0.4300
  157SAPE   C3617568   5.062   5.450   9.600  0.0418  0.1268  0.6239
  157SAPE   H6X17569   5.148   5.427   9.533 -0.8764 -1.2095 -0.1100
  157SAPE   H6Y17570   5.027   5.555   9.606 -1.0757 -0.2011  0.0812
  157SAPE   C3717571   4.959   5.346   9.559  0.3036  0.4998 -0.2042
  157SAPE   H7X17572   4.867   5.360   9.619 -0.0678  1.7904 -1.0788
  157SAPE   H7Y17573   5.004   5.248   9.588 -2.0338 -1.2595 -2.3204
  157SAPE   C3817574   4.920   5.351   9.413  0.2478  0.3711 -0.3446
  157SAPE   H8X17575   4.875   5.450   9.388  1.6898  0.3031 -3.4308
  157SAPE   H8Y17576   4.833   5.283   9.400 -0.4948  0.2641  4.4787
  157SAPE   C3917577   5.030   5.319   9.308 -0.1803 -0.0279 -0.3316
  157SAPE   H9X17578   5.100   5.236   9.335  2.7961  2.1732 -1.0478
  157SAPE   H9Y17579   5.103   5.398   9.280  1.1188 -1.6344 -1.5436
  157SAPE  C31017580   4.965   5.282   9.173  0.0634  0.1736 -1.0165
  157SAPE  H10X17581   4.931   5.378   9.129  0.0931  0.2862 -0.7915
  157SAPE  H10Y17582   4.888   5.203   9.192  1.1274 -1.5120 -3.3929
  157SAPE  C31117583   5.062   5.211   9.077  0.4612  1.1685 -0.0975
  157SAPE  H11X17584   5.095   5.117   9.126 -1.4962  0.4957 -0.0372
  157SAPE  H11Y17585   5.138   5.287   9.047 -0.0648  2.2772  1.3803
  157SAPE  C31217586   4.986   5.173   8.949  0.0968  0.5115  0.5116
  157SAPE  H12X17587   4.937   5.256   8.894  0.7161  0.0653 -0.7629
  157SAPE  H12Y17588   4.908   5.099   8.977 -0.8705  1.1875 -0.3648
  157SAPE  C31317589   5.071   5.101   8.841  0.1115 -0.1289 -0.9675
  157SAPE  H13X17590   5.008   5.034   8.779  0.5063  0.4916 -2.0650
  157SAPE  H13Y17591   5.149   5.041   8.891  0.9414  0.2143 -1.8209
  157SAPE  C31417592   5.147   5.204   8.758  0.5778 -0.4735  0.2769
  157SAPE  H14X17593   5.211   5.261   8.828 -1.4806  1.0527  0.9620
  157SAPE  H14Y17594   5.079   5.282   8.719  1.8408 -0.0949 -1.2038
  157SAPE  C31517595   5.220   5.134   8.643 -0.3268 -0.3425 -0.1060
  157SAPE  H15X17596   5.147   5.084   8.576  0.0511 -0.1981 -0.6260
  157SAPE  H15Y17597   5.281   5.052   8.687  3.1038  1.8815 -0.5551
  157SAPE  C31617598   5.313   5.233   8.576 -0.1240 -0.6210  0.1040
  157SAPE  H16X17599   5.376   5.278   8.655  0.8443  0.9137 -1.4862
  157SAPE  H16Y17600   5.266   5.325   8.535  1.9638  0.9413  1.1541
  157SAPE  C31717601   5.405   5.169   8.480 -0.0840 -0.6544 -0.3428
  157SAPE  H17X17602   5.354   5.095   8.415 -1.9285 -0.1849  0.5304
  157SAPE  H17Y17603   5.475   5.105   8.536  0.7479 -1.0226 -1.7919
  157SAPE  C31817604   5.496   5.268   8.398 -0.1897  0.2137 -0.1275
  157SAPE  H18X17605   5.582   5.215   8.352 -0.6013 -1.0402  0.5140
  157SAPE  H18Y17606   5.529   5.345   8.471 -0.8233 -0.1714  0.5817
  157SAPE  H18Z17607   5.442   5.322   8.317  1.2629  4.7196  1.7296
  158SAPE     N17608   0.216   5.984  10.623 -0.1026  0.4156  0.5100
  158SAPE   HN117609   0.232   5.968  10.522  4.1427 -1.6201  1.3863
  158SAPE   HN217610   0.145   6.060  10.627 -1.5384 -0.8891  0.1522
  158SAPE   HN317611   0.307   6.024  10.652  0.8773 -0.1871 -1.6373
  158SAPE   C1217612   0.186   5.869  10.714 -0.1927  0.3404  0.5671
  158SAPE  H12A17613   0.176   5.914  10.815  1.0282  0.4887  0.6310
  158SAPE  H12B17614   0.267   5.794  10.727 -1.1777 -0.8358  0.0660
  158SAPE   C1117615   0.046   5.804  10.676 -0.1389  0.8169  0.3775
  158SAPE  H11A17616   0.030   5.715  10.741  1.8611 -0.6225 -1.0446
  158SAPE  H11B17617   0.052   5.757  10.576 -0.6203 -0.7169  1.0563
  158SAPE     P17618  -0.130   5.958  10.568 -0.1860 -0.0317  0.3056
  158SAPE   O1317619  -0.186   5.847  10.487 -0.4609 -0.0211  0.1442
  158SAPE   O1417620  -0.221   6.061  10.625  0.0596  0.0615  0.3684
  158SAPE   O1217621  -0.061   5.885  10.692  0.1761 -0.0948 -0.0526
  158SAPE   O1117622  -0.008   6.014  10.477 -0.6284 -0.2722  0.6860
  158SAPE    C117623  -0.037   6.084  10.352  0.2221 -0.6900  0.2198
  158SAPE    HA17624  -0.143   6.113  10.340  0.8329  0.7692 -1.8056
  158SAPE    HB17625   0.022   6.177  10.344 -1.4498  0.1583 -2.7837
  158SAPE    C217626   0.008   6.004  10.222  0.1040  0.7169  1.3246
  158SAPE    HS17627   0.118   6.018  10.210  0.4210 -3.2425 -1.1281
  158SAPE   O2117628  -0.061   6.047  10.107  0.1386  0.5534  0.3921
  158SAPE   C2117629  -0.000   6.059   9.994 -0.3187  0.2846  0.0034
  158SAPE   O2217630   0.123   6.045   9.981 -0.1973  0.2868 -0.2513
  158SAPE   C2217631  -0.099   6.088   9.889  0.1325 -0.5392  0.4084
  158SAPE   H2R17632  -0.147   5.990   9.867  0.0942 -1.0080  2.4162
  158SAPE   H2S17633  -0.181   6.155   9.920  1.1222  0.4726  0.8763
  158SAPE    C317634  -0.016   5.847  10.240 -0.2162  0.5588  1.4806
  158SAPE    HX17635  -0.122   5.826  10.265 -0.1936  0.5217  1.5443
  158SAPE    HY17636   0.052   5.818  10.322  0.6439  0.8350  0.8752
  158SAPE   O3117637   0.026   5.762  10.122  0.3616  0.2235  0.2744
  158SAPE   C3117638   0.162   5.752  10.109  0.1279 -0.1557  0.6559
  158SAPE   O3217639   0.244   5.795  10.181 -0.3157  0.8873 -0.1238
  158SAPE   C3217640   0.189   5.673   9.979  0.1307 -0.3882 -0.2374
  158SAPE   H2X17641   0.096   5.628   9.937 -2.0045  0.2835  3.5001
  158SAPE   H2Y17642   0.247   5.586  10.017  0.4375  0.4697  1.2928
  158SAPE   C2317643  -0.026   6.163   9.769 -0.7414 -1.0271 -0.5458
  158SAPE   H3R17644   0.085   6.155   9.772 -0.5647  1.1219 -0.7485
  158SAPE   H3S17645  -0.059   6.268   9.783  0.3128 -0.7593 -0.0728
  158SAPE   C2417646  -0.082   6.113   9.635  0.5684 -0.6408  0.0934
  158SAPE   H4R17647  -0.074   6.200   9.566 -1.0215 -1.9879 -1.8795
  158SAPE   H4S17648  -0.188   6.107   9.667  0.9292 -0.0966  1.4067
  158SAPE   C2517649  -0.032   5.983   9.594 -0.0170  0.2522 -0.1583
  158SAPE   H5R17650  -0.019   5.909   9.674  2.8412 -0.4371 -1.1993
  158SAPE   C2617651   0.011   5.948   9.471  1.0680 -0.2726  0.6488
  158SAPE   H6R17652   0.048   5.844   9.468 -1.6804 -1.3397  2.2211
  158SAPE   C2717653   0.010   6.036   9.344 -0.4072 -0.3434 -0.3216
  158SAPE   H7R17654   0.011   6.144   9.373 -0.9640 -0.7070  1.0948
  158SAPE   H7S17655  -0.082   6.025   9.284 -1.4339  0.2157  1.1175
  158SAPE   C2817656   0.131   5.979   9.267  0.1077 -0.5745 -0.3486
  158SAPE   H8R17657   0.232   6.005   9.302  0.5327 -2.2493 -0.2901
  158SAPE   C2917658   0.127   5.902   9.157 -0.3320 -0.5393 -0.0947
  158SAPE   H9R17659   0.216   5.852   9.117 -0.0204 -1.6896  1.9236
  158SAPE  C21017660  -0.004   5.853   9.098  0.2385 -0.3813 -0.0695
  158SAPE  H10R17661  -0.073   5.854   9.185  0.3069 -1.4310  0.0009
  158SAPE  H10S17662  -0.002   5.748   9.062  1.0854 -0.2233 -0.5037
  158SAPE  C21117663  -0.064   5.948   8.992  0.1423  0.6613 -0.2289
  158SAPE  H11R17664  -0.076   6.050   9.033  1.2088  0.0070  1.7392
  158SAPE  C21217665  -0.114   5.908   8.870  0.3013 -0.0807 -0.2091
  158SAPE  H12R17666  -0.148   5.986   8.800 -0.9321 -1.2049 -0.8715
  158SAPE  C21317667  -0.122   5.767   8.823 -0.1394  0.1489  0.1218
  158SAPE  H13R17668  -0.134   5.694   8.906  1.3640 -1.7333 -1.2811
  158SAPE  H13S17669  -0.022   5.732   8.789  0.8879  0.3505  2.7742
  158SAPE  C21417670  -0.229   5.756   8.717  0.3822  0.2529  0.1833
  158SAPE  H14R17671  -0.307   5.834   8.723  0.1783 -0.0088  0.8973
  158SAPE  C21517672  -0.237   5.667   8.619  0.3153  0.0250  0.1155
  158SAPE  H15R17673  -0.323   5.660   8.551 -1.0942 -1.7376  2.0164
  158SAPE  C21617674  -0.141   5.551   8.597 -0.0072  0.0728 -0.6647
  158SAPE  H16R17675  -0.202   5.460   8.611 -0.2337  0.2119 -0.7392
  158SAPE  H16S17676  -0.062   5.546   8.675  0.7874 -1.4225 -1.5510
  158SAPE  C21717677  -0.059   5.549   8.469  0.5681  0.4216 -0.9817
  158SAPE  H17R17678  -0.008   5.450   8.470  0.1772  0.2172  0.1988
  158SAPE  H17S17679   0.019   5.628   8.478 -0.5428  1.4077  0.3571
  158SAPE  C21817680  -0.142   5.551   8.338 -0.8571  0.0638 -0.2439
  158SAPE  H18R17681  -0.209   5.640   8.343  0.1202  0.8636 -1.3472
  158SAPE  H18S17682  -0.214   5.466   8.341 -1.4258  0.5210 -0.6552
  158SAPE  C21917683  -0.053   5.552   8.216  0.1301 -0.3748 -0.5157
  158SAPE  H19R17684  -0.000   5.454   8.218  0.2939 -0.2920 -0.7855
  158SAPE  H19S17685   0.029   5.625   8.233  0.9758 -1.0161 -1.7629
  158SAPE  C22017686  -0.131   5.584   8.094 -0.0680  0.8254  0.5765
  158SAPE  H20R17687  -0.217   5.514   8.081 -1.5709  2.5467  1.0864
  158SAPE  H20S17688  -0.061   5.567   8.010  0.5030 -0.6399  1.3242
  158SAPE  H20T17689  -0.168   5.688   8.101 -0.5098  0.7358 -0.3773
  158SAPE   C3317690   0.267   5.767   9.877 -0.2080  0.7284 -0.2046
  158SAPE   H3X17691   0.359   5.806   9.925  0.5277 -0.6776 -0.4622
  158SAPE   H3Y17692   0.202   5.851   9.843 -0.6570  1.1273  1.5580
  158SAPE   C3417693   0.309   5.684   9.751  0.4120  0.1352  0.1630
  158SAPE   H4X17694   0.352   5.592   9.796 -0.4867 -1.2560 -1.7627
  158SAPE   H4Y17695   0.391   5.737   9.697  0.1110 -0.8549 -1.2882
  158SAPE   C3517696   0.188   5.637   9.667  0.3278  0.3880 -0.1730
  158SAPE   H5X17697   0.114   5.720   9.653 -0.9816 -0.7083  0.1334
  158SAPE   H5Y17698   0.128   5.564   9.726  1.3741 -0.0519  0.3479
  158SAPE   C3617699   0.228   5.556   9.552  0.8963  0.2274 -0.1740
  158SAPE   H6X17700   0.304   5.478   9.574 -1.2710 -2.1620 -0.9256
  158SAPE   H6Y17701   0.264   5.620   9.469  0.9447  1.8625  1.0778
  158SAPE   C3717702   0.115   5.472   9.495 -0.7166  0.3471 -0.2658
  158SAPE   H7X17703   0.035   5.537   9.453  3.1093  3.5356 -3.0558
  158SAPE   H7Y17704   0.069   5.420   9.581  2.2053 -0.4896  0.8627
  158SAPE   C3817705   0.147   5.381   9.380 -0.1972 -0.2527 -0.8101
  158SAPE   H8X17706   0.057   5.316   9.372 -0.5965 -0.1613  2.2462
  158SAPE   H8Y17707   0.241   5.323   9.392  0.5417  1.0402 -0.3436
  158SAPE   C3917708   0.153   5.458   9.251 -0.4003 -1.1124 -0.5724
  158SAPE   H9X17709   0.215   5.549   9.263 -2.3063  0.1980 -0.4402
  158SAPE   H9Y17710   0.051   5.496   9.229  0.8034  2.7649  0.1797
  158SAPE  C31017711   0.196   5.358   9.134  0.7365 -0.5459 -0.1975
  158SAPE  H10X17712   0.119   5.278   9.145  0.7825 -0.5918 -0.2078
  158SAPE  H10Y17713   0.292   5.305   9.151  0.4559 -1.4370 -1.3158
  158SAPE  C31117714   0.184   5.417   8.985  0.5442  0.1875 -0.4039
  158SAPE  H11X17715   0.084   5.454   8.953  0.1319  0.3397  1.0384
  158SAPE  H11Y17716   0.212   5.329   8.923  2.0418 -0.2712  0.8731
  158SAPE  C31217717   0.277   5.527   8.959  0.6513  1.1802 -0.3085
  158SAPE  H12X17718   0.385   5.509   8.980  0.4848  0.4717 -0.0422
  158SAPE  H12Y17719   0.245   5.611   9.024  0.0327  1.5275 -1.0630
  158SAPE  C31317720   0.266   5.576   8.814  0.3114  0.2845 -0.3645
  158SAPE  H13X17721   0.161   5.603   8.791 -0.0554 -1.4848 -0.7921
  158SAPE  H13Y17722   0.292   5.480   8.764  1.7138  0.7953 -0.6349
  158SAPE  C31417723   0.354   5.693   8.766  0.0290 -0.5095 -0.3103
  158SAPE  H14X17724   0.454   5.682   8.812 -0.5623 -0.2316  1.0472
  158SAPE  H14Y17725   0.310   5.786   8.807  0.3289 -0.6790  0.3900
  158SAPE  C31517726   0.370   5.704   8.616 -0.3164  0.4063 -0.4963
  158SAPE  H15X17727   0.439   5.790   8.605  1.0793 -0.7994 -1.2581
  158SAPE  H15Y17728   0.269   5.730   8.576 -0.2019  1.5375 -0.0811
  158SAPE  C31617729   0.438   5.589   8.547 -0.0298 -0.1248  0.2432
  158SAPE  H16X17730   0.378   5.497   8.564  1.6562 -1.2918  0.0671
  158SAPE  H16Y17731   0.535   5.578   8.601 -0.6339  0.7265  1.5093
  158SAPE  C31717732   0.468   5.599   8.396  0.2043  0.1737 -0.1573
  158SAPE  H17X17733   0.543   5.519   8.374  0.1952 -0.4090  1.8039
  158SAPE  H17Y17734   0.506   5.702   8.381  1.3074 -0.3842 -1.3708
  158SAPE  C31817735   0.344   5.572   8.312 -0.1023 -0.0385  0.2929
  158SAPE  H18X17736   0.373   5.597   8.208 -0.2604  0.8479  0.4648
  158SAPE  H18Y17737   0.259   5.639   8.335 -1.3396 -1.3790 -0.3058
  158SAPE  H18Z17738   0.326   5.462   8.314 -0.9674  0.0952 -0.3049
  159SAPE     N17739   5.201   2.187   6.413 -0.3344 -0.0718 -0.2505
  159SAPE   HN117740   5.126   2.119   6.390 -0.5630  0.1819 -0.2605
  159SAPE   HN217741   5.262   2.161   6.493 -0.6588 -0.9567 -0.2802
  159SAPE   HN317742   5.143   2.269   6.439  1.7681  0.5374  2.7058
  159SAPE   C1217743   5.266   2.218   6.286  0.5929  0.2449 -0.7463
  159SAPE  H12A17744   5.200   2.278   6.220  0.7165 -0.0594 -1.1569
  159SAPE  H12B17745   5.299   2.128   6.228 -0.6909 -0.6707 -0.0823
  159SAPE   C1117746   5.382   2.308   6.305  0.4402 -0.3352  0.8038
  159SAPE  H11A17747   5.354   2.393   6.371  0.1631 -0.3356  0.6899
  159SAPE  H11B17748   5.421   2.361   6.216 -0.4637 -0.1813  0.4912
  159SAPE     P17749   5.625   2.339   6.397  0.2644  0.6574 -0.0212
  159SAPE   O1317750   5.721   2.257   6.473  0.1196  0.8391 -0.1701
  159SAPE   O1417751   5.664   2.393   6.262 -0.0639  0.1877 -0.5693
  159SAPE   O1217752   5.497   2.252   6.373 -0.0409 -0.1742 -0.3423
  159SAPE   O1117753   5.577   2.461   6.487 -0.5983  0.0670 -0.4058
  159SAPE    C117754   5.508   2.436   6.609  0.6725  0.0702  0.1260
  159SAPE    HA17755   5.426   2.510   6.619  0.3931 -0.2599  0.2960
  159SAPE    HB17756   5.462   2.335   6.618 -3.1271  1.7859  0.7824
  159SAPE    C217757   5.613   2.441   6.730  0.6880 -0.2331 -0.2547
  159SAPE    HS17758   5.701   2.375   6.719 -0.1085 -1.2528 -0.6010
  159SAPE   O2117759   5.533   2.420   6.845 -0.6718 -0.1202 -0.4083
  159SAPE   C2117760   5.534   2.293   6.898 -0.5230  0.5548  0.6660
  159SAPE   O2217761   5.592   2.197   6.854 -0.2218  0.4839 -0.2405
  159SAPE   C2217762   5.446   2.287   7.021  0.5659 -0.2950 -0.1899
  159SAPE   H2R17763   5.359   2.349   6.990 -0.8240 -1.4518  1.3040
  159SAPE   H2S17764   5.402   2.187   7.043 -2.9906  1.1573 -0.3107
  159SAPE    C317765   5.663   2.593   6.746 -0.4115  1.2408 -1.1313
  159SAPE    HX17766   5.583   2.651   6.797  0.8793 -0.2942  2.8755
  159SAPE    HY17767   5.699   2.625   6.646  1.5958  1.2883 -0.4225
  159SAPE   O3117768   5.782   2.604   6.822  0.1649 -0.2672  0.1594
  159SAPE   C3117769   5.779   2.641   6.945 -0.6038  0.0797  0.4226
  159SAPE   O3217770   5.674   2.645   7.009  0.0315 -0.1501 -0.4203
  159SAPE   C3217771   5.920   2.672   6.995  0.3855  0.3107 -0.4660
  159SAPE   H2X17772   5.942   2.777   6.969 -1.4754  1.2516  1.6593
  159SAPE   H2Y17773   5.986   2.598   6.945 -0.4993 -0.4446 -0.5367
  159SAPE   C2317774   5.511   2.353   7.149  0.0756  0.1421 -0.2251
  159SAPE   H3R17775   5.429   2.358   7.224 -1.8325 -0.5462 -2.2012
  159SAPE   H3S17776   5.548   2.454   7.122  2.1833 -0.5219  0.0814
  159SAPE   C2417777   5.624   2.262   7.199  0.8629 -0.3545  0.0889
  159SAPE   H4R17778   5.691   2.239   7.113  0.1824  0.2037 -0.5934
  159SAPE   H4S17779   5.573   2.164   7.210  1.5499 -0.9297 -1.6373
  159SAPE   C2517780   5.689   2.306   7.329 -0.8282  0.6492 -0.3492
  159SAPE   H5R17781   5.759   2.390   7.313  2.5195 -1.9709  0.1358
  159SAPE   C2617782   5.656   2.263   7.453  0.5180  0.0112 -0.0676
  159SAPE   H6R17783   5.710   2.304   7.539  1.0112  1.8731 -1.2455
  159SAPE   C2717784   5.561   2.156   7.496  0.2623  0.6212  0.0200
  159SAPE   H7R17785   5.593   2.063   7.444  1.3577  0.6468  0.6410
  159SAPE   H7S17786   5.461   2.182   7.455  0.4591  4.1719  1.5907
  159SAPE   C2817787   5.548   2.123   7.646 -0.6273 -0.2069  0.5306
  159SAPE   H8R17788   5.649   2.116   7.688 -0.3662 -0.3653 -0.1190
  159SAPE   C2917789   5.441   2.079   7.713  0.0679 -0.4020  0.3648
  159SAPE   H9R17790   5.454   2.054   7.819 -1.7238 -0.3513  0.6036
  159SAPE  C21017791   5.306   2.052   7.651 -0.2398  0.3100 -0.4141
  159SAPE  H10R17792   5.317   2.067   7.542  1.7000  1.7419 -0.0545
  159SAPE  H10S17793   5.223   2.114   7.691 -1.8784 -1.1794 -1.4579
  159SAPE  C21117794   5.270   1.911   7.683 -0.5164  0.6210 -0.4704
  159SAPE  H11R17795   5.305   1.844   7.602  1.3378  1.5264 -0.4381
  159SAPE  C21217796   5.214   1.866   7.799  0.5589  0.2576 -0.2156
  159SAPE  H12R17797   5.188   1.759   7.809 -2.2472  0.7546 -1.5180
  159SAPE  C21317798   5.175   1.944   7.919 -0.5952 -0.0726  0.1518
  159SAPE  H13R17799   5.066   1.931   7.939 -0.8674 -1.3385 -2.0595
  159SAPE  H13S17800   5.182   2.052   7.896  0.7029 -0.4466 -1.2776
  159SAPE  C21417801   5.268   1.913   8.033  0.2479 -0.0283 -0.6848
  159SAPE  H14R17802   5.363   1.860   8.012 -0.6625 -1.2417 -1.8261
  159SAPE  C21517803   5.249   1.935   8.163  0.0171 -0.0682 -0.0924
  159SAPE  H15R17804   5.321   1.902   8.239 -0.3110 -1.3322 -0.3267
  159SAPE  C21617805   5.127   2.008   8.221  0.6159 -0.1715 -0.2279
  159SAPE  H16R17806   5.053   1.933   8.254 -0.0465  0.3028 -0.6391
  159SAPE  H16S17807   5.082   2.079   8.148 -1.0427 -1.5758 -0.5879
  159SAPE  C21717808   5.174   2.071   8.352  0.6465 -0.2968 -0.4233
  159SAPE  H17R17809   5.221   1.994   8.417 -1.4861 -0.6285  0.7532
  159SAPE  H17S17810   5.090   2.106   8.415  1.5208 -0.0451  0.6097
  159SAPE  C21817811   5.273   2.187   8.332  0.2234 -0.3828 -0.2139
  159SAPE  H18R17812   5.223   2.287   8.328 -2.0143 -1.3859  1.3818
  159SAPE  H18S17813   5.333   2.166   8.241  1.2189 -1.2569  0.6476
  159SAPE  C21917814   5.380   2.206   8.439  0.3477 -0.0438 -0.4473
  159SAPE  H19R17815   5.432   2.109   8.458  1.1543  0.6840  1.1375
  159SAPE  H19S17816   5.341   2.241   8.537 -1.5844 -2.0756 -0.4516
  159SAPE  C22017817   5.483   2.311   8.392 -0.9325 -0.4582  0.0079
  159SAPE  H20R17818   5.534   2.268   8.303  2.4783  1.2098  1.0803
  159SAPE  H20S17819   5.568   2.329   8.460 -0.3383 -1.5613 -0.4315
  159SAPE  H20T17820   5.424   2.402   8.368 -1.0157 -0.8680 -1.3808
  159SAPE   C3317821   5.932   2.662   7.152 -0.5876  0.2708 -0.4210
  159SAPE   H3X17822   5.877   2.567   7.173  0.0869  0.1269  0.7679
  159SAPE   H3Y17823   5.880   2.750   7.194  1.2459  2.2843 -2.2880
  159SAPE   C3417824   6.075   2.641   7.195 -0.1752 -0.5635 -0.1547
  159SAPE   H4X17825   6.129   2.735   7.170  0.8919 -1.1598 -0.1422
  159SAPE   H4Y17826   6.129   2.556   7.147 -1.4832 -1.4439 -0.1034
  159SAPE   C3517827   6.083   2.617   7.346 -0.1250 -0.4944  0.0724
  159SAPE   H5X17828   6.045   2.517   7.374 -2.7836  1.0012  1.9947
  159SAPE   H5Y17829   6.025   2.691   7.405 -1.1762 -1.7379  0.6087
  159SAPE   C3617830   6.225   2.628   7.403  0.1152  0.6093 -0.7766
  159SAPE   H6X17831   6.262   2.733   7.403  2.4615 -0.1736 -2.2102
  159SAPE   H6Y17832   6.288   2.571   7.332 -1.7873 -0.8067 -1.3931
  159SAPE   C3717833   6.227   2.571   7.541  0.1876  0.5759  0.0533
  159SAPE   H7X17834   6.237   2.461   7.532  1.4440  0.5702  1.2338
  159SAPE   H7Y17835   6.127   2.603   7.577 -0.5279 -1.6194  0.0918
  159SAPE   C3817836   6.341   2.626   7.627 -0.2275  0.1401  0.8883
  159SAPE   H8X17837   6.326   2.604   7.735 -0.9564 -3.1298  0.1718
  159SAPE   H8Y17838   6.341   2.737   7.621 -1.1047  0.0794 -0.2038
  159SAPE   C3917839   6.491   2.602   7.596  0.0659  0.1382 -0.5216
  159SAPE   H9X17840   6.509   2.651   7.498 -0.2821 -1.7770 -1.5706
  159SAPE   H9Y17841   6.524   2.499   7.574  0.1197  0.3139 -1.2634
  159SAPE  C31017842   6.572   2.663   7.714  0.2480  0.6010 -0.2875
  159SAPE  H10X17843   6.508   2.735   7.770  1.7883  1.6805  0.1441
  159SAPE  H10Y17844   6.662   2.713   7.673 -0.5702  2.4702  0.1162
  159SAPE  C31117845   6.606   2.551   7.812  0.0396  0.3951 -0.2119
  159SAPE  H11X17846   6.670   2.479   7.757  0.0566  1.0835 -1.1067
  159SAPE  H11Y17847   6.513   2.504   7.851 -0.3239  0.8775 -0.4975
  159SAPE  C31217848   6.681   2.603   7.932 -0.0795 -0.1207 -0.4362
  159SAPE  H12X17849   6.606   2.681   7.960  0.5613  0.4583 -0.3254
  159SAPE  H12Y17850   6.775   2.648   7.894  0.8661 -1.2634  0.5549
  159SAPE  C31317851   6.702   2.517   8.050 -0.3149  0.3936  0.4471
  159SAPE  H13X17852   6.744   2.424   8.008 -0.6571  1.2421 -1.8443
  159SAPE  H13Y17853   6.607   2.489   8.099  0.9899 -0.3522  2.6169
  159SAPE  C31417854   6.801   2.560   8.158  0.1016 -0.7115  0.1891
  159SAPE  H14X17855   6.775   2.662   8.193  1.0209 -0.3868 -0.0750
  159SAPE  H14Y17856   6.905   2.567   8.121  0.5375 -1.2402  1.2912
  159SAPE  C31517857   6.795   2.461   8.276 -0.0028 -0.1908  0.1378
  159SAPE  H15X17858   6.803   2.363   8.224  1.8156 -0.2789  0.5338
  159SAPE  H15Y17859   6.695   2.481   8.320 -0.2677  3.9501 -2.0593
  159SAPE  C31617860   6.907   2.469   8.375 -0.1190  0.5324 -0.3396
  159SAPE  H16X17861   6.933   2.568   8.420  0.0882  0.6589 -0.7326
  159SAPE  H16Y17862   7.007   2.429   8.346  0.2824  1.2431  0.0368
  159SAPE  C31717863   6.851   2.388   8.495 -0.2963  0.0852 -0.3210
  159SAPE  H17X17864   6.935   2.365   8.563 -0.6654 -1.1940 -0.2758
  159SAPE  H17Y17865   6.814   2.286   8.472 -1.2885  0.5949 -1.0451
  159SAPE  C31817866   6.750   2.469   8.585 -0.5159  0.6513 -0.1789
  159SAPE  H18X17867   6.792   2.572   8.584  0.3566  0.3335 -3.7570
  159SAPE  H18Y17868   6.728   2.432   8.687  2.9806 -0.0738  0.3955
  159SAPE  H18Z17869   6.654   2.486   8.532 -1.8626 -1.2768  1.6118
  160SAPE     N17870   5.022   3.274   6.623 -0.1685 -0.5982 -0.4315
  160SAPE   HN117871   4.962   3.258   6.706  0.2390 -3.0523 -0.5630
  160SAPE   HN217872   5.101   3.207   6.614  1.1946  0.9694 -0.3688
  160SAPE   HN317873   5.069   3.363   6.651 -0.2632 -0.6348 -0.1532
  160SAPE   C1217874   4.941   3.277   6.499  0.0430  0.3258  0.0119
  160SAPE  H12A17875   4.899   3.174   6.493  2.7012 -0.7937 -0.2807
  160SAPE  H12B17876   5.012   3.274   6.413 -1.3337 -1.8412 -1.1100
  160SAPE   C1117877   4.849   3.407   6.490  0.3219 -0.8271 -0.1653
  160SAPE  H11A17878   4.775   3.407   6.574  1.6914  1.3223  1.0931
  160SAPE  H11B17879   4.789   3.405   6.397  1.2443  0.8259 -0.8221
  160SAPE     P17880   4.887   3.660   6.430  0.0214 -0.2167  0.1000
  160SAPE   O1317881   4.948   3.682   6.291  0.0887  0.3274 -0.3279
  160SAPE   O1417882   4.738   3.666   6.437  0.6973 -0.0492  0.2112
  160SAPE   O1217883   4.936   3.521   6.488 -0.2102 -0.5736 -0.1578
  160SAPE   O1117884   4.932   3.762   6.540 -0.0447 -0.4851 -0.2758
  160SAPE    C117885   5.077   3.766   6.572  0.4396 -0.0601  0.1329
  160SAPE    HA17886   5.142   3.735   6.487 -0.9980  1.3782 -1.5363
  160SAPE    HB17887   5.097   3.872   6.602 -0.2266  0.5139 -1.3846
  160SAPE    C217888   5.111   3.677   6.696 -0.0830 -0.0387 -0.6889
  160SAPE    HS17889   5.084   3.573   6.669 -2.1860  0.0527  0.9396
  160SAPE   O2117890   5.041   3.731   6.818  0.1920  0.3512 -0.1634
  160SAPE   C2117891   5.012   3.630   6.897 -0.3841  0.6013 -0.0098
  160SAPE   O2217892   5.023   3.509   6.873  0.0416 -1.1044 -0.7301
  160SAPE   C2217893   4.974   3.689   7.037  0.4773 -0.5912  0.1371
  160SAPE   H2R17894   5.048   3.770   7.047 -1.1951  1.1718 -1.4097
  160SAPE   H2S17895   4.872   3.733   7.044  1.0282  0.5984  0.8041
  160SAPE    C317896   5.262   3.680   6.720 -0.1131  0.0368  0.5200
  160SAPE    HX17897   5.280   3.790   6.725  0.8560 -0.0472 -0.8623
  160SAPE    HY17898   5.307   3.635   6.629 -1.7409 -0.0250 -0.2874
  160SAPE   O3117899   5.309   3.617   6.842 -0.5453 -0.4348  0.2394
  160SAPE   C3117900   5.331   3.491   6.833 -0.4424  0.5061  0.1577
  160SAPE   O3217901   5.309   3.414   6.743 -0.0217  0.4234  0.0673
  160SAPE   C3217902   5.393   3.439   6.966 -0.0889  0.1078 -0.4117
  160SAPE   H2X17903   5.309   3.425   7.037 -0.4979 -0.6941 -1.0463
  160SAPE   H2Y17904   5.460   3.515   7.013 -0.2237 -1.0574  1.6929
  160SAPE   C2317905   4.967   3.589   7.159  0.2995 -0.5309 -0.0317
  160SAPE   H3R17906   5.070   3.548   7.162  1.7450  2.7507 -1.9520
  160SAPE   H3S17907   4.890   3.513   7.133  0.9974 -0.4722 -2.4525
  160SAPE   C2417908   4.945   3.664   7.282 -0.2679 -0.2152 -0.4286
  160SAPE   H4R17909   5.006   3.757   7.286  1.3215 -1.1224 -2.4172
  160SAPE   H4S17910   4.980   3.607   7.371  0.2820  1.3793  0.4113
  160SAPE   C2517911   4.802   3.711   7.290  0.1189 -0.0348  0.2648
  160SAPE   H5R17912   4.731   3.675   7.214  0.1689  1.2370 -0.3918
  160SAPE   C2617913   4.745   3.798   7.382  0.2276 -0.2693  0.2809
  160SAPE   H6R17914   4.636   3.813   7.377 -0.0437 -2.4200 -0.9990
  160SAPE   C2717915   4.823   3.859   7.494 -0.0914  0.0231 -0.1808
  160SAPE   H7R17916   4.832   3.966   7.463 -0.5045  0.8972  2.6043
  160SAPE   H7S17917   4.932   3.835   7.498  0.2261  1.2235 -1.3574
  160SAPE   C2817918   4.769   3.855   7.636 -0.4944  0.3794  0.0838
  160SAPE   H8R17919   4.661   3.838   7.645 -0.5490 -0.0582 -1.3061
  160SAPE   C2917920   4.845   3.850   7.749 -0.3128 -0.1642 -0.2590
  160SAPE   H9R17921   4.793   3.851   7.846 -0.5866  2.0127 -0.4075
  160SAPE  C21017922   4.995   3.858   7.760  0.4859  0.1243  0.0152
  160SAPE  H10R17923   5.055   3.860   7.667 -1.5501 -0.3829 -1.3267
  160SAPE  H10S17924   5.030   3.767   7.813  0.9436 -0.6200 -1.5606
  160SAPE  C21117925   5.026   3.981   7.837 -0.0952  0.1994 -0.5497
  160SAPE  H11R17926   5.046   4.070   7.776  1.1861  0.2611 -0.0539
  160SAPE  C21217927   5.028   3.994   7.974  0.0468  0.1064  0.3214
  160SAPE  H12R17928   5.075   4.083   8.018 -0.7857 -0.4202  2.3011
  160SAPE  C21317929   4.997   3.893   8.078  0.3861 -0.4110  0.0587
  160SAPE  H13R17930   5.085   3.827   8.081  0.1880 -0.9833 -4.0477
  160SAPE  H13S17931   4.905   3.833   8.059 -0.3104  0.5398  0.3477
  160SAPE  C21417932   4.979   3.962   8.215 -0.0599  0.0181 -0.0342
  160SAPE  H14R17933   4.987   4.072   8.212 -2.1562  0.1818 -0.3601
  160SAPE  C21517934   4.975   3.904   8.330  0.5093  0.0950 -0.3525
  160SAPE  H15R17935   4.965   3.960   8.424  1.3521 -0.4945  0.0932
  160SAPE  C21617936   4.973   3.757   8.343 -0.3120 -0.0087 -0.2486
  160SAPE  H16R17937   4.931   3.696   8.260  1.1080  0.0844 -1.0371
  160SAPE  H16S17938   4.920   3.725   8.436 -0.0588 -0.8501 -0.3902
  160SAPE  C21717939   5.127   3.714   8.359 -0.1699  0.2541 -0.1862
  160SAPE  H17R17940   5.173   3.778   8.438 -0.2892 -1.3105  1.1669
  160SAPE  H17S17941   5.180   3.739   8.264 -1.7352 -1.4173 -1.5443
  160SAPE  C21817942   5.138   3.567   8.400 -0.5292 -0.2370  0.1795
  160SAPE  H18R17943   5.234   3.528   8.359 -0.5213 -1.6748  1.5165
  160SAPE  H18S17944   5.057   3.502   8.360  1.0642 -1.6233 -0.8967
  160SAPE  C21917945   5.142   3.550   8.556 -0.2253 -0.3616  0.4355
  160SAPE  H19R17946   5.044   3.587   8.594  1.2648  1.3196  2.6996
  160SAPE  H19S17947   5.204   3.633   8.593  0.5806 -0.2748 -1.0621
  160SAPE  C22017948   5.174   3.414   8.611  0.2084 -0.5167  0.0853
  160SAPE  H20R17949   5.203   3.424   8.718  1.2043 -0.3318 -0.1884
  160SAPE  H20S17950   5.265   3.364   8.570  1.4136 -0.0888  2.1335
  160SAPE  H20T17951   5.085   3.349   8.611  0.5001 -0.9176  0.2303
  160SAPE   C3317952   5.478   3.305   6.961  0.4496 -0.5446  0.2216
  160SAPE   H3X17953   5.566   3.327   6.897 -1.1358  0.7204 -1.5815
  160SAPE   H3Y17954   5.414   3.233   6.906  1.2464  0.5640 -2.2320
  160SAPE   C3417955   5.524   3.255   7.101 -0.0259  0.2003  0.2584
  160SAPE   H4X17956   5.536   3.144   7.095 -0.5948  0.1709 -0.4257
  160SAPE   H4Y17957   5.447   3.269   7.179  1.7636  0.7713  1.9450
  160SAPE   C3517958   5.662   3.300   7.142 -0.1828  0.6731 -0.0475
  160SAPE   H5X17959   5.676   3.410   7.135 -1.8857  0.9715  1.0997
  160SAPE   H5Y17960   5.731   3.246   7.074 -1.7370  0.3149 -1.4000
  160SAPE   C3617961   5.691   3.273   7.291  0.0124  0.6401  0.7007
  160SAPE   H6X17962   5.799   3.285   7.314  0.4574 -1.1014 -0.3823
  160SAPE   H6Y17963   5.650   3.172   7.310  2.2051  0.2587  3.9054
  160SAPE   C3717964   5.616   3.369   7.386  0.2067 -0.1988 -0.2692
  160SAPE   H7X17965   5.510   3.366   7.354  0.6421 -1.4692 -1.6482
  160SAPE   H7Y17966   5.661   3.470   7.376 -0.2214  0.1665  1.4354
  160SAPE   C3817967   5.612   3.344   7.536 -0.2834 -0.2357 -0.1278
  160SAPE   H8X17968   5.554   3.250   7.548  2.4915 -2.0800 -0.7000
  160SAPE   H8Y17969   5.572   3.428   7.596 -2.7825 -1.1460 -0.4418
  160SAPE   C3917970   5.746   3.308   7.602  0.7141  0.4090 -0.4392
  160SAPE   H9X17971   5.802   3.404   7.597 -0.2408  0.9870 -0.2213
  160SAPE   H9Y17972   5.806   3.232   7.546 -0.9168 -1.0746 -0.2051
  160SAPE  C31017973   5.729   3.260   7.744 -0.0583 -0.4517  0.1383
  160SAPE  H10X17974   5.827   3.232   7.788 -0.7771 -3.4346 -0.0145
  160SAPE  H10Y17975   5.668   3.168   7.734 -3.9620  2.0389 -0.1094
  160SAPE  C31117976   5.660   3.351   7.849 -0.7947  0.3368 -0.3188
  160SAPE  H11X17977   5.594   3.284   7.909 -0.9424  0.3587 -0.4564
  160SAPE  H11Y17978   5.614   3.432   7.788 -0.9535  1.0331  0.7153
  160SAPE  C31217979   5.768   3.407   7.951  0.6317 -0.5774  0.1190
  160SAPE  H12X17980   5.718   3.488   8.008  1.4655 -2.4057  3.6102
  160SAPE  H12Y17981   5.857   3.456   7.908  0.6605  1.1599  2.1097
  160SAPE  C31317982   5.800   3.313   8.057  0.1922  0.3609  0.4085
  160SAPE  H13X17983   5.856   3.234   8.002  1.0022  0.7454  0.6686
  160SAPE  H13Y17984   5.709   3.267   8.101 -0.1262  0.0387 -0.5875
  160SAPE  C31417985   5.884   3.382   8.174  0.0821 -0.5371  0.6314
  160SAPE  H14X17986   5.827   3.459   8.229  2.9269  0.8627  1.6913
  160SAPE  H14Y17987   5.971   3.434   8.128 -0.4618 -2.2095 -2.4289
  160SAPE  C31517988   5.941   3.270   8.270 -0.5974  0.3303 -0.2746
  160SAPE  H15X17989   5.960   3.177   8.212  1.3359  1.2317 -1.1234
  160SAPE  H15Y17990   5.865   3.237   8.344  1.6869 -0.9168  1.5928
  160SAPE  C31617991   6.067   3.312   8.348 -0.6441  0.1328  0.2927
  160SAPE  H16X17992   6.037   3.403   8.404  0.6052 -1.5235  3.7350
  160SAPE  H16Y17993   6.145   3.340   8.273  0.4503  1.1370  1.7883
  160SAPE  C31717994   6.119   3.210   8.448 -0.5546 -0.4833  0.0584
  160SAPE  H17X17995   6.039   3.160   8.507 -0.6069 -0.6409 -0.1474
  160SAPE  H17Y17996   6.187   3.256   8.523 -2.1797  0.1487  1.1830
  160SAPE  C31817997   6.201   3.102   8.370  0.3017 -0.5875  0.2293
  160SAPE  H18X17998   6.244   3.026   8.440 -2.7770 -1.3334  1.3897
  160SAPE  H18Y17999   6.277   3.149   8.305 -0.1647 -0.9941 -0.6084
  160SAPE  H18Z18000   6.126   3.056   8.302 -1.0981  2.4965 -0.3675
  161SAPE     N18001   0.002   3.087   6.291 -0.4121 -0.5610  0.2799
  161SAPE   HN118002   0.060   3.067   6.207 -0.0279 -1.5127  0.7686
  161SAPE   HN218003  -0.073   3.155   6.267 -0.2238 -0.4853 -0.0935
  161SAPE   HN318004   0.072   3.123   6.358  2.0740 -1.6607 -1.6668
  161SAPE   C1218005  -0.053   2.957   6.356  0.6740 -0.2329 -0.0299
  161SAPE  H12A18006  -0.074   2.879   6.280  2.3133 -1.1074  0.3819
  161SAPE  H12B18007  -0.151   2.986   6.399  0.2871  0.1683 -1.1797
  161SAPE   C1118008   0.047   2.914   6.467  0.5011  0.6690 -0.4022
  161SAPE  H11A18009   0.008   2.828   6.526  0.1096 -0.2818 -2.0186
  161SAPE  H11B18010   0.052   2.993   6.545 -0.3978  0.3206  0.0181
  161SAPE     P18011   0.235   2.739   6.389  0.1960  0.5985 -0.1364
  161SAPE   O1318012   0.124   2.664   6.330  0.1902  0.7041  0.1957
  161SAPE   O1418013   0.360   2.754   6.313 -0.0830 -0.3938 -0.1045
  161SAPE   O1218014   0.180   2.888   6.420  0.5531 -0.4951 -0.2035
  161SAPE   O1118015   0.267   2.678   6.535  0.0339 -0.2699 -0.2228
  161SAPE    C118016   0.393   2.691   6.602 -0.3271 -0.4400  1.1666
  161SAPE    HA18017   0.478   2.693   6.530 -0.5584  1.3410  0.9334
  161SAPE    HB18018   0.401   2.785   6.660  0.4889 -0.2401  0.7367
  161SAPE    C218019   0.411   2.584   6.709 -0.0557  0.1923  0.3013
  161SAPE    HS18020   0.412   2.484   6.661 -0.7769  1.4898 -2.5592
  161SAPE   O2118021   0.304   2.594   6.810 -0.5708 -0.0037  0.3911
  161SAPE   C2118022   0.205   2.505   6.803 -0.2861 -0.1983  0.5741
  161SAPE   O2218023   0.183   2.421   6.717  0.4627 -0.3441  0.3674
  161SAPE   C2218024   0.111   2.535   6.917  0.4147 -0.1091  0.2445
  161SAPE   H2R18025   0.067   2.635   6.900  0.6321  0.4183  2.6770
  161SAPE   H2S18026   0.038   2.451   6.914 -0.0298  0.2665  0.5817
  161SAPE    C318027   0.551   2.596   6.774  0.4461  0.0877  0.1801
  161SAPE    HX18028   0.546   2.700   6.812  0.9015  0.2162 -0.1065
  161SAPE    HY18029   0.633   2.589   6.699  0.0046 -0.4606 -0.2584
  161SAPE   O3118030   0.575   2.514   6.883 -0.0813 -0.3293  0.2676
  161SAPE   C3118031   0.616   2.391   6.848 -0.1276 -0.4237  0.0272
  161SAPE   O3218032   0.646   2.349   6.736  0.5919  0.3749 -0.7449
  161SAPE   C3218033   0.635   2.313   6.974  0.5953 -0.0883 -0.0836
  161SAPE   H2X18034   0.706   2.372   7.035 -1.0681  0.4501  1.3834
  161SAPE   H2Y18035   0.675   2.214   6.944 -0.7353 -0.2193 -1.4849
  161SAPE   C2318036   0.185   2.529   7.053 -0.2023 -0.7582  0.2772
  161SAPE   H3R18037   0.247   2.621   7.051  0.8206 -1.4420 -0.3703
  161SAPE   H3S18038   0.257   2.445   7.067  1.2984  0.1849 -1.5153
  161SAPE   C2418039   0.103   2.554   7.182 -0.1745  0.0134 -0.1082
  161SAPE   H4R18040   0.032   2.639   7.166 -1.5554 -0.8409  1.3255
  161SAPE   H4S18041   0.164   2.589   7.268 -0.7636 -2.1006  1.2049
  161SAPE   C2518042   0.021   2.439   7.227 -0.3280 -0.0487  0.0123
  161SAPE   H5R18043  -0.032   2.389   7.145  1.3841 -0.6813 -0.7314
  161SAPE   C2618044  -0.000   2.394   7.353  0.0690 -0.0467 -1.2210
  161SAPE   H6R18045  -0.070   2.309   7.359 -1.0672  1.0194  1.5337
  161SAPE   C2718046   0.050   2.443   7.485 -0.1504  0.1162  0.1879
  161SAPE   H7R18047  -0.018   2.408   7.565  0.1902 -0.7119  0.1218
  161SAPE   H7S18048   0.044   2.554   7.483 -1.0767  0.0612 -0.3849
  161SAPE   C2818049   0.199   2.422   7.502 -0.1896  0.0307  0.2113
  161SAPE   H8R18050   0.251   2.427   7.405 -2.6947 -0.4736 -1.1998
  161SAPE   C2918051   0.266   2.409   7.619  0.4509  0.1524 -0.1098
  161SAPE   H9R18052   0.376   2.409   7.627  0.4584 -1.6674  0.1406
  161SAPE  C21018053   0.205   2.418   7.753 -0.1574 -0.0461 -1.1958
  161SAPE  H10R18054   0.095   2.430   7.749 -0.3550 -0.6241  1.4477
  161SAPE  H10S18055   0.253   2.510   7.791  1.4988 -0.8032 -1.3982
  161SAPE  C21118056   0.234   2.313   7.858  0.7649  0.0514  0.2369
  161SAPE  H11R18057   0.153   2.240   7.870  1.0581 -0.1832  0.7688
  161SAPE  C21218058   0.344   2.304   7.932  0.3867 -0.2609 -0.2091
  161SAPE  H12R18059   0.349   2.223   8.007  1.0412  0.1362  0.1906
  161SAPE  C21318060   0.455   2.399   7.930  0.6025  0.7465 -0.3223
  161SAPE  H13R18061   0.462   2.460   7.838  0.2644  3.4358  1.3605
  161SAPE  H13S18062   0.551   2.343   7.941  1.6661  2.8842  2.0313
  161SAPE  C21418063   0.441   2.493   8.048 -0.2460  1.0026 -0.1567
  161SAPE  H14R18064   0.345   2.546   8.058 -2.1818 -1.8884 -2.7451
  161SAPE  C21518065   0.531   2.516   8.145 -0.4367 -0.1728  0.1625
  161SAPE  H15R18066   0.497   2.591   8.218 -1.6831 -2.7732  2.3447
  161SAPE  C21618067   0.668   2.452   8.154 -0.1364 -0.2482  0.0939
  161SAPE  H16R18068   0.705   2.414   8.056 -0.1715 -1.4637  0.5446
  161SAPE  H16S18069   0.680   2.361   8.215  2.8539 -2.3290 -3.3930
  161SAPE  C21718070   0.785   2.537   8.215  0.3365 -0.4861 -0.0805
  161SAPE  H17R18071   0.803   2.623   8.149  0.0233  0.0815  0.5677
  161SAPE  H17S18072   0.880   2.479   8.214 -0.1419 -1.3014  0.3680
  161SAPE  C21818073   0.754   2.590   8.349 -1.0152 -0.7933 -0.4413
  161SAPE  H18R18074   0.648   2.625   8.355 -0.9879 -1.0809  2.8786
  161SAPE  H18S18075   0.806   2.687   8.365  0.5490 -1.7219  0.2398
  161SAPE  C21918076   0.780   2.503   8.477 -0.0801  0.0805 -0.4649
  161SAPE  H19R18077   0.888   2.492   8.497 -0.4113 -0.8445  0.9685
  161SAPE  H19S18078   0.735   2.403   8.456  0.5850 -0.0105 -1.4382
  161SAPE  C22018079   0.719   2.563   8.601 -0.5560 -0.8206 -0.0461
  161SAPE  H20R18080   0.726   2.489   8.683 -2.5091 -0.9466  0.0274
  161SAPE  H20S18081   0.612   2.582   8.580  0.5165  2.9098 -2.5658
  161SAPE  H20T18082   0.769   2.655   8.638 -0.4992 -0.1353 -1.7905
  161SAPE   C3318083   0.502   2.298   7.056  0.0395  0.6121 -0.2794
  161SAPE   H3X18084   0.430   2.240   6.995  0.7060 -2.8358  2.0097
  161SAPE   H3Y18085   0.465   2.397   7.088  1.3680  0.9765  0.1737
  161SAPE   C3418086   0.524   2.209   7.188  0.7970 -0.6163  0.7320
  161SAPE   H4X18087   0.555   2.106   7.160 -0.5764 -0.9873  0.5553
  161SAPE   H4Y18088   0.429   2.187   7.239  1.1665  0.7187  2.0398
  161SAPE   C3518089   0.616   2.268   7.300  0.1303  0.2030 -0.6785
  161SAPE   H5X18090   0.592   2.376   7.295 -0.7503  0.1888  2.2285
  161SAPE   H5Y18091   0.722   2.250   7.275  0.3447 -0.6807  0.7873
  161SAPE   C3618092   0.571   2.217   7.435 -0.6006  0.1054 -0.8532
  161SAPE   H6X18093   0.466   2.245   7.460 -0.0079  1.0562  0.6068
  161SAPE   H6Y18094   0.638   2.266   7.508 -0.2318 -0.1642 -1.0094
  161SAPE   C3718095   0.600   2.066   7.465 -0.4993  0.0808 -0.2587
  161SAPE   H7X18096   0.706   2.067   7.434 -0.4080 -1.4736 -0.0565
  161SAPE   H7Y18097   0.532   2.001   7.405  0.7556 -1.7486  0.2571
  161SAPE   C3818098   0.579   2.028   7.612  0.0847  0.1853 -0.1710
  161SAPE   H8X18099   0.557   1.919   7.613 -1.0324  0.3914 -1.3407
  161SAPE   H8Y18100   0.486   2.078   7.645 -0.8285 -0.8311 -1.1648
  161SAPE   C3918101   0.690   2.068   7.699  0.8250  0.1536  0.3646
  161SAPE   H9X18102   0.718   2.176   7.694 -0.0002  0.4523  1.7718
  161SAPE   H9Y18103   0.776   2.015   7.652 -0.5151 -0.4094 -1.4665
  161SAPE  C31018104   0.657   2.030   7.849  0.5100  0.0090  0.5301
  161SAPE  H10X18105   0.641   1.920   7.854 -0.3008  0.1197  0.4745
  161SAPE  H10Y18106   0.567   2.093   7.867  1.6803  2.1315 -0.8471
  161SAPE  C31118107   0.753   2.077   7.958  0.1641  0.4140  1.0946
  161SAPE  H11X18108   0.788   2.182   7.950  2.1978 -0.1566  2.1864
  161SAPE  H11Y18109   0.841   2.010   7.945 -0.1024  0.8250 -3.6592
  161SAPE  C31218110   0.699   2.036   8.099  0.1998 -0.1009 -0.6238
  161SAPE  H12X18111   0.668   1.931   8.110 -0.4595  0.2096  0.5234
  161SAPE  H12Y18112   0.613   2.103   8.118  1.2823  1.7524 -2.0710
  161SAPE  C31318113   0.805   2.051   8.203  0.1643 -0.5331 -0.7911
  161SAPE  H13X18114   0.862   2.146   8.198 -1.5390  0.5923  0.5084
  161SAPE  H13Y18115   0.883   1.974   8.183  1.0154  0.4845 -1.4223
  161SAPE  C31418116   0.756   2.031   8.350  0.4459  0.2223  0.8889
  161SAPE  H14X18117   0.701   2.114   8.398 -0.7184 -0.9409  1.6144
  161SAPE  H14Y18118   0.855   2.015   8.398  0.2322  1.5308  1.8029
  161SAPE  C31518119   0.679   1.906   8.379 -0.1890 -0.0709 -0.2754
  161SAPE  H15X18120   0.711   1.827   8.307 -2.8287  0.2452 -1.8716
  161SAPE  H15Y18121   0.575   1.920   8.343 -0.8743 -3.2540  0.3249
  161SAPE  C31618122   0.689   1.854   8.524 -0.2413 -0.6646 -0.1811
  161SAPE  H16X18123   0.628   1.923   8.586 -1.3101 -3.1617  1.6503
  161SAPE  H16Y18124   0.794   1.847   8.560 -1.2977  1.0762  3.5625
  161SAPE  C31718125   0.612   1.722   8.552  0.2194  0.0744  0.1900
  161SAPE  H17X18126   0.649   1.636   8.492 -0.2914 -0.8093  1.1017
  161SAPE  H17Y18127   0.505   1.740   8.525 -0.1959 -2.6474 -0.1728
  161SAPE  C31818128   0.619   1.689   8.698  0.1422 -0.4882 -0.8154
  161SAPE  H18X18129   0.726   1.694   8.728  0.2414  0.0746 -1.2659
  161SAPE  H18Y18130   0.580   1.588   8.724  0.4442 -0.2726  0.5463
  161SAPE  H18Z18131   0.560   1.763   8.757 -1.6836 -1.3506 -1.5221
  162SAPE     N18132   6.424   4.473   6.327  0.2630 -0.1478  0.6935
  162SAPE   HN118133   6.420   4.439   6.425  0.0729  0.0397  0.7522
  162SAPE   HN218134   6.503   4.538   6.311 -1.9705  1.8368 -2.9980
  162SAPE   HN318135   6.338   4.531   6.319 -0.1403 -0.7334  0.7801
  162SAPE   C1218136   6.428   4.376   6.217  0.6078 -0.1612  0.2089
  162SAPE  H12A18137   6.366   4.290   6.247  1.5530 -0.2516  1.9652
  162SAPE  H12B18138   6.532   4.346   6.189  1.5539  1.7610  1.5859
  162SAPE   C1118139   6.358   4.440   6.097 -0.3354  0.1218 -0.2673
  162SAPE  H11A18140   6.353   4.375   6.007  0.1461  1.6130 -1.3974
  162SAPE  H11B18141   6.415   4.530   6.064 -0.3559 -0.1218 -0.9890
  162SAPE     P18142   6.102   4.373   6.136 -0.4702  0.1542 -0.3290
  162SAPE   O1318143   6.086   4.328   5.994  0.3423 -0.2971  0.4253
  162SAPE   O1418144   6.118   4.272   6.232 -0.1640  0.2213  0.0213
  162SAPE   O1218145   6.220   4.479   6.135 -0.2021 -0.1199  0.3666
  162SAPE   O1118146   5.984   4.462   6.166  0.5622 -0.1955 -0.1771
  162SAPE    C118147   5.958   4.532   6.287 -0.1768 -0.4209  0.3071
  162SAPE    HA18148   6.020   4.493   6.370  1.8644 -0.4307 -1.1731
  162SAPE    HB18149   5.981   4.640   6.270  0.8337 -0.6463  0.1519
  162SAPE    C218150   5.808   4.523   6.333 -0.6171  0.6868  0.2137
  162SAPE    HS18151   5.761   4.594   6.261 -0.2981 -1.2295 -1.9650
  162SAPE   O2118152   5.801   4.559   6.469  0.0471 -0.6726  0.0558
  162SAPE   C2118153   5.764   4.680   6.498 -0.1339  0.6611  0.6152
  162SAPE   O2218154   5.772   4.771   6.425  0.1345 -0.3565  0.8102
  162SAPE   C2218155   5.724   4.688   6.639 -0.4528  0.1543 -0.1995
  162SAPE   H2R18156   5.656   4.603   6.662 -0.9258 -0.2948 -3.1150
  162SAPE   H2S18157   5.810   4.678   6.709 -1.5579  0.2224  1.2127
  162SAPE    C318158   5.748   4.379   6.320  0.2201 -0.4396 -0.3081
  162SAPE    HX18159   5.821   4.311   6.368  1.2742  0.4054 -0.6889
  162SAPE    HY18160   5.755   4.349   6.213 -3.5632 -2.1132 -0.1681
  162SAPE   O3118161   5.613   4.379   6.374  1.0049 -0.2141 -0.2808
  162SAPE   C3118162   5.521   4.460   6.311  0.1132 -0.0916 -0.0763
  162SAPE   O3218163   5.531   4.512   6.198 -0.2880  0.3827  0.1429
  162SAPE   C3218164   5.391   4.476   6.406 -0.3166 -0.2460  0.2159
  162SAPE   H2X18165   5.442   4.494   6.502  0.6196  0.0262 -0.3252
  162SAPE   H2Y18166   5.339   4.378   6.396 -1.8385  0.5161  0.5246
  162SAPE   C2318167   5.616   4.803   6.667 -0.7160  0.1010  0.5814
  162SAPE   H3R18168   5.554   4.808   6.575  2.4256 -3.7453 -1.9371
  162SAPE   H3S18169   5.668   4.898   6.687  0.9914 -0.6494 -0.2026
  162SAPE   C2418170   5.519   4.774   6.783 -0.1245 -0.5379  0.3029
  162SAPE   H4R18171   5.449   4.697   6.743 -1.1158 -1.3920  3.5102
  162SAPE   H4S18172   5.451   4.861   6.794 -0.9683 -1.2973  1.2220
  162SAPE   C2518173   5.578   4.724   6.917 -0.6668 -0.4493 -0.7292
  162SAPE   H5R18174   5.623   4.623   6.909 -0.1489 -0.2507 -0.3576
  162SAPE   C2618175   5.581   4.790   7.031 -0.5194 -0.2371 -0.0416
  162SAPE   H6R18176   5.608   4.742   7.126  1.2591  0.6066 -0.0961
  162SAPE   C2718177   5.531   4.933   7.055 -0.8779 -0.1784  0.4113
  162SAPE   H7R18178   5.503   4.988   6.962  1.6702  1.1229  0.3875
  162SAPE   H7S18179   5.620   4.970   7.110 -1.3616  2.3723 -0.4463
  162SAPE   C2818180   5.412   4.933   7.139  0.2022 -0.0983 -0.0788
  162SAPE   H8R18181   5.332   4.868   7.100  1.0058 -1.7454  0.9558
  162SAPE   C2918182   5.393   5.003   7.257  0.5928  0.1461 -0.7153
  162SAPE   H9R18183   5.296   5.002   7.307  0.6190  0.3825 -0.6598
  162SAPE  C21018184   5.496   5.096   7.317  1.0876 -0.9532  0.4571
  162SAPE  H10R18185   5.443   5.185   7.358  3.7275 -0.1264  2.2515
  162SAPE  H10S18186   5.547   5.149   7.234 -0.5017  1.2172  0.8110
  162SAPE  C21118187   5.579   5.009   7.407  0.2897 -0.4349 -0.3829
  162SAPE  H11R18188   5.651   4.944   7.355  1.3314 -0.4728  1.0466
  162SAPE  C21218189   5.568   4.998   7.541 -0.3237  0.5100 -0.2584
  162SAPE  H12R18190   5.644   4.947   7.602  0.8060  2.4315 -0.0515
  162SAPE  C21318191   5.471   5.080   7.621 -0.7183  0.5964  0.0915
  162SAPE  H13R18192   5.389   5.012   7.652 -0.6627  0.1880 -0.6335
  162SAPE  H13S18193   5.424   5.158   7.558  0.4406  0.7771 -0.5690
  162SAPE  C21418194   5.535   5.150   7.744 -0.0353 -0.2914  0.2739
  162SAPE  H14R18195   5.564   5.255   7.733  0.8529 -0.6654 -1.2358
  162SAPE  C21518196   5.556   5.088   7.863  0.0730 -0.0810 -0.3620
  162SAPE  H15R18197   5.603   5.146   7.943  1.3263  1.1387 -1.9654
  162SAPE  C21618198   5.515   4.949   7.902  0.0810  0.1244  0.1601
  162SAPE  H16R18199   5.599   4.900   7.955 -0.4608 -1.1978 -0.1992
  162SAPE  H16S18200   5.476   4.888   7.818  1.3269 -0.4885  0.0230
  162SAPE  C21718201   5.402   4.965   7.996 -0.0133  0.1507 -0.7603
  162SAPE  H17R18202   5.317   5.008   7.938 -0.4269  2.6125  1.5563
  162SAPE  H17S18203   5.418   5.030   8.085  2.8280 -2.9596  1.1153
  162SAPE  C21818204   5.353   4.830   8.041  0.2638  0.0811  0.5238
  162SAPE  H18R18205   5.432   4.784   8.104 -0.0958  2.3339  2.6757
  162SAPE  H18S18206   5.342   4.768   7.949 -0.2572 -0.7391  1.1286
  162SAPE  C21918207   5.217   4.830   8.113  0.0612  0.2145  0.2705
  162SAPE  H19R18208   5.198   4.720   8.117 -1.4432  0.3071 -2.7229
  162SAPE  H19S18209   5.139   4.871   8.045  0.2726  0.9212  0.4487
  162SAPE  C22018210   5.211   4.897   8.251  0.2564 -0.2228 -0.1601
  162SAPE  H20R18211   5.253   5.000   8.244  0.1488  0.0939  2.8654
  162SAPE  H20S18212   5.274   4.838   8.322 -1.2447 -0.4474  1.0239
  162SAPE  H20T18213   5.111   4.909   8.298  1.4146 -0.1744  2.4032
  162SAPE   C3318214   5.296   4.589   6.365  0.2153 -0.1540 -0.0173
  162SAPE   H3X18215   5.258   4.569   6.263  0.2915 -2.5224  0.3666
  162SAPE   H3Y18216   5.354   4.683   6.371 -0.5301  0.4732 -2.4412
  162SAPE   C3418217   5.173   4.592   6.461 -0.1719 -0.7659  0.6612
  162SAPE   H4X18218   5.200   4.593   6.568 -1.6898 -1.0808  1.0685
  162SAPE   H4Y18219   5.124   4.492   6.457 -2.7819  0.4511  1.2815
  162SAPE   C3518220   5.073   4.705   6.436  0.0906 -0.9837 -0.1433
  162SAPE   H5X18221   5.015   4.665   6.350  1.8999 -0.4376 -1.6402
  162SAPE   H5Y18222   5.133   4.793   6.404  2.3577 -1.2531  3.1720
  162SAPE   C3618223   4.981   4.739   6.563  0.9923 -0.1352  0.1834
  162SAPE   H6X18224   4.921   4.831   6.544  1.6416 -0.1989 -2.3867
  162SAPE   H6Y18225   5.057   4.765   6.638 -0.2341  0.4543  1.2366
  162SAPE   C3718226   4.892   4.625   6.611 -0.0096 -0.3424  0.2625
  162SAPE   H7X18227   4.950   4.530   6.616 -1.1423 -1.0664 -0.2986
  162SAPE   H7Y18228   4.802   4.616   6.547  1.3071  0.6666 -1.8025
  162SAPE   C3818229   4.843   4.658   6.754  0.9603  0.7256  0.6877
  162SAPE   H8X18230   4.797   4.565   6.793  0.4643  0.2480 -1.0070
  162SAPE   H8Y18231   4.778   4.748   6.747  1.4638  0.9959 -0.6301
  162SAPE   C3918232   4.959   4.672   6.850 -0.0606  0.2744 -0.3905
  162SAPE   H9X18233   4.996   4.777   6.850 -0.5496  0.5101 -4.0965
  162SAPE   H9Y18234   5.046   4.612   6.818  0.2941  1.5495 -1.8654
  162SAPE  C31018235   4.918   4.620   6.988  0.1374 -0.2692  0.1427
  162SAPE  H10X18236   4.901   4.510   6.992 -0.6056 -0.1450  0.4469
  162SAPE  H10Y18237   4.817   4.658   7.016 -0.6527 -1.5920 -0.7781
  162SAPE  C31118238   5.031   4.639   7.101 -0.6168 -0.1898  0.2125
  162SAPE  H11X18239   5.106   4.718   7.081 -0.4650 -0.6493 -1.0874
  162SAPE  H11Y18240   5.086   4.543   7.113 -2.4135 -0.8981  3.1308
  162SAPE  C31218241   4.965   4.686   7.237 -0.1495  0.3281 -0.8313
  162SAPE  H12X18242   4.897   4.605   7.270  1.8879  0.3352  3.7296
  162SAPE  H12Y18243   4.904   4.779   7.229  1.3374  1.4518  0.4294
  162SAPE  C31318244   5.072   4.702   7.344  0.4609 -0.8183  1.8965
  162SAPE  H13X18245   5.150   4.774   7.314  0.0682 -1.0530  0.2774
  162SAPE  H13Y18246   5.125   4.605   7.360  3.9445  1.0450  2.0060
  162SAPE  C31418247   5.013   4.761   7.475  0.3615  0.2888 -0.1526
  162SAPE  H14X18248   4.931   4.698   7.515  1.5967 -0.2965  1.4981
  162SAPE  H14Y18249   4.965   4.856   7.443  0.4513 -0.2463 -1.9456
  162SAPE  C31518250   5.119   4.787   7.584 -0.0081 -0.3581 -0.1997
  162SAPE  H15X18251   5.182   4.875   7.557  0.5878 -0.9990 -0.9315
  162SAPE  H15Y18252   5.187   4.700   7.595  0.5666  0.1532  0.3061
  162SAPE  C31618253   5.061   4.824   7.724 -0.3066  0.2970  0.0048
  162SAPE  H16X18254   5.140   4.835   7.803 -0.9783 -0.7559  0.8354
  162SAPE  H16Y18255   4.996   4.745   7.767 -1.4055  2.0669  1.6817
  162SAPE  C31718256   4.966   4.946   7.735  0.4160 -0.4024 -0.8055
  162SAPE  H17X18257   4.869   4.918   7.687 -0.0962 -0.3082  0.1737
  162SAPE  H17Y18258   5.005   5.035   7.682  1.0229 -0.0762  0.1792
  162SAPE  C31818259   4.931   4.990   7.873  0.4735 -0.0434 -0.2848
  162SAPE  H18X18260   4.905   4.897   7.927  0.9578  0.3923  0.6950
  162SAPE  H18Y18261   4.853   5.069   7.873  0.6996  0.1828 -0.6576
  162SAPE  H18Z18262   5.020   5.021   7.932  1.0832 -2.0142 -0.1410
  163SAPE     N18263   4.516   3.620   6.289  0.3654  0.2831  0.0808
  163SAPE   HN118264   4.531   3.644   6.189 -0.7284 -0.0346 -0.1659
  163SAPE   HN218265   4.453   3.693   6.327  1.0860  0.0014  1.8575
  163SAPE   HN318266   4.608   3.627   6.336  1.6795 -1.2423 -2.1524
  163SAPE   C1218267   4.458   3.473   6.285 -0.0919  0.3159  0.3066
  163SAPE  H12A18268   4.532   3.418   6.224  1.8291  1.9983  1.0497
  163SAPE  H12B18269   4.360   3.472   6.233 -0.5226  1.7417  1.0498
  163SAPE   C1118270   4.463   3.418   6.430 -0.3533 -0.1975 -0.5146
  163SAPE  H11A18271   4.387   3.477   6.486  0.0285 -0.7617  0.6096
  163SAPE  H11B18272   4.564   3.429   6.476 -0.7465 -0.8930  0.5513
  163SAPE     P18273   4.510   3.174   6.513  0.6990 -0.4120 -0.1710
  163SAPE   O1318274   4.423   3.055   6.517  0.5406 -0.0842  0.1562
  163SAPE   O1418275   4.640   3.164   6.444  0.6537 -0.2035  0.2758
  163SAPE   O1218276   4.427   3.289   6.439  0.3046 -0.3263 -0.1162
  163SAPE   O1118277   4.534   3.234   6.660  0.0379 -0.4976  0.6404
  163SAPE    C118278   4.427   3.289   6.741  0.0488 -0.7774 -0.3849
  163SAPE    HA18279   4.435   3.400   6.743 -1.9071 -0.6252 -0.4551
  163SAPE    HB18280   4.332   3.273   6.685 -0.5711 -0.5812  0.6062
  163SAPE    C218281   4.408   3.219   6.870  0.0430  0.2414  0.3122
  163SAPE    HS18282   4.322   3.268   6.922  1.3708  1.6097  1.2622
  163SAPE   O2118283   4.527   3.220   6.951 -0.0392 -0.1550  0.9361
  163SAPE   C2118284   4.545   3.323   7.028 -0.5629 -0.0754 -0.4488
  163SAPE   O2218285   4.468   3.412   7.048 -0.2499 -0.1035  0.2386
  163SAPE   C2218286   4.678   3.301   7.105 -0.1729  0.5005 -0.6251
  163SAPE   H2R18287   4.749   3.257   7.031  0.4271  0.9826 -0.3475
  163SAPE   H2S18288   4.709   3.406   7.127 -0.1863  0.3137  0.3232
  163SAPE    C318289   4.351   3.076   6.832 -0.4917  0.0088 -0.0789
  163SAPE    HX18290   4.437   3.015   6.798 -0.7329 -2.1482  3.0120
  163SAPE    HY18291   4.275   3.080   6.751 -2.8162 -0.4921  2.0192
  163SAPE   O3118292   4.280   3.020   6.942 -0.0887 -0.7079  0.2462
  163SAPE   C3118293   4.350   2.924   7.011 -0.4728 -0.4361 -0.4473
  163SAPE   O3218294   4.468   2.901   6.994  0.3033 -0.0680 -0.1281
  163SAPE   C3218295   4.264   2.869   7.121 -0.9283  0.4380 -0.9960
  163SAPE   H2X18296   4.261   2.759   7.110 -1.0689  0.2712  0.6128
  163SAPE   H2Y18297   4.158   2.903   7.113 -0.8937  0.5179 -1.1131
  163SAPE   C2318298   4.650   3.208   7.224  0.1437 -0.0934 -0.3112
  163SAPE   H3R18299   4.752   3.182   7.260 -0.6081 -2.0927  0.4088
  163SAPE   H3S18300   4.594   3.117   7.196 -0.2863  0.0875 -0.0544
  163SAPE   C2418301   4.568   3.284   7.342  0.1071  0.5392  0.1733
  163SAPE   H4R18302   4.467   3.319   7.311 -1.0939  0.1726  3.4811
  163SAPE   H4S18303   4.624   3.376   7.369  0.0403  0.0807  1.8795
  163SAPE   C2518304   4.553   3.203   7.463 -0.7325 -0.7558 -0.0411
  163SAPE   H5R18305   4.513   3.101   7.454 -1.1918 -0.5752 -0.0378
  163SAPE   C2618306   4.567   3.253   7.585  0.9345  1.0149  0.1906
  163SAPE   H6R18307   4.560   3.185   7.671  1.2822  0.3102 -0.3344
  163SAPE   C2718308   4.599   3.399   7.613  0.1765  0.7663 -0.1501
  163SAPE   H7R18309   4.561   3.425   7.714  0.7137 -0.7296  0.4516
  163SAPE   H7S18310   4.536   3.459   7.544 -1.1006 -0.4942 -0.1260
  163SAPE   C2818311   4.748   3.440   7.601  0.3195 -0.1684  0.2708
  163SAPE   H8R18312   4.786   3.463   7.501 -0.3239 -0.3875 -0.0253
  163SAPE   C2918313   4.842   3.446   7.702  0.3469 -1.0850  0.2908
  163SAPE   H9R18314   4.948   3.461   7.679  0.1396  0.5062  0.3006
  163SAPE  C21018315   4.818   3.410   7.847  0.1309 -0.2930 -0.3078
  163SAPE  H10R18316   4.841   3.302   7.862 -1.2033 -0.6996 -1.0590
  163SAPE  H10S18317   4.714   3.418   7.885  1.0246  0.6320  2.0271
  163SAPE  C21118318   4.902   3.496   7.938  0.1567 -0.2390  0.1994
  163SAPE  H11R18319   4.891   3.605   7.939 -2.2377 -0.4154 -1.3677
  163SAPE  C21218320   4.979   3.437   8.027 -1.0937 -0.1737  0.1385
  163SAPE  H12R18321   5.039   3.504   8.090 -0.3370 -0.5393 -0.1892
  163SAPE  C21318322   5.018   3.290   8.058 -0.1409 -0.0777  0.1787
  163SAPE  H13R18323   4.944   3.211   8.032 -0.2977  0.9265 -2.6096
  163SAPE  H13S18324   5.034   3.290   8.168 -0.7066 -0.6859  0.2650
  163SAPE  C21418325   5.137   3.247   7.977  0.3923  0.1445  0.0172
  163SAPE  H14R18326   5.113   3.264   7.871 -1.7127  3.0922  0.8799
  163SAPE  C21518327   5.258   3.200   8.017 -0.4606 -0.0567  0.4348
  163SAPE  H15R18328   5.328   3.176   7.936  0.1310 -0.5707  1.0930
  163SAPE  C21618329   5.309   3.179   8.160  0.3793  0.4352  0.2697
  163SAPE  H16R18330   5.237   3.128   8.227 -0.7429  1.0264 -0.4734
  163SAPE  H16S18331   5.294   3.280   8.205 -1.7207 -0.7398  2.3438
  163SAPE  C21718332   5.452   3.124   8.177  0.4214 -0.6473 -0.1700
  163SAPE  H17R18333   5.509   3.182   8.102 -2.1099  1.9330 -0.1572
  163SAPE  H17S18334   5.455   3.024   8.128  0.5137  0.6263 -2.8277
  163SAPE  C21818335   5.507   3.121   8.320  0.4943 -0.0664 -0.3436
  163SAPE  H18R18336   5.469   3.214   8.368  0.0060  0.5594 -1.9133
  163SAPE  H18S18337   5.618   3.125   8.318  0.5203 -0.6153 -0.1102
  163SAPE  C21918338   5.450   3.001   8.399 -1.0568  0.1296  0.8275
  163SAPE  H19R18339   5.340   3.009   8.410 -1.1106 -0.1447  0.4866
  163SAPE  H19S18340   5.503   3.002   8.497  0.6652 -2.0116 -0.0317
  163SAPE  C22018341   5.500   2.866   8.343  0.0592  0.1482 -0.0788
  163SAPE  H20R18342   5.460   2.784   8.406 -1.3862  1.3583  0.6059
  163SAPE  H20S18343   5.608   2.878   8.317 -0.1080 -0.4403 -1.0980
  163SAPE  H20T18344   5.440   2.845   8.251  0.0181 -0.7954  0.1570
  163SAPE   C3318345   4.321   2.909   7.254  0.1525  0.6723 -0.5930
  163SAPE   H3X18346   4.324   3.019   7.270 -0.4711  0.6034 -0.0100
  163SAPE   H3Y18347   4.425   2.871   7.264 -0.3810 -1.2483 -1.9448
  163SAPE   C3418348   4.225   2.868   7.365  0.2069  0.0598  0.1223
  163SAPE   H4X18349   4.200   2.760   7.358  0.6735 -0.0881  0.7466
  163SAPE   H4Y18350   4.130   2.925   7.354 -0.7261 -1.8173 -1.9590
  163SAPE   C3518351   4.286   2.912   7.500  0.5638  0.4386 -0.0854
  163SAPE   H5X18352   4.342   3.007   7.482  0.4494  0.3543 -0.9009
  163SAPE   H5Y18353   4.370   2.844   7.525 -0.8986 -1.0136  0.9542
  163SAPE   C3618354   4.186   2.911   7.620  0.4874  0.2191  0.7988
  163SAPE   H6X18355   4.198   2.814   7.672  0.9995  0.4368  1.0937
  163SAPE   H6Y18356   4.084   2.903   7.578  0.8706 -0.7002  0.0493
  163SAPE   C3718357   4.210   3.028   7.708 -0.6597 -0.7004 -0.4490
  163SAPE   H7X18358   4.129   3.076   7.768 -0.0620  1.2464 -1.1508
  163SAPE   H7Y18359   4.240   3.111   7.641  1.5183 -1.2623 -0.1810
  163SAPE   C3818360   4.310   3.002   7.819 -0.9446  0.4927  0.3744
  163SAPE   H8X18361   4.407   2.953   7.794 -1.2168 -0.2895  0.8252
  163SAPE   H8Y18362   4.253   2.931   7.883 -1.7857  0.1251 -0.7580
  163SAPE   C3918363   4.336   3.129   7.901  0.6985  0.3449 -0.9377
  163SAPE   H9X18364   4.240   3.149   7.953  1.3431  0.4572  0.2424
  163SAPE   H9Y18365   4.355   3.211   7.828 -0.1610  0.4468 -1.0494
  163SAPE  C31018366   4.457   3.108   7.998 -0.3879 -0.1886  0.0026
  163SAPE  H10X18367   4.554   3.092   7.946 -0.7894 -2.0372 -0.2133
  163SAPE  H10Y18368   4.426   3.028   8.070 -0.2720  1.3102  1.7651
  163SAPE  C31118369   4.478   3.225   8.093 -0.1520 -0.0424 -0.1151
  163SAPE  H11X18370   4.406   3.219   8.177  0.3190 -1.7977  0.1830
  163SAPE  H11Y18371   4.472   3.317   8.031  0.0698  0.9234  1.2845
  163SAPE  C31218372   4.613   3.209   8.156 -0.1631  0.1350 -0.3225
  163SAPE  H12X18373   4.696   3.228   8.085 -0.2540 -1.9670 -1.0405
  163SAPE  H12Y18374   4.608   3.105   8.196  2.0946  0.9135  2.1252
  163SAPE  C31318375   4.639   3.305   8.274  0.0676  0.1039  0.3847
  163SAPE  H13X18376   4.565   3.278   8.351  1.9970 -1.9818  1.5563
  163SAPE  H13Y18377   4.623   3.411   8.245  1.2347  0.7200  1.9107
  163SAPE  C31418378   4.779   3.284   8.342  0.1248  0.2663 -0.3647
  163SAPE  H14X18379   4.856   3.290   8.261  0.0851  1.5344 -0.3104
  163SAPE  H14Y18380   4.787   3.175   8.361  2.1164  0.2171 -1.3545
  163SAPE  C31518381   4.805   3.364   8.467  0.3154 -0.3286  0.1122
  163SAPE  H15X18382   4.802   3.474   8.448  0.1168 -0.6708 -1.9525
  163SAPE  H15Y18383   4.913   3.341   8.481  0.0366 -0.6341  1.9282
  163SAPE  C31618384   4.719   3.319   8.584  0.0096 -0.6046  0.4950
  163SAPE  H16X18385   4.718   3.208   8.576  3.5104 -0.7081  0.5700
  163SAPE  H16Y18386   4.613   3.349   8.573 -0.4186 -2.8539 -1.8127
  163SAPE  C31718387   4.753   3.374   8.728  0.1608  0.5869 -0.6505
  163SAPE  H17X18388   4.794   3.473   8.697 -0.6964  0.6219 -1.7267
  163SAPE  H17Y18389   4.841   3.331   8.779 -0.6432  1.0883  1.1909
  163SAPE  C31818390   4.638   3.387   8.830 -0.5333  0.1019  0.2874
  163SAPE  H18X18391   4.602   3.291   8.873  1.1580 -0.3617  0.7045
  163SAPE  H18Y18392   4.555   3.444   8.783 -0.6626 -0.8471 -0.6745
  163SAPE  H18Z18393   4.671   3.439   8.922 -0.3104 -0.6605  0.6459
  164SAPE     N18394   0.703   0.523   5.712  0.0869  0.3537 -0.1280
  164SAPE   HN118395   0.633   0.448   5.730  0.3386  0.6099  2.0391
  164SAPE   HN218396   0.699   0.599   5.783 -0.9556  1.1228 -0.9979
  164SAPE   HN318397   0.686   0.555   5.614 -0.2139  0.6217  0.0116
  164SAPE   C1218398   0.839   0.458   5.708  0.1138 -0.0095  0.0555
  164SAPE  H12A18399   0.914   0.540   5.702  1.7318 -1.2631  2.2092
  164SAPE  H12B18400   0.844   0.380   5.630 -0.0277 -1.4495  1.4526
  164SAPE   C1118401   0.873   0.375   5.836  0.6719 -0.4867 -0.2225
  164SAPE  H11A18402   0.862   0.441   5.925  1.1906 -1.9662  0.9508
  164SAPE  H11B18403   0.978   0.338   5.832  0.6100 -0.6187 -0.6347
  164SAPE     P18404   0.685   0.223   5.952  0.1182 -0.1891 -0.4385
  164SAPE   O1318405   0.557   0.289   5.919 -0.8974 -0.2805 -0.2396
  164SAPE   O1418406   0.665   0.078   5.965  0.0101  0.1315 -0.3721
  164SAPE   O1218407   0.795   0.258   5.842 -0.2275 -0.0269  0.1886
  164SAPE   O1118408   0.745   0.289   6.080 -0.5714 -0.8283 -0.1055
  164SAPE    C118409   0.842   0.237   6.165 -0.7500  0.6017 -0.2159
  164SAPE    HA18410   0.893   0.150   6.117  0.5770  1.6369 -0.7202
  164SAPE    HB18411   0.925   0.311   6.174 -0.2341 -0.0056  0.0654
  164SAPE    C218412   0.795   0.214   6.311 -0.5090 -0.9213 -0.3648
  164SAPE    HS18413   0.887   0.192   6.369 -1.4180 -0.7607  1.1716
  164SAPE   O2118414   0.706   0.109   6.331  0.5500  0.4331 -0.4698
  164SAPE   C2118415   0.753  -0.004   6.318 -0.1621 -0.4995 -0.3254
  164SAPE   O2218416   0.869  -0.036   6.303 -0.5332  0.6941  0.7954
  164SAPE   C2218417   0.640  -0.107   6.319 -0.4428 -0.2802  0.8754
  164SAPE   H2R18418   0.540  -0.059   6.314 -0.9738 -1.3969  0.7314
  164SAPE   H2S18419   0.663  -0.173   6.233  1.7872  3.4751 -1.5619
  164SAPE    C318420   0.741   0.344   6.375 -0.2427  0.7136  0.1440
  164SAPE    HX18421   0.650   0.367   6.315 -0.1125 -0.6948 -0.5806
  164SAPE    HY18422   0.818   0.424   6.367  0.1369  0.1499 -2.0684
  164SAPE   O3118423   0.684   0.326   6.504 -0.3505  0.0153  0.5119
  164SAPE   C3118424   0.771   0.311   6.605 -0.3773 -0.6174 -0.3501
  164SAPE   O3218425   0.889   0.283   6.593 -0.1913  0.2165 -0.0163
  164SAPE   C3218426   0.687   0.335   6.731 -0.0365 -0.1637 -0.1616
  164SAPE   H2X18427   0.580   0.308   6.731  0.5490 -2.6413 -0.3640
  164SAPE   H2Y18428   0.672   0.445   6.731  0.1287 -0.1020 -3.7771
  164SAPE   C2318429   0.634  -0.203   6.442 -0.2416 -0.7249  0.2179
  164SAPE   H3R18430   0.738  -0.228   6.473  0.4697  2.6248  0.6715
  164SAPE   H3S18431   0.587  -0.294   6.398 -0.9030 -1.6792  2.7645
  164SAPE   C2418432   0.554  -0.157   6.559 -0.8815 -0.2074  0.1830
  164SAPE   H4R18433   0.546  -0.240   6.633 -0.6217 -1.5881 -1.3171
  164SAPE   H4S18434   0.449  -0.128   6.541 -0.6259 -0.3994 -1.6843
  164SAPE   C2518435   0.627  -0.047   6.636 -0.0551  0.0644  0.6348
  164SAPE   H5R18436   0.582   0.051   6.618 -1.2260 -0.7305 -0.9286
  164SAPE   C2618437   0.727  -0.069   6.721  0.2741 -0.6327  0.0469
  164SAPE   H6R18438   0.766   0.016   6.780 -1.2442  0.0965  0.0274
  164SAPE   C2718439   0.787  -0.192   6.771 -0.6607 -0.0159 -0.7777
  164SAPE   H7R18440   0.750  -0.277   6.710 -3.5610  0.9066 -0.3807
  164SAPE   H7S18441   0.753  -0.213   6.875 -0.0645 -0.9290 -0.7648
  164SAPE   C2818442   0.935  -0.179   6.769 -0.4241  0.2662 -1.0159
  164SAPE   H8R18443   0.974  -0.207   6.670  1.3591  1.1878 -0.5950
  164SAPE   C2918444   1.024  -0.156   6.868  0.6323 -0.2714 -0.2022
  164SAPE   H9R18445   1.132  -0.149   6.850  0.9943 -1.6867  1.2691
  164SAPE  C21018446   0.983  -0.143   7.021 -0.0399 -0.4335 -0.1623
  164SAPE  H10R18447   1.062  -0.180   7.090  0.2044  1.9326  0.8610
  164SAPE  H10S18448   0.887  -0.196   7.041  0.4434 -0.9157  0.9237
  164SAPE  C21118449   0.953   0.001   7.049  0.0588 -0.1589 -0.1346
  164SAPE  H11R18450   1.006   0.074   6.985 -0.7312  0.0387 -0.5625
  164SAPE  C21218451   0.870   0.056   7.135  0.2351  0.2947  0.0083
  164SAPE  H12R18452   0.863   0.166   7.132 -0.3187  0.3932  3.3879
  164SAPE  C21318453   0.768  -0.011   7.223 -0.0928 -0.5767 -0.1142
  164SAPE  H13R18454   0.829  -0.069   7.296  2.2076  1.5464 -0.2877
  164SAPE  H13S18455   0.715  -0.083   7.157  1.9863 -2.2312 -0.0625
  164SAPE  C21418456   0.678   0.082   7.307 -0.1479  1.1438  0.1596
  164SAPE  H14R18457   0.577   0.088   7.264 -0.8075 -1.1893  1.2729
  164SAPE  C21518458   0.697   0.176   7.399 -0.3670  0.1359  0.0100
  164SAPE  H15R18459   0.610   0.232   7.436 -0.3015  0.1637  0.1218
  164SAPE  C21618460   0.835   0.200   7.452  0.6061 -0.5789  0.4335
  164SAPE  H16R18461   0.906   0.250   7.384 -1.4826  0.1417 -1.2769
  164SAPE  H16S18462   0.880   0.098   7.459 -2.0170 -1.7762  0.7118
  164SAPE  C21718463   0.828   0.282   7.584  0.9955 -0.5033 -0.1574
  164SAPE  H17R18464   0.755   0.366   7.581  0.5464 -0.6324  3.9365
  164SAPE  H17S18465   0.924   0.333   7.607 -0.2926  0.2935  3.8052
  164SAPE  C21818466   0.801   0.192   7.703  0.4643 -0.3009 -0.3302
  164SAPE  H18R18467   0.896   0.136   7.720  1.1551  0.9804  0.1313
  164SAPE  H18S18468   0.717   0.122   7.687  0.2907 -0.2822  0.4837
  164SAPE  C21918469   0.747   0.268   7.832  0.4991 -0.4459 -0.0024
  164SAPE  H19R18470   0.749   0.192   7.913 -1.7213  0.5180  0.9936
  164SAPE  H19S18471   0.642   0.290   7.805  0.7814  0.8424 -0.1156
  164SAPE  C22018472   0.826   0.390   7.874 -1.0116 -0.2054 -0.1974
  164SAPE  H20R18473   0.782   0.462   7.946 -0.5235  1.4911 -1.5718
  164SAPE  H20S18474   0.835   0.447   7.780  0.9332  0.2025  0.2237
  164SAPE  H20T18475   0.924   0.357   7.915 -0.7393 -1.0722 -1.5059
  164SAPE   C3318476   0.764   0.305   6.868 -0.4088  0.1762 -0.1285
  164SAPE   H3X18477   0.872   0.290   6.847 -0.3785  0.2986 -0.0574
  164SAPE   H3Y18478   0.735   0.204   6.906  1.0296  0.9222  3.1172
  164SAPE   C3418479   0.752   0.404   6.984 -0.6558 -0.3419 -0.1055
  164SAPE   H4X18480   0.800   0.501   6.962  1.5461 -1.1305  1.0677
  164SAPE   H4Y18481   0.792   0.360   7.078  1.3726  0.2848 -0.6488
  164SAPE   C3518482   0.605   0.432   7.018  1.3331 -0.3613 -0.1579
  164SAPE   H5X18483   0.565   0.344   7.073 -2.2651  0.6883 -0.9837
  164SAPE   H5Y18484   0.549   0.456   6.925  0.7031 -0.5919  0.1610
  164SAPE   C3618485   0.579   0.551   7.114  0.0416 -0.4937  0.1641
  164SAPE   H6X18486   0.470   0.570   7.127 -0.2916 -2.9675  1.4283
  164SAPE   H6Y18487   0.618   0.642   7.065 -0.3043  0.3618  1.4623
  164SAPE   C3718488   0.633   0.533   7.253  0.2751 -0.7624  0.3589
  164SAPE   H7X18489   0.741   0.514   7.271  0.7272 -0.8628 -2.3316
  164SAPE   H7Y18490   0.574   0.443   7.283 -1.5226  0.3399  0.2466
  164SAPE   C3818491   0.599   0.660   7.338 -0.8369  0.6653  0.1024
  164SAPE   H8X18492   0.489   0.666   7.327 -0.7258  0.9079 -0.9454
  164SAPE   H8Y18493   0.640   0.756   7.301 -1.5200  0.9592  0.1047
  164SAPE   C3918494   0.635   0.645   7.484 -0.1743  0.1605  0.0942
  164SAPE   H9X18495   0.745   0.644   7.491 -0.2218  1.9214  1.2418
  164SAPE   H9Y18496   0.585   0.558   7.531 -0.1216  0.3544  0.5040
  164SAPE  C31018497   0.582   0.765   7.567 -1.2909 -0.5962  0.0901
  164SAPE  H10X18498   0.472   0.772   7.568 -1.1028  3.0573  0.0506
  164SAPE  H10Y18499   0.616   0.855   7.511  0.6761 -0.2406  1.7798
  164SAPE  C31118500   0.634   0.773   7.710  0.8681 -0.4905  0.3214
  164SAPE  H11X18501   0.744   0.786   7.718  0.9298 -0.5052 -0.5273
  164SAPE  H11Y18502   0.604   0.684   7.769 -0.7774  0.4912  1.0265
  164SAPE  C31218503   0.586   0.889   7.799  0.3094 -0.1997 -0.1501
  164SAPE  H12X18504   0.478   0.875   7.820 -0.1315 -1.2856 -2.9248
  164SAPE  H12Y18505   0.606   0.981   7.739  3.6356 -0.9362 -0.2938
  164SAPE  C31318506   0.658   0.876   7.936 -0.1007 -0.6621 -0.7641
  164SAPE  H13X18507   0.768   0.886   7.935 -0.2398  1.0501 -0.8732
  164SAPE  H13Y18508   0.628   0.775   7.971 -1.7221 -0.0587 -0.3561
  164SAPE  C31418509   0.604   0.989   8.030  0.1972 -0.1661  0.4299
  164SAPE  H14X18510   0.496   0.965   8.028 -0.2212  1.6966 -1.9808
  164SAPE  H14Y18511   0.625   1.093   7.995 -0.7169  0.7276  2.4849
  164SAPE  C31518512   0.654   0.974   8.173  0.0099  0.0711  0.1379
  164SAPE  H15X18513   0.618   1.072   8.213  0.5371  0.4713 -0.3613
  164SAPE  H15Y18514   0.764   0.972   8.166  0.0221 -0.1100  0.3806
  164SAPE  C31618515   0.595   0.856   8.243  0.5714  0.3328 -0.4857
  164SAPE  H16X18516   0.631   0.772   8.179 -2.4451 -0.1986 -1.5793
  164SAPE  H16Y18517   0.486   0.838   8.248  0.6306  0.0040 -0.2916
  164SAPE  C31718518   0.654   0.842   8.390  1.1351 -0.7179 -0.2614
  164SAPE  H17X18519   0.764   0.827   8.385  0.8685 -3.6676  1.3114
  164SAPE  H17Y18520   0.612   0.746   8.428  0.5684 -0.4859 -0.3017
  164SAPE  C31818521   0.608   0.953   8.488  0.5069 -1.1320  0.2763
  164SAPE  H18X18522   0.638   1.053   8.449 -1.6990 -1.0163 -1.2642
  164SAPE  H18Y18523   0.647   0.946   8.591 -1.7480 -1.4605  1.1410
  164SAPE  H18Z18524   0.497   0.951   8.494  0.4044  2.0591  0.2109
  165SAPE     N18525   0.806   3.095   5.905  0.7258  0.1992  1.0804
  165SAPE   HN118526   0.718   3.099   5.961 -0.6005 -0.4930 -0.9267
  165SAPE   HN218527   0.806   3.054   5.810  1.2024 -0.0627  1.1901
  165SAPE   HN318528   0.872   3.058   5.977 -0.9240 -0.7094  2.1795
  165SAPE   C1218529   0.852   3.235   5.903 -0.4289 -0.3195 -0.3102
  165SAPE  H12A18530   0.767   3.294   5.861 -0.5310 -1.0089 -1.0915
  165SAPE  H12B18531   0.939   3.231   5.835 -0.3957 -1.3941 -0.2156
  165SAPE   C1118532   0.903   3.281   6.041  0.1672  0.0362  0.2288
  165SAPE  H11A18533   0.810   3.302   6.097  0.7377 -1.6284  1.8300
  165SAPE  H11B18534   0.965   3.373   6.031 -2.2159  1.6127 -0.6323
  165SAPE     P18535   1.036   3.216   6.250  0.1744  0.0974 -0.1839
  165SAPE   O1318536   1.083   3.089   6.312 -0.6249 -0.9282  0.4414
  165SAPE   O1418537   1.130   3.325   6.227 -1.0664 -0.7955 -0.0395
  165SAPE   O1218538   0.975   3.181   6.109 -0.1723  0.5169  0.6254
  165SAPE   O1118539   0.912   3.269   6.333  0.2315  0.4388 -0.1563
  165SAPE    C118540   0.911   3.402   6.388 -0.0115 -0.1848  0.1272
  165SAPE    HA18541   1.013   3.445   6.380  0.3064 -1.3586 -2.6757
  165SAPE    HB18542   0.850   3.471   6.326 -0.3503 -0.8921 -0.3313
  165SAPE    C218543   0.849   3.394   6.531 -0.4900 -0.1740  0.1264
  165SAPE    HS18544   0.853   3.494   6.580  0.1828 -1.8423  3.5934
  165SAPE   O2118545   0.911   3.287   6.611  0.1696 -0.0065  0.2658
  165SAPE   C2118546   1.039   3.319   6.635  0.2327 -0.0045  0.0974
  165SAPE   O2218547   1.099   3.422   6.612 -0.3612 -0.0055  0.1148
  165SAPE   C2218548   1.104   3.195   6.695  0.4973  0.4892 -0.1538
  165SAPE   H2R18549   1.026   3.125   6.733  0.5238  0.5112 -0.0596
  165SAPE   H2S18550   1.168   3.147   6.617  1.7400  2.0257 -0.0968
  165SAPE    C318551   0.693   3.363   6.516  0.0522  0.0495 -0.1896
  165SAPE    HX18552   0.661   3.299   6.431  0.6524 -1.7503  0.9050
  165SAPE    HY18553   0.641   3.458   6.493 -0.9615 -1.0291 -2.5522
  165SAPE   O3118554   0.641   3.306   6.634  0.1143 -0.0690  0.1567
  165SAPE   C3118555   0.631   3.388   6.744 -0.4793 -0.2919 -0.2684
  165SAPE   O3218556   0.647   3.509   6.742 -0.5925 -0.0879 -0.4065
  165SAPE   C3218557   0.601   3.309   6.867  0.9324 -0.5735 -0.4697
  165SAPE   H2X18558   0.511   3.248   6.842  2.2789 -1.8302 -2.4201
  165SAPE   H2Y18559   0.581   3.384   6.946  0.3557 -0.8195 -0.3733
  165SAPE   C2318560   1.192   3.239   6.813  0.3416 -0.1727 -0.0846
  165SAPE   H3R18561   1.144   3.315   6.877 -0.4327 -0.5142 -0.2516
  165SAPE   H3S18562   1.284   3.280   6.765 -0.4043  0.5428 -0.9032
  165SAPE   C2418563   1.220   3.118   6.913  0.3380 -0.2341  0.4131
  165SAPE   H4R18564   1.210   3.028   6.849  1.1355 -0.4671  0.6164
  165SAPE   H4S18565   1.149   3.129   6.998  0.8150 -0.1839  0.8061
  165SAPE   C2518566   1.360   3.137   6.956 -0.2375  0.0644  0.6974
  165SAPE   H5R18567   1.429   3.108   6.876  0.4847  1.5228  0.7744
  165SAPE   C2618568   1.402   3.175   7.078 -0.4062  0.0893  0.0417
  165SAPE   H6R18569   1.511   3.175   7.097 -0.6323  0.1946  1.3968
  165SAPE   C2718570   1.326   3.219   7.199  0.3268 -0.4677  0.1741
  165SAPE   H7R18571   1.301   3.133   7.264 -1.0298  0.2715  0.6660
  165SAPE   H7S18572   1.237   3.270   7.155 -1.0640 -3.0569 -0.1482
  165SAPE   C2818573   1.392   3.317   7.289  0.5004  0.2571 -0.4800
  165SAPE   H8R18574   1.438   3.408   7.246  1.3678 -0.1838 -0.4937
  165SAPE   C2918575   1.394   3.311   7.426 -0.5754 -0.2199  0.2475
  165SAPE   H9R18576   1.438   3.398   7.478  0.9076 -0.3597 -0.7372
  165SAPE  C21018577   1.342   3.204   7.517  0.2441 -0.1993  0.3585
  165SAPE  H10R18578   1.323   3.111   7.459 -0.7802  0.8278 -0.9794
  165SAPE  H10S18579   1.240   3.241   7.541  0.6878  0.2382  1.6169
  165SAPE  C21118580   1.424   3.174   7.640 -0.4945  0.0072 -0.3885
  165SAPE  H11R18581   1.482   3.080   7.640  1.4365  1.1747 -1.3996
  165SAPE  C21218582   1.430   3.243   7.751 -0.0905  0.1151 -0.0473
  165SAPE  H12R18583   1.493   3.209   7.835  0.8372  1.2896 -0.2598
  165SAPE  C21318584   1.354   3.366   7.774 -0.1284 -0.6123 -0.0179
  165SAPE  H13R18585   1.316   3.364   7.878  0.1724 -1.3677  0.0773
  165SAPE  H13S18586   1.258   3.370   7.718 -0.0281  1.8010 -0.0699
  165SAPE  C21418587   1.441   3.488   7.750 -0.3970 -0.3013 -0.6668
  165SAPE  H14R18588   1.414   3.546   7.660 -0.8249  0.7849  0.1499
  165SAPE  C21518589   1.539   3.533   7.834  0.2443  0.6890 -0.2186
  165SAPE  H15R18590   1.596   3.621   7.802  1.3849  1.1075  2.7319
  165SAPE  C21618591   1.576   3.461   7.963 -1.0559  0.3965  1.1597
  165SAPE  H16R18592   1.680   3.424   7.946 -0.4962  2.5055 -0.3063
  165SAPE  H16S18593   1.504   3.381   7.987 -1.7835  0.8950  0.6609
  165SAPE  C21718594   1.584   3.560   8.082 -0.5076 -0.1454  0.3654
  165SAPE  H17R18595   1.645   3.649   8.054  1.8085 -1.0175  2.4282
  165SAPE  H17S18596   1.622   3.515   8.176 -0.0073  0.8148  0.6276
  165SAPE  C21818597   1.457   3.621   8.128  0.3835 -0.3403 -0.1146
  165SAPE  H18R18598   1.392   3.539   8.163 -0.2274  0.1961  0.0264
  165SAPE  H18S18599   1.400   3.656   8.039  0.4311  1.1955  0.4323
  165SAPE  C21918600   1.477   3.735   8.234 -0.0203 -0.0723 -0.3523
  165SAPE  H19R18601   1.399   3.814   8.225  1.2971  1.4867  1.5227
  165SAPE  H19S18602   1.575   3.784   8.216  0.0700  0.2177  0.8788
  165SAPE  C22018603   1.472   3.688   8.378  0.4070 -0.0364  0.2859
  165SAPE  H20R18604   1.554   3.614   8.377  0.4788  0.0061  1.7112
  165SAPE  H20S18605   1.376   3.638   8.402  0.3639  0.2225  0.6667
  165SAPE  H20T18606   1.492   3.772   8.448 -4.2018  1.8045 -0.4043
  165SAPE   C3318607   0.720   3.227   6.918 -0.2021  0.5138  0.2773
  165SAPE   H3X18608   0.795   3.298   6.958 -0.4481  1.0411 -0.1999
  165SAPE   H3Y18609   0.774   3.172   6.839  1.0691  0.8604  0.8999
  165SAPE   C3418610   0.691   3.135   7.046  0.3268 -0.6793 -0.5123
  165SAPE   H4X18611   0.773   3.072   7.088  0.4646  1.3483  2.3920
  165SAPE   H4Y18612   0.616   3.065   7.002  0.9849  0.3163 -3.3690
  165SAPE   C3518613   0.622   3.216   7.154  0.0219 -0.3587  0.7458
  165SAPE   H5X18614   0.546   3.287   7.116 -0.9002 -1.4519  0.5065
  165SAPE   H5Y18615   0.699   3.280   7.202 -0.6171  1.0935 -0.1232
  165SAPE   C3618616   0.568   3.116   7.243  0.0049  0.2298  0.3653
  165SAPE   H6X18617   0.637   3.033   7.272 -2.9091 -2.1369  0.8055
  165SAPE   H6Y18618   0.487   3.071   7.182 -0.3081  0.9707  0.2333
  165SAPE   C3718619   0.505   3.171   7.367 -0.1693  0.6344  0.3211
  165SAPE   H7X18620   0.435   3.103   7.419  0.2300 -0.3823 -0.4664
  165SAPE   H7Y18621   0.454   3.264   7.333 -0.7152  0.4166  0.5355
  165SAPE   C3818622   0.612   3.202   7.481  0.3823 -0.2417  0.1159
  165SAPE   H8X18623   0.698   3.267   7.454  1.4389 -1.1308  1.2928
  165SAPE   H8Y18624   0.658   3.104   7.503 -2.1901 -1.6758 -0.7896
  165SAPE   C3918625   0.547   3.266   7.604  0.1213 -0.7803  1.1299
  165SAPE   H9X18626   0.458   3.325   7.573  1.3366  0.5605  0.1098
  165SAPE   H9Y18627   0.612   3.342   7.653 -0.1341  0.8599 -1.0169
  165SAPE  C31018628   0.502   3.163   7.716 -0.2049  0.1430 -0.4562
  165SAPE  H10X18629   0.593   3.113   7.757 -0.8336 -0.1935  0.5382
  165SAPE  H10Y18630   0.452   3.082   7.659 -0.6472 -0.2121  0.4191
  165SAPE  C31118631   0.407   3.220   7.830 -0.6547 -0.1730  0.2430
  165SAPE  H11X18632   0.378   3.131   7.890 -0.6734 -1.0631 -1.0603
  165SAPE  H11Y18633   0.319   3.259   7.775  1.5414  4.2151 -0.4186
  165SAPE  C31218634   0.458   3.332   7.929  0.4134 -0.4358  0.0367
  165SAPE  H12X18635   0.470   3.432   7.882 -0.7108 -0.8266 -1.1027
  165SAPE  H12Y18636   0.560   3.300   7.960  0.6512 -0.7354 -1.0400
  165SAPE  C31318637   0.375   3.358   8.048 -1.1845  1.1191  0.2948
  165SAPE  H13X18638   0.326   3.267   8.088 -1.0887  0.6450 -0.6497
  165SAPE  H13Y18639   0.294   3.426   8.013 -3.0178 -1.7129 -1.1577
  165SAPE  C31418640   0.454   3.425   8.168  0.1627  0.1440  0.0757
  165SAPE  H14X18641   0.506   3.515   8.130  0.5883 -0.3382 -0.4902
  165SAPE  H14Y18642   0.545   3.365   8.190 -1.1923 -1.4568  1.6003
  165SAPE  C31518643   0.361   3.448   8.287 -0.0797 -0.2199  0.2848
  165SAPE  H15X18644   0.320   3.345   8.301  0.4285 -0.2409  1.7075
  165SAPE  H15Y18645   0.290   3.522   8.245  0.1764 -1.0756 -1.6848
  165SAPE  C31618646   0.426   3.504   8.415  0.0195  0.4031 -0.0443
  165SAPE  H16X18647   0.346   3.517   8.491  0.2217 -1.2497  0.4637
  165SAPE  H16Y18648   0.487   3.595   8.394 -0.9846  1.2635  0.7256
  165SAPE  C31718649   0.526   3.402   8.483  0.3763  0.9270 -0.4890
  165SAPE  H17X18650   0.623   3.390   8.431  2.1605 -0.7639  3.0364
  165SAPE  H17Y18651   0.480   3.301   8.476 -0.4963  1.1547  1.5746
  165SAPE  C31818652   0.546   3.436   8.635 -0.2036 -0.6028 -0.0263
  165SAPE  H18X18653   0.612   3.525   8.647  0.6573 -1.5367  2.5232
  165SAPE  H18Y18654   0.581   3.348   8.693  1.3684  0.6252  0.9475
  165SAPE  H18Z18655   0.447   3.471   8.673 -0.5899  1.1847 -2.5807
  166SAPE     N18656   0.272   6.678   5.817  0.1663  0.4077  0.0354
  166SAPE   HN118657   0.294   6.685   5.716  0.2338  2.0957  0.1569
  166SAPE   HN218658   0.188   6.734   5.844  0.7843  1.0551  0.6431
  166SAPE   HN318659   0.346   6.720   5.877  0.5950 -0.7877  0.3479
  166SAPE   C1218660   0.244   6.540   5.853 -0.1148 -0.1942  0.3886
  166SAPE  H12A18661   0.340   6.483   5.852 -1.6110 -2.8189  0.4609
  166SAPE  H12B18662   0.173   6.509   5.773 -1.4130  0.2584  1.3531
  166SAPE   C1118663   0.176   6.543   5.989  0.4774  0.1554  0.0747
  166SAPE  H11A18664   0.237   6.591   6.068 -0.4840  2.7327 -0.7113
  166SAPE  H11B18665   0.158   6.437   6.018  2.0908  0.0533  0.7814
  166SAPE     P18666  -0.091   6.535   5.958 -0.1406 -0.0753  0.1669
  166SAPE   O1318667  -0.198   6.635   5.988 -0.1543 -0.3749 -0.1602
  166SAPE   O1418668  -0.092   6.473   5.829  0.5576  0.3226 -0.1589
  166SAPE   O1218669   0.048   6.609   5.983  0.5471  0.0839 -0.2437
  166SAPE   O1118670  -0.090   6.415   6.058  0.2520  0.2889 -0.6727
  166SAPE    C118671  -0.209   6.388   6.136  0.7609 -0.0891 -0.1246
  166SAPE    HA18672  -0.299   6.432   6.088 -0.3103 -0.1341  1.7802
  166SAPE    HB18673  -0.213   6.278   6.156 -1.0361  0.0320  0.3286
  166SAPE    C218674  -0.201   6.446   6.278  0.1729  0.8951  0.0223
  166SAPE    HS18675  -0.237   6.549   6.260  0.0534  0.9077  0.3214
  166SAPE   O2118676  -0.064   6.435   6.324  0.4895  0.2267  0.4167
  166SAPE   C2118677  -0.013   6.537   6.381  0.0484 -0.9028  0.2725
  166SAPE   O2218678  -0.070   6.642   6.412  0.2242  0.9498 -0.8360
  166SAPE   C2218679   0.138   6.514   6.403 -0.6985 -0.1193  0.0086
  166SAPE   H2R18680   0.174   6.477   6.305 -1.5265  1.4040 -0.8869
  166SAPE   H2S18681   0.189   6.611   6.420 -1.5839  0.5976 -1.3661
  166SAPE    C318682  -0.294   6.371   6.379  0.2197  0.5462  0.1277
  166SAPE    HX18683  -0.280   6.263   6.357 -2.2611  0.2924 -0.3281
  166SAPE    HY18684  -0.398   6.402   6.353 -0.7404 -0.3039  2.7052
  166SAPE   O3118685  -0.289   6.403   6.514  0.0045 -0.3852 -0.1066
  166SAPE   C3118686  -0.257   6.310   6.601 -0.5569 -0.1462 -0.2031
  166SAPE   O3218687  -0.227   6.191   6.581 -0.1100 -0.2838 -0.3473
  166SAPE   C3218688  -0.257   6.379   6.737  0.1463  0.5143 -0.8287
  166SAPE   H2X18689  -0.363   6.409   6.753 -0.3187 -0.6446 -1.6652
  166SAPE   H2Y18690  -0.193   6.469   6.725  1.9063 -0.6689 -0.4515
  166SAPE   C2318691   0.174   6.403   6.513 -0.0241  0.2659  0.5511
  166SAPE   H3R18692   0.283   6.386   6.502 -0.4992 -1.5601 -1.6444
  166SAPE   H3S18693   0.127   6.305   6.488  0.4109  0.5868 -1.5875
  166SAPE   C2418694   0.130   6.434   6.661 -0.8989 -0.3223  0.2008
  166SAPE   H4R18695   0.181   6.363   6.729 -1.9578 -2.8544 -1.5631
  166SAPE   H4S18696   0.026   6.393   6.669 -2.4317  2.8367 -2.3463
  166SAPE   C2518697   0.126   6.576   6.697 -0.2160  0.1557 -0.1178
  166SAPE   H5R18698   0.053   6.636   6.641 -1.0041 -0.6898 -0.0078
  166SAPE   C2618699   0.210   6.639   6.785  1.1069  0.2525 -0.3617
  166SAPE   H6R18700   0.187   6.745   6.805 -1.3758 -0.4499  0.7960
  166SAPE   C2718701   0.309   6.564   6.867  0.1027 -0.0493 -1.1462
  166SAPE   H7R18702   0.392   6.534   6.800  2.1486  1.3247  0.7115
  166SAPE   H7S18703   0.258   6.479   6.918 -0.5181  1.3212  0.5506
  166SAPE   C2818704   0.373   6.656   6.969 -0.0332  0.0178 -0.0582
  166SAPE   H8R18705   0.441   6.729   6.922 -0.4681 -0.9468 -2.2511
  166SAPE   C2918706   0.344   6.671   7.100 -0.3610  0.2989  0.0505
  166SAPE   H9R18707   0.398   6.751   7.152 -1.5934  0.9573  0.3407
  166SAPE  C21018708   0.247   6.600   7.189  0.3926  0.1820 -0.1442
  166SAPE  H10R18709   0.296   6.566   7.283 -2.6041 -2.2253  0.6157
  166SAPE  H10S18710   0.211   6.508   7.139 -1.7958 -0.1411  1.9541
  166SAPE  C21118711   0.131   6.682   7.220 -1.5600 -0.4945  0.2691
  166SAPE  H11R18712   0.052   6.682   7.143 -1.5309  0.4979  0.2301
  166SAPE  C21218713   0.117   6.767   7.329  0.0875 -0.6204  0.3310
  166SAPE  H12R18714   0.033   6.838   7.335  0.4574 -0.0329 -1.3176
  166SAPE  C21318715   0.215   6.782   7.441 -0.5537  0.0355  0.4632
  166SAPE  H13R18716   0.189   6.884   7.478 -0.9663  1.0334 -2.4450
  166SAPE  H13S18717   0.322   6.788   7.413 -0.9681 -1.4893 -1.4764
  166SAPE  C21418718   0.216   6.662   7.541  0.2408  0.6683 -0.0577
  166SAPE  H14R18719   0.168   6.566   7.517 -0.5716  0.4629  2.1835
  166SAPE  C21518720   0.273   6.679   7.660 -0.4736 -0.5003  0.0270
  166SAPE  H15R18721   0.289   6.588   7.720 -0.4771  0.0038  0.7881
  166SAPE  C21618722   0.337   6.805   7.727  0.5110  0.1126 -0.5619
  166SAPE  H16R18723   0.293   6.900   7.692 -0.0639 -0.0120 -0.1917
  166SAPE  H16S18724   0.446   6.796   7.707  0.9184  0.7662  1.2510
  166SAPE  C21718725   0.329   6.803   7.882 -0.0580  1.0239  0.3644
  166SAPE  H17R18726   0.343   6.699   7.920  0.8763  0.8020 -0.5704
  166SAPE  H17S18727   0.227   6.841   7.904  0.1282  1.7405  0.0097
  166SAPE  C21818728   0.433   6.890   7.957 -0.3830 -0.4267  0.1366
  166SAPE  H18R18729   0.417   6.998   7.935 -0.5439 -0.1220  1.7058
  166SAPE  H18S18730   0.530   6.861   7.913 -1.2270 -1.2980 -1.1769
  166SAPE  C21918731   0.435   6.871   8.112 -0.0173 -0.0943 -1.1160
  166SAPE  H19R18732   0.452   6.762   8.124 -2.0700 -0.4464 -1.1765
  166SAPE  H19S18733   0.332   6.896   8.146 -0.6025  1.5801 -3.9321
  166SAPE  C22018734   0.552   6.949   8.186 -0.1246 -0.7233 -0.3189
  166SAPE  H20R18735   0.550   7.057   8.161  2.7523 -0.6020 -0.1872
  166SAPE  H20S18736   0.653   6.904   8.169  1.3556  2.2145  0.3910
  166SAPE  H20T18737   0.530   6.951   8.295 -3.5399  0.4013 -0.9733
  166SAPE   C3318738  -0.196   6.314   6.859 -0.3434 -0.1540 -0.0675
  166SAPE   H3X18739  -0.086   6.305   6.860 -0.4269 -1.5680 -1.4991
  166SAPE   H3Y18740  -0.232   6.209   6.858 -0.8805  0.0425 -1.6901
  166SAPE   C3418741  -0.241   6.396   6.984  0.0988 -1.7222 -0.1990
  166SAPE   H4X18742  -0.351   6.400   6.999  0.0955  0.7824 -0.6209
  166SAPE   H4Y18743  -0.203   6.499   6.964  0.4939 -1.1308  3.2995
  166SAPE   C3518744  -0.177   6.370   7.126  0.3985  0.2562 -0.4595
  166SAPE   H5X18745  -0.069   6.356   7.102  0.7132  1.0507  0.5069
  166SAPE   H5Y18746  -0.207   6.276   7.178  0.4337 -0.0692 -1.0130
  166SAPE   C3618747  -0.194   6.491   7.226  0.6556  0.0069  0.2635
  166SAPE   H6X18748  -0.303   6.501   7.238  0.5990 -0.6203  0.3173
  166SAPE   H6Y18749  -0.139   6.577   7.182  0.8780 -0.5038 -0.4802
  166SAPE   C3718750  -0.123   6.469   7.355  0.3915  0.5998 -0.7676
  166SAPE   H7X18751  -0.115   6.569   7.402 -0.3778  0.1246  0.3875
  166SAPE   H7Y18752  -0.017   6.441   7.335  0.5037  0.0088  0.6218
  166SAPE   C3818753  -0.189   6.369   7.453 -0.0344  0.5104 -0.2131
  166SAPE   H8X18754  -0.195   6.274   7.395  0.2011  0.6192 -0.4180
  166SAPE   H8Y18755  -0.291   6.408   7.472  0.3246  0.1346  2.7096
  166SAPE   C3918756  -0.119   6.345   7.587 -0.4819 -0.4878  0.8038
  166SAPE   H9X18757  -0.079   6.448   7.598 -4.4160  1.5348 -2.1475
  166SAPE   H9Y18758  -0.035   6.273   7.583 -2.5149 -2.8415 -0.9559
  166SAPE  C31018759  -0.206   6.304   7.706  0.3779 -0.1094 -0.8844
  166SAPE  H10X18760  -0.278   6.229   7.666 -1.8176  2.2749 -1.5470
  166SAPE  H10Y18761  -0.275   6.388   7.731 -0.4469 -1.8732  3.1229
  166SAPE  C31118762  -0.134   6.248   7.823 -0.2622  0.4003  0.3029
  166SAPE  H11X18763  -0.093   6.330   7.885 -1.6150  0.6263  0.9236
  166SAPE  H11Y18764  -0.053   6.184   7.781 -0.5362  0.8811 -0.9753
  166SAPE  C31218765  -0.217   6.154   7.914  0.2082 -0.6074 -0.0706
  166SAPE  H12X18766  -0.152   6.110   7.993 -0.2945 -0.3248  0.5120
  166SAPE  H12Y18767  -0.264   6.063   7.872  0.3751 -1.7844  2.2025
  166SAPE  C31318768  -0.335   6.238   7.975  0.6921 -0.2275 -0.5070
  166SAPE  H13X18769  -0.423   6.252   7.907  0.3662 -2.8448 -0.6660
  166SAPE  H13Y18770  -0.301   6.343   7.989  0.7583 -0.2921 -0.1939
  166SAPE  C31418771  -0.385   6.179   8.112 -0.5050  0.4828 -0.1120
  166SAPE  H14X18772  -0.452   6.256   8.156 -0.8177 -0.3199  0.8419
  166SAPE  H14Y18773  -0.307   6.177   8.192 -1.2732 -2.9925  0.6452
  166SAPE  C31518774  -0.456   6.046   8.103 -0.3475  0.5222  0.5338
  166SAPE  H15X18775  -0.397   5.955   8.080  1.3703  1.2085  2.1221
  166SAPE  H15Y18776  -0.528   6.052   8.019 -2.3485 -2.7874  1.9055
  166SAPE  C31618777  -0.545   6.022   8.227  0.6089  0.6435 -0.3411
  166SAPE  H16X18778  -0.606   6.113   8.244  1.1753  0.9867 -0.1221
  166SAPE  H16Y18779  -0.487   6.017   8.322  0.1742 -1.2247 -0.1564
  166SAPE  C31718780  -0.636   5.895   8.207  0.5550 -0.0553 -0.0303
  166SAPE  H17X18781  -0.634   5.841   8.304  0.4342  1.0498  0.5884
  166SAPE  H17Y18782  -0.589   5.824   8.136  1.2428 -0.2394  0.5980
  166SAPE  C31818783  -0.778   5.914   8.163  0.2400  0.3470 -0.7781
  166SAPE  H18X18784  -0.831   5.985   8.230  1.0466 -0.3435  0.6055
  166SAPE  H18Y18785  -0.838   5.820   8.161 -0.5578  0.8404 -0.3033
  166SAPE  H18Z18786  -0.781   5.967   8.065  2.6430  0.8612 -0.6056
  167SAPE     N18787   1.563   5.567   5.848 -0.2863  0.4600  0.2023
  167SAPE   HN118788   1.633   5.616   5.907  1.0477 -0.8033 -0.3089
  167SAPE   HN218789   1.558   5.465   5.867 -1.6423  0.4921  0.0854
  167SAPE   HN318790   1.577   5.571   5.745  2.0590 -1.5478  0.3980
  167SAPE   C1218791   1.436   5.623   5.891  0.0328  0.2282  0.7884
  167SAPE  H12A18792   1.359   5.559   5.842 -1.8210  2.1632  1.0652
  167SAPE  H12B18793   1.433   5.725   5.847 -1.7569 -1.1567 -2.5270
  167SAPE   C1118794   1.416   5.634   6.041  0.2855  0.6934  0.3069
  167SAPE  H11A18795   1.325   5.693   6.064  0.8142  1.9982 -0.8427
  167SAPE  H11B18796   1.498   5.701   6.074  0.0620  1.0694  0.0964
  167SAPE     P18797   1.269   5.435   6.134 -0.2154  0.0574  0.0643
  167SAPE   O1318798   1.188   5.463   6.012 -0.4745  0.0180  0.7385
  167SAPE   O1418799   1.281   5.297   6.182 -0.6669 -0.2404  0.7575
  167SAPE   O1218800   1.412   5.504   6.110  0.0485  0.0583 -0.6173
  167SAPE   O1118801   1.221   5.536   6.249 -0.0275  0.2288 -0.4738
  167SAPE    C118802   1.278   5.539   6.376 -0.3732  0.0097 -0.4012
  167SAPE    HA18803   1.389   5.531   6.377 -0.2824  0.8020  3.3986
  167SAPE    HB18804   1.262   5.639   6.421  0.3214 -0.5222  1.0867
  167SAPE    C218805   1.228   5.426   6.469 -0.1367  0.0560 -0.0620
  167SAPE    HS18806   1.232   5.327   6.419  3.7429  0.0065  0.1972
  167SAPE   O2118807   1.099   5.465   6.506 -0.2801 -0.0144  0.7447
  167SAPE   C2118808   1.000   5.454   6.423 -0.6707  1.0262  0.1651
  167SAPE   O2218809   0.992   5.387   6.321 -0.3297 -0.1511 -0.1684
  167SAPE   C2218810   0.883   5.539   6.475  0.2123 -0.2176 -0.2708
  167SAPE   H2R18811   0.848   5.616   6.402  1.9575  1.4057  0.5631
  167SAPE   H2S18812   0.805   5.467   6.508  0.7798 -0.1831  1.1645
  167SAPE    C318813   1.292   5.410   6.607 -0.6011 -0.5519 -0.4690
  167SAPE    HX18814   1.396   5.375   6.590 -0.7291 -0.8630 -0.6141
  167SAPE    HY18815   1.242   5.326   6.660 -0.6062 -1.7157 -2.3031
  167SAPE   O3118816   1.299   5.535   6.679  0.7476  0.7182  0.2163
  167SAPE   C3118817   1.222   5.540   6.790  0.6243  0.6222 -0.3909
  167SAPE   O3218818   1.157   5.449   6.834 -0.4523  0.4397 -0.0040
  167SAPE   C3218819   1.254   5.674   6.867  0.0786 -0.0041 -0.1798
  167SAPE   H2X18820   1.181   5.750   6.832 -1.1062 -1.0975 -0.1217
  167SAPE   H2Y18821   1.354   5.708   6.832  0.0625  3.5463  2.9598
  167SAPE   C2318822   0.923   5.615   6.598  0.4858 -1.0439 -0.6431
  167SAPE   H3R18823   1.022   5.666   6.597  0.5500 -1.1602 -0.2689
  167SAPE   H3S18824   0.925   5.565   6.697 -0.9193 -2.6833 -1.4177
  167SAPE   C2418825   0.822   5.731   6.625 -0.2813  0.4167 -0.2400
  167SAPE   H4R18826   0.821   5.788   6.530 -0.3648 -1.4827 -1.4196
  167SAPE   H4S18827   0.862   5.789   6.711 -1.2455 -0.6290  0.9396
  167SAPE   C2518828   0.691   5.677   6.658 -0.2591 -0.0626  0.6767
  167SAPE   H5R18829   0.679   5.569   6.642 -0.2529 -0.3978  2.7913
  167SAPE   C2618830   0.585   5.752   6.705  0.4839  0.5029  0.3068
  167SAPE   H6R18831   0.493   5.695   6.729  0.6041 -0.9932 -2.5735
  167SAPE   C2718832   0.586   5.906   6.721 -0.6766  0.5356  0.1055
  167SAPE   H7R18833   0.684   5.955   6.702 -0.9617  1.9306  2.0673
  167SAPE   H7S18834   0.552   5.941   6.821  0.1641  1.0032  0.2314
  167SAPE   C2818835   0.496   5.968   6.616  0.0843 -0.1269  0.0696
  167SAPE   H8R18836   0.469   5.906   6.529  0.0583 -0.6881  0.4707
  167SAPE   C2918837   0.419   6.078   6.626  0.2045  0.0240  0.2981
  167SAPE   H9R18838   0.354   6.105   6.542  2.0770 -1.0504 -1.5264
  167SAPE  C21018839   0.418   6.166   6.753 -1.2528 -0.4084 -0.0366
  167SAPE  H10R18840   0.394   6.106   6.843  5.3278 -0.7999  1.6697
  167SAPE  H10S18841   0.337   6.242   6.740 -0.7411  0.2051  0.3360
  167SAPE  C21118842   0.554   6.230   6.767  0.2719 -0.1904  0.7416
  167SAPE  H11R18843   0.615   6.251   6.677 -1.9040  1.1711 -0.4468
  167SAPE  C21218844   0.591   6.282   6.887  0.2604 -0.1389 -0.0294
  167SAPE  H12R18845   0.683   6.342   6.899 -0.1752  0.1206  2.2098
  167SAPE  C21318846   0.508   6.281   7.012  0.9503  0.3345  0.0767
  167SAPE  H13R18847   0.400   6.264   6.989  1.4568 -0.5998 -1.6951
  167SAPE  H13S18848   0.509   6.375   7.071 -2.4500  0.6433 -0.2359
  167SAPE  C21418849   0.557   6.173   7.104 -0.0997 -0.5814 -0.9834
  167SAPE  H14R18850   0.503   6.077   7.093 -0.5217 -0.4817  0.1504
  167SAPE  C21518851   0.636   6.184   7.210 -0.5386 -0.8020  0.4961
  167SAPE  H15R18852   0.669   6.086   7.248 -0.1153 -0.4482  1.0507
  167SAPE  C21618853   0.711   6.303   7.267  0.1210  0.0818 -0.4681
  167SAPE  H16R18854   0.721   6.391   7.201  3.7577  0.2213  0.1792
  167SAPE  H16S18855   0.818   6.279   7.285 -0.4526 -1.2106  1.3933
  167SAPE  C21718856   0.640   6.359   7.389 -0.0921 -0.1829  0.2692
  167SAPE  H17R18857   0.629   6.278   7.465 -0.8682  0.6548  1.0588
  167SAPE  H17S18858   0.534   6.379   7.367  0.6282  2.8772 -0.6469
  167SAPE  C21818859   0.718   6.481   7.441 -0.4119  0.0252  0.2024
  167SAPE  H18R18860   0.676   6.557   7.372  1.3596  0.3479 -0.5457
  167SAPE  H18S18861   0.829   6.477   7.441 -0.4245 -0.6749 -1.0946
  167SAPE  C21918862   0.666   6.543   7.579 -0.0181  0.2190  0.3654
  167SAPE  H19R18863   0.662   6.459   7.652 -1.1933 -0.5158 -0.5299
  167SAPE  H19S18864   0.567   6.592   7.566  0.9618  1.4905 -2.8754
  167SAPE  C22018865   0.762   6.646   7.629 -0.3224 -0.6301 -0.6753
  167SAPE  H20R18866   0.737   6.680   7.732 -0.1661  1.0890 -1.1912
  167SAPE  H20S18867   0.737   6.742   7.579  1.6351 -0.2914 -1.0330
  167SAPE  H20T18868   0.872   6.635   7.620 -0.1455  1.1514 -0.9903
  167SAPE   C3318869   1.248   5.649   7.014  0.5536 -0.0532  0.0308
  167SAPE   H3X18870   1.317   5.563   7.030  0.2284 -0.5824 -1.3316
  167SAPE   H3Y18871   1.147   5.622   7.054 -0.3544  0.4725 -1.8737
  167SAPE   C3418872   1.293   5.774   7.099 -0.2432 -0.1230 -0.1266
  167SAPE   H4X18873   1.251   5.867   7.055 -0.3588  0.4010  1.0804
  167SAPE   H4Y18874   1.402   5.783   7.081 -0.5743  0.2104 -2.1641
  167SAPE   C3518875   1.272   5.759   7.244 -0.8894  0.3009  0.3981
  167SAPE   H5X18876   1.326   5.666   7.273 -0.2897  0.4148 -0.3463
  167SAPE   H5Y18877   1.165   5.742   7.268 -0.6531  0.5763  1.7098
  167SAPE   C3618878   1.326   5.863   7.341 -0.2063 -0.3127 -0.0869
  167SAPE   H6X18879   1.280   5.957   7.302 -0.2066 -1.0211 -1.8022
  167SAPE   H6Y18880   1.435   5.886   7.338 -0.7181  2.2936 -0.6473
  167SAPE   C3718881   1.296   5.844   7.490 -0.1893 -0.1606  0.0413
  167SAPE   H7X18882   1.321   5.740   7.519 -2.1242 -0.9872 -1.1325
  167SAPE   H7Y18883   1.187   5.866   7.497 -0.3153 -1.5182  2.5373
  167SAPE   C3818884   1.380   5.937   7.575 -0.2641 -0.4352  0.3739
  167SAPE   H8X18885   1.358   6.041   7.543  3.9306  0.5644  0.3719
  167SAPE   H8Y18886   1.489   5.935   7.553 -0.4834 -1.3532 -0.6162
  167SAPE   C3918887   1.366   5.909   7.722  0.3582  0.3747  0.3450
  167SAPE   H9X18888   1.448   5.975   7.758 -0.4890  2.2567 -1.0789
  167SAPE   H9Y18889   1.386   5.802   7.745  0.9830  0.5476  0.6436
  167SAPE  C31018890   1.243   5.962   7.791  0.0658  0.3410 -0.0071
  167SAPE  H10X18891   1.148   5.923   7.751 -0.8219  1.0383  1.3699
  167SAPE  H10Y18892   1.239   6.072   7.772  0.2515 -0.0667 -2.5726
  167SAPE  C31118893   1.241   5.948   7.946  0.2813  0.5952 -0.1553
  167SAPE  H11X18894   1.228   5.841   7.969 -0.7199  0.7272 -0.0795
  167SAPE  H11Y18895   1.154   6.001   7.990  0.0388 -0.8050  1.0748
  167SAPE  C31218896   1.370   5.984   8.025  0.0661  0.2242  0.5081
  167SAPE  H12X18897   1.409   6.087   8.008  0.6702 -0.4652 -2.4737
  167SAPE  H12Y18898   1.446   5.910   7.991  0.6334 -0.4890  3.2131
  167SAPE  C31318899   1.354   5.967   8.176  0.0946  0.1734 -0.0013
  167SAPE  H13X18900   1.315   5.867   8.203  0.9545 -0.5983 -1.5227
  167SAPE  H13Y18901   1.287   6.046   8.217 -0.2301 -0.4014  0.5826
  167SAPE  C31418902   1.487   5.978   8.250 -0.0661 -0.1659  0.5309
  167SAPE  H14X18903   1.516   6.084   8.231  1.8860 -0.7070  0.4578
  167SAPE  H14Y18904   1.568   5.913   8.210 -0.7563  0.0194 -1.2439
  167SAPE  C31518905   1.471   5.958   8.401 -0.6228 -0.8463 -0.1580
  167SAPE  H15X18906   1.416   5.866   8.427 -1.9535  0.0304  0.1855
  167SAPE  H15Y18907   1.407   6.037   8.446  0.5458 -0.2029  0.4163
  167SAPE  C31618908   1.596   5.946   8.483 -0.3346 -0.7520  0.2810
  167SAPE  H16X18909   1.660   6.035   8.467 -0.5084 -0.6558  0.1100
  167SAPE  H16Y18910   1.653   5.857   8.448  1.1966  1.0567 -1.9976
  167SAPE  C31718911   1.561   5.948   8.634 -0.8432 -0.2512 -0.5564
  167SAPE  H17X18912   1.504   5.854   8.648 -0.0758 -0.4744  1.2392
  167SAPE  H17Y18913   1.501   6.039   8.654  3.0736  3.0793 -3.0210
  167SAPE  C31818914   1.688   5.943   8.716  0.1984  0.2081  0.0698
  167SAPE  H18X18915   1.729   6.046   8.711  1.2164 -0.1272  1.1767
  167SAPE  H18Y18916   1.756   5.867   8.673 -0.3705 -1.4731  2.0260
  167SAPE  H18Z18917   1.667   5.917   8.822  0.3756 -1.2464 -0.2406
  168SAPE     N18918   3.235   0.306   6.162  0.6358  0.5341 -0.1963
  168SAPE   HN118919   3.154   0.248   6.192  0.8789 -1.5170 -3.3179
  168SAPE   HN218920   3.205   0.391   6.111  0.7272  0.6113 -0.1204
  168SAPE   HN318921   3.313   0.260   6.111  1.8461 -0.3523  2.3627
  168SAPE   C1218922   3.289   0.350   6.297 -0.6145  0.0861 -0.7789
  168SAPE  H12A18923   3.368   0.425   6.273 -1.4320  0.4898 -2.2998
  168SAPE  H12B18924   3.336   0.264   6.348 -2.4894 -0.9360 -0.7351
  168SAPE   C1118925   3.191   0.411   6.392  0.7920  0.0669  0.5062
  168SAPE  H11A18926   3.262   0.432   6.476  1.2303  1.1516 -0.1240
  168SAPE  H11B18927   3.113   0.342   6.429 -1.1343  1.2830 -1.1985
  168SAPE     P18928   3.003   0.545   6.265  0.3767  0.6800 -0.1082
  168SAPE   O1318929   3.005   0.667   6.182  0.0635 -0.2110 -0.1618
  168SAPE   O1418930   2.981   0.422   6.192  0.5093  0.1369  0.2513
  168SAPE   O1218931   3.139   0.535   6.347  0.9273 -0.0233  0.2445
  168SAPE   O1118932   2.900   0.553   6.376 -0.2830  0.4099  0.3168
  168SAPE    C118933   2.888   0.648   6.476 -0.2608 -0.2972 -0.3417
  168SAPE    HA18934   2.989   0.692   6.491 -1.1592  0.9893  2.2953
  168SAPE    HB18935   2.819   0.726   6.440 -0.5326 -0.2744  0.2176
  168SAPE    C218936   2.836   0.594   6.605 -0.0554 -0.9512 -0.0377
  168SAPE    HS18937   2.733   0.559   6.582  0.5101 -0.7637 -3.1274
  168SAPE   O2118938   2.833   0.696   6.703 -0.6862 -0.9590 -0.4785
  168SAPE   C2118939   2.734   0.721   6.784 -0.4745 -0.0482 -0.4382
  168SAPE   O2218940   2.627   0.660   6.781  0.2238  0.0181 -1.0809
  168SAPE   C2218941   2.773   0.845   6.868  0.8338  0.4594 -0.3557
  168SAPE   H2R18942   2.865   0.888   6.822 -0.7367  0.2908 -3.7888
  168SAPE   H2S18943   2.682   0.908   6.876  1.1691  0.7661  1.2841
  168SAPE    C318944   2.917   0.474   6.660 -0.1499 -0.0712  0.1233
  168SAPE    HX18945   3.024   0.503   6.672 -0.2023  0.0759  0.2446
  168SAPE    HY18946   2.921   0.399   6.579  0.2380  1.7609 -1.5797
  168SAPE   O3118947   2.871   0.418   6.786  0.2993  0.8389 -0.4039
  168SAPE   C3118948   2.774   0.329   6.779  0.0033 -0.2864  0.4249
  168SAPE   O3218949   2.744   0.267   6.677  0.2702  0.6238 -0.7054
  168SAPE   C3218950   2.731   0.301   6.919  0.2911  0.0120 -0.0378
  168SAPE   H2X18951   2.647   0.370   6.943  1.2370  1.0073  0.4603
  168SAPE   H2Y18952   2.807   0.326   6.996  1.0194  0.8054 -0.9936
  168SAPE   C2318953   2.808   0.791   7.011  0.2095 -1.1599 -0.1026
  168SAPE   H3R18954   2.881   0.865   7.051  1.4372 -2.3220 -0.1920
  168SAPE   H3S18955   2.848   0.688   7.003  0.4393 -1.0557 -0.2983
  168SAPE   C2418956   2.683   0.797   7.097  0.1449  0.3157 -0.7053
  168SAPE   H4R18957   2.614   0.714   7.070  0.8123 -1.0203  1.6064
  168SAPE   H4S18958   2.621   0.885   7.070 -0.0553  0.9973  1.8855
  168SAPE   C2518959   2.708   0.783   7.246  0.2610 -0.6728  0.1854
  168SAPE   H5R18960   2.681   0.687   7.290  0.5180 -0.3222  1.1136
  168SAPE   C2618961   2.743   0.880   7.333 -0.5128 -0.4961  0.5213
  168SAPE   H6R18962   2.735   0.858   7.441 -0.3703  0.1307  0.6593
  168SAPE   C2718963   2.778   1.025   7.306  0.2296 -0.5131 -0.4340
  168SAPE   H7R18964   2.733   1.097   7.378  4.0405  0.2363  1.3307
  168SAPE   H7S18965   2.748   1.057   7.204 -0.6849 -1.8116 -0.5794
  168SAPE   C2818966   2.928   1.044   7.295 -0.8470  0.7229 -0.6420
  168SAPE   H8R18967   2.997   0.959   7.279 -1.3584 -0.3352  2.2691
  168SAPE   C2918968   2.993   1.158   7.317 -1.1250  0.1690  0.2219
  168SAPE   H9R18969   3.101   1.156   7.296 -1.3537 -2.5706 -0.8545
  168SAPE  C21018970   2.940   1.299   7.352 -0.3391 -0.3364 -0.4915
  168SAPE  H10R18971   2.881   1.336   7.266 -2.2220  1.9880  1.7058
  168SAPE  H10S18972   3.032   1.361   7.355 -0.1255 -0.6884  0.8651
  168SAPE  C21118973   2.876   1.310   7.488  0.0205  1.2666 -0.0586
  168SAPE  H11R18974   2.882   1.221   7.553 -1.4018  0.8818 -0.4490
  168SAPE  C21218975   2.796   1.411   7.519  0.8514 -0.1785 -0.2026
  168SAPE  H12R18976   2.753   1.408   7.620  0.2475  1.0556 -0.4072
  168SAPE  C21318977   2.762   1.534   7.436  0.3309  0.3285 -0.5053
  168SAPE  H13R18978   2.666   1.577   7.472 -0.7755 -0.9011 -1.8694
  168SAPE  H13S18979   2.740   1.503   7.331  1.0386  1.8036 -1.0985
  168SAPE  C21418980   2.865   1.645   7.443 -0.1158  0.2449  0.0350
  168SAPE  H14R18981   2.949   1.639   7.373  0.6977 -0.6474  1.0558
  168SAPE  C21518982   2.856   1.759   7.514 -0.7845  0.7065 -0.0242
  168SAPE  H15R18983   2.944   1.825   7.523 -0.4779  0.5815 -1.8732
  168SAPE  C21618984   2.739   1.811   7.594  0.0510 -0.0528 -0.0089
  168SAPE  H16R18985   2.645   1.751   7.590  0.0945 -0.1111 -0.1960
  168SAPE  H16S18986   2.700   1.911   7.563  0.8968  0.1379 -0.4845
  168SAPE  C21718987   2.760   1.798   7.748  0.3744 -0.7034 -0.2658
  168SAPE  H17R18988   2.827   1.881   7.781  0.4657 -0.6994 -0.4581
  168SAPE  H17S18989   2.811   1.701   7.768  2.1964  0.3168  0.1829
  168SAPE  C21818990   2.629   1.814   7.829  0.6174 -0.2854  0.5168
  168SAPE  H18R18991   2.552   1.743   7.792  0.9508 -0.8362  0.8658
  168SAPE  H18S18992   2.600   1.917   7.802 -1.0424 -1.1540 -1.0992
  168SAPE  C21918993   2.645   1.792   7.977 -0.2587  0.7956 -0.3619
  168SAPE  H19R18994   2.555   1.824   8.034 -0.2712  0.1858 -0.0355
  168SAPE  H19S18995   2.728   1.857   8.014  0.2857 -0.1163  0.0408
  168SAPE  C22018996   2.678   1.644   8.006 -0.1647 -0.0877  0.2287
  168SAPE  H20R18997   2.668   1.617   8.114 -0.8476 -1.1351 -0.0896
  168SAPE  H20S18998   2.781   1.621   7.971  0.2119  2.0302 -0.1466
  168SAPE  H20T18999   2.603   1.581   7.953 -0.9452 -0.8680  2.2116
  168SAPE   C3319000   2.694   0.150   6.932 -0.6810  1.0567  0.0381
  168SAPE   H3X19001   2.782   0.091   6.899 -1.0310 -0.3769  1.6067
  168SAPE   H3Y19002   2.616   0.128   6.856 -0.2429  0.4815 -0.2515
  168SAPE   C3419003   2.640   0.111   7.070 -0.4034  0.0767 -0.7080
  168SAPE   H4X19004   2.576   0.197   7.098 -2.0852 -1.3315 -0.1009
  168SAPE   H4Y19005   2.720   0.108   7.147 -2.3059 -2.4145  1.2664
  168SAPE   C3519006   2.572  -0.027   7.050 -0.5441  0.1421 -0.5453
  168SAPE   H5X19007   2.622  -0.095   6.978  2.7391  2.3956 -0.4812
  168SAPE   H5Y19008   2.486   0.003   6.986 -0.1842  1.4704 -0.4334
  168SAPE   C3619009   2.526  -0.093   7.186  0.4988  0.4131  0.0504
  168SAPE   H6X19010   2.454  -0.016   7.220 -1.8345 -1.5294 -0.3506
  168SAPE   H6Y19011   2.615  -0.090   7.252  0.7815  1.0278 -0.3536
  168SAPE   C3719012   2.456  -0.227   7.162  0.4065 -0.4320  0.0950
  168SAPE   H7X19013   2.536  -0.302   7.145 -0.0978 -1.1977  1.0582
  168SAPE   H7Y19014   2.391  -0.230   7.071  1.2690 -0.7215 -0.5222
  168SAPE   C3819015   2.387  -0.280   7.286  0.2370 -0.6455  0.1447
  168SAPE   H8X19016   2.322  -0.364   7.254  2.7189 -1.9318 -1.7247
  168SAPE   H8Y19017   2.317  -0.207   7.332 -2.0761 -1.6743 -1.6593
  168SAPE   C3919018   2.496  -0.316   7.389 -0.0020  0.2817 -0.1694
  168SAPE   H9X19019   2.551  -0.220   7.404  1.4087 -0.5695  0.1659
  168SAPE   H9Y19020   2.573  -0.386   7.353 -1.8282 -1.1458 -1.4117
  168SAPE  C31019021   2.446  -0.367   7.518  0.0091 -0.0388 -0.7115
  168SAPE  H10X19022   2.378  -0.293   7.565 -0.5760 -0.4474 -0.8952
  168SAPE  H10Y19023   2.541  -0.382   7.573  0.2251 -0.8754 -1.3060
  168SAPE  C31119024   2.383  -0.509   7.515 -0.7671  0.5833  0.8385
  168SAPE  H11X19025   2.445  -0.565   7.441 -1.1875  1.9713 -0.5933
  168SAPE  H11Y19026   2.285  -0.506   7.463 -2.0712 -1.0847  3.1406
  168SAPE  C31219027   2.368  -0.583   7.650 -0.1787 -0.2420  0.5358
  168SAPE  H12X19028   2.460  -0.552   7.704 -1.1295 -0.5535  2.4012
  168SAPE  H12Y19029   2.372  -0.693   7.633 -1.5002 -0.2751  0.3419
  168SAPE  C31319030   2.248  -0.545   7.736 -0.4349  0.2962  0.2112
  168SAPE  H13X19031   2.161  -0.536   7.668 -4.3979  1.4127  5.0476
  168SAPE  H13Y19032   2.249  -0.447   7.789 -0.1297  0.5446 -0.2488
  168SAPE  C31419033   2.225  -0.650   7.848  0.4849  0.5065  1.0250
  168SAPE  H14X19034   2.173  -0.733   7.797  2.0654  0.0958  0.0416
  168SAPE  H14Y19035   2.144  -0.605   7.910 -2.5818 -0.2331 -2.3205
  168SAPE  C31519036   2.352  -0.690   7.923 -0.2161  1.0550  0.0006
  168SAPE  H15X19037   2.411  -0.598   7.942 -2.2571  2.4146 -0.1041
  168SAPE  H15Y19038   2.418  -0.755   7.861  1.3532  0.2782  2.3970
  168SAPE  C31619039   2.321  -0.780   8.046  0.2650  0.3940 -0.1629
  168SAPE  H16X19040   2.420  -0.820   8.077  0.4442  1.1734  0.2782
  168SAPE  H16Y19041   2.265  -0.866   8.005 -0.2280 -1.3036  3.8070
  168SAPE  C31719042   2.249  -0.708   8.163 -0.0770 -0.1844  1.0815
  168SAPE  H17X19043   2.201  -0.768   8.242 -0.7954 -0.4135  0.4666
  168SAPE  H17Y19044   2.165  -0.655   8.115  1.8089  1.7585 -0.1874
  168SAPE  C31819045   2.342  -0.615   8.232 -0.1515  0.0074 -0.0165
  168SAPE  H18X19046   2.400  -0.673   8.307 -0.1796  0.2244  0.1707
  168SAPE  H18Y19047   2.291  -0.533   8.288 -1.1024  1.4435 -2.8830
  168SAPE  H18Z19048   2.415  -0.566   8.165  0.8693 -0.4314  0.7596
  169SAPE     N19049   2.228   2.599   6.258 -0.9891  0.1071 -0.3312
  169SAPE   HN119050   2.300   2.669   6.235 -1.1398  0.1436 -0.6869
  169SAPE   HN219051   2.240   2.519   6.193 -1.7390 -0.6488  0.4370
  169SAPE   HN319052   2.130   2.635   6.258 -0.8218  1.0094 -6.0125
  169SAPE   C1219053   2.235   2.546   6.407  0.5222  0.2822  0.1260
  169SAPE  H12A19054   2.340   2.548   6.443  0.5728  1.7463 -0.0817
  169SAPE  H12B19055   2.192   2.444   6.402  0.5234  0.3181 -0.6939
  169SAPE   C1119056   2.137   2.626   6.498 -0.2276  0.1493 -0.2613
  169SAPE  H11A19057   2.153   2.736   6.501 -3.7928  0.7460 -0.2747
  169SAPE  H11B19058   2.152   2.599   6.605  3.2253 -1.4064 -1.0920
  169SAPE     P19059   1.908   2.689   6.382 -0.0566 -0.0805 -0.0911
  169SAPE   O1319060   1.962   2.706   6.254 -0.1337 -0.0360 -0.1808
  169SAPE   O1419061   1.775   2.634   6.385 -0.5873  0.0306  0.2937
  169SAPE   O1219062   2.003   2.589   6.459 -0.4594  0.0036  0.6484
  169SAPE   O1119063   1.920   2.821   6.467 -0.0876 -0.0766  0.1950
  169SAPE    C119064   1.813   2.872   6.549 -0.0640  0.7838 -0.3334
  169SAPE    HA19065   1.822   2.981   6.566 -0.0596  0.6808  0.3074
  169SAPE    HB19066   1.722   2.852   6.489  0.1243  0.8758 -0.6544
  169SAPE    C219067   1.799   2.803   6.682  0.4334  0.6194 -0.8883
  169SAPE    HS19068   1.793   2.694   6.662 -4.5637 -0.0404  3.0464
  169SAPE   O2119069   1.682   2.852   6.749  0.2071 -0.1717  0.0327
  169SAPE   C2119070   1.627   2.766   6.836 -0.0116 -0.5375 -0.0005
  169SAPE   O2219071   1.666   2.653   6.856 -0.0264  0.3268 -0.5599
  169SAPE   C2219072   1.503   2.828   6.901  0.4262  0.3644  0.4748
  169SAPE   H2R19073   1.530   2.895   6.985 -0.3203  0.5954  0.5344
  169SAPE   H2S19074   1.445   2.878   6.820  1.6226 -1.5241 -1.5909
  169SAPE    C319075   1.930   2.829   6.763  0.2737  0.1514 -0.3321
  169SAPE    HX19076   1.940   2.936   6.792  1.5099  0.0533 -0.3719
  169SAPE    HY19077   2.014   2.806   6.695  0.1289 -1.1169 -0.0942
  169SAPE   O3119078   1.944   2.755   6.887 -0.2887  0.1309 -0.3192
  169SAPE   C3119079   1.972   2.622   6.874 -0.6191 -0.5636 -0.6026
  169SAPE   O3219080   1.981   2.565   6.769  0.2201 -0.2176  0.3299
  169SAPE   C3219081   1.978   2.548   7.012  0.0053  0.4982 -0.2672
  169SAPE   H2X19082   2.028   2.454   6.979  0.4549  0.3642  0.7729
  169SAPE   H2Y19083   1.872   2.539   7.045  0.8124 -1.1484  2.0297
  169SAPE   C2319084   1.406   2.732   6.979  0.1629 -0.5786 -0.2025
  169SAPE   H3R19085   1.415   2.634   6.928 -0.1824 -1.2917  1.0884
  169SAPE   H3S19086   1.300   2.764   6.975  1.4503  3.9990 -1.7017
  169SAPE   C2419087   1.457   2.711   7.120  0.9924 -0.6856 -0.2051
  169SAPE   H4R19088   1.555   2.660   7.131  2.3644  2.2523  1.9196
  169SAPE   H4S19089   1.396   2.626   7.159 -0.6502 -0.1481 -1.5204
  169SAPE   C2519090   1.441   2.835   7.207 -0.1275  0.0392  0.0289
  169SAPE   H5R19091   1.377   2.916   7.169 -0.4364  1.0246  2.5301
  169SAPE   C2619092   1.502   2.851   7.329  0.3566 -0.0627  0.7690
  169SAPE   H6R19093   1.490   2.948   7.380 -0.1945  0.7559 -0.8934
  169SAPE   C2719094   1.606   2.760   7.391 -1.4964  0.6162  0.8067
  169SAPE   H7R19095   1.660   2.828   7.460  2.5729  0.9864 -2.5753
  169SAPE   H7S19096   1.686   2.731   7.320 -0.8930 -1.1210  2.1602
  169SAPE   C2819097   1.558   2.628   7.455  0.0912  0.3186 -0.3866
  169SAPE   H8R19098   1.492   2.566   7.394  0.3607 -1.0632  0.6876
  169SAPE   C2919099   1.574   2.599   7.585 -0.3169 -0.5367 -0.4495
  169SAPE   H9R19100   1.537   2.500   7.615  0.1165 -0.4005  0.5334
  169SAPE  C21019101   1.638   2.678   7.698  0.0204  0.5636  0.5222
  169SAPE  H10R19102   1.728   2.736   7.668 -2.3603  3.4346 -1.3929
  169SAPE  H10S19103   1.681   2.605   7.770  0.7255  1.9332  1.5105
  169SAPE  C21119104   1.555   2.782   7.782  0.0978  0.4754  1.1699
  169SAPE  H11R19105   1.514   2.857   7.712 -0.0427 -1.5007 -0.9531
  169SAPE  C21219106   1.542   2.800   7.915  0.0446  0.0602 -0.1763
  169SAPE  H12R19107   1.470   2.876   7.949  0.6788 -0.6417  2.8742
  169SAPE  C21319108   1.611   2.719   8.023  0.3629  0.8680  0.0319
  169SAPE  H13R19109   1.647   2.774   8.113 -0.1825 -0.4736  1.1060
  169SAPE  H13S19110   1.704   2.671   7.986 -0.3014 -0.6324  0.2551
  169SAPE  C21419111   1.536   2.598   8.073  0.4052 -0.3564  0.3212
  169SAPE  H14R19112   1.453   2.561   8.011  0.9099  0.0712 -0.6201
  169SAPE  C21519113   1.555   2.535   8.189 -0.4791 -0.0872 -0.8397
  169SAPE  H15R19114   1.499   2.443   8.208 -0.7526  0.1133 -0.6768
  169SAPE  C21619115   1.656   2.573   8.298 -0.0262 -0.3190  0.7253
  169SAPE  H16R19116   1.728   2.646   8.257  2.0469 -2.9414 -0.4407
  169SAPE  H16S19117   1.721   2.490   8.334  0.4944  0.9237  2.7411
  169SAPE  C21719118   1.573   2.646   8.419  0.0617  0.4639  0.2885
  169SAPE  H17R19119   1.495   2.579   8.461 -0.4201  2.0832  2.0410
  169SAPE  H17S19120   1.535   2.737   8.368 -0.8972  0.7739  1.5619
  169SAPE  C21819121   1.668   2.684   8.528  0.0287 -0.0608  0.7887
  169SAPE  H18R19122   1.721   2.590   8.554 -0.7828 -1.3716 -2.1755
  169SAPE  H18S19123   1.612   2.713   8.620  0.6007  0.1890  1.0616
  169SAPE  C21919124   1.765   2.795   8.485 -0.5079  0.9640  0.2160
  169SAPE  H19R19125   1.717   2.893   8.466 -1.6039  0.8386  2.2667
  169SAPE  H19S19126   1.819   2.764   8.393 -0.6193  0.2092  0.4000
  169SAPE  C22019127   1.859   2.818   8.600  0.6447  0.3930 -1.2370
  169SAPE  H20R19128   1.928   2.904   8.586  1.3351  0.3785  1.7222
  169SAPE  H20S19129   1.919   2.727   8.625  0.5710  0.4412 -0.8801
  169SAPE  H20T19130   1.802   2.838   8.693  1.6305 -0.9850 -0.3119
  169SAPE   C3319131   2.052   2.614   7.125 -0.3068  0.3228  0.4600
  169SAPE   H3X19132   2.051   2.725   7.116 -0.9733  0.2372 -0.6835
  169SAPE   H3Y19133   2.161   2.592   7.119 -0.1836  1.2485 -1.3762
  169SAPE   C3419134   1.999   2.584   7.267 -0.4176 -0.4324  0.0626
  169SAPE   H4X19135   2.011   2.477   7.293  2.0247 -0.6351 -1.7804
  169SAPE   H4Y19136   1.889   2.598   7.272 -0.6016 -1.9730  0.4492
  169SAPE   C3519137   2.062   2.667   7.376  0.4595  0.0419 -0.0971
  169SAPE   H5X19138   2.024   2.770   7.360  2.2735  0.5794 -1.0951
  169SAPE   H5Y19139   2.171   2.685   7.363  0.1874  3.4149  1.8595
  169SAPE   C3619140   2.028   2.608   7.512  0.1958  0.7685  0.6960
  169SAPE   H6X19141   2.068   2.504   7.513 -0.2675  0.5923  1.4739
  169SAPE   H6Y19142   1.917   2.607   7.518  0.1642 -2.8264  0.3454
  169SAPE   C3719143   2.069   2.689   7.630  0.0476 -0.2307 -0.7802
  169SAPE   H7X19144   2.032   2.793   7.623 -0.8476 -0.3201  2.0166
  169SAPE   H7Y19145   2.179   2.691   7.619  0.3248 -2.8144  0.9981
  169SAPE   C3819146   2.034   2.614   7.761  0.4622  0.0668 -0.0716
  169SAPE   H8X19147   2.088   2.517   7.759  1.5928  0.6986 -1.2201
  169SAPE   H8Y19148   1.925   2.594   7.754  0.3240  0.7810  0.0011
  169SAPE   C3919149   2.052   2.684   7.900  0.6949 -0.3785  0.2391
  169SAPE   H9X19150   1.989   2.775   7.885  2.1859  0.8650  1.3246
  169SAPE   H9Y19151   2.158   2.714   7.916  0.5623  0.8746 -1.1011
  169SAPE  C31019152   2.023   2.590   8.024 -0.0271  0.3371 -1.0712
  169SAPE  H10X19153   2.095   2.505   8.019 -0.1544  0.1697 -0.0332
  169SAPE  H10Y19154   1.919   2.551   8.030 -0.5253  1.7158 -0.6252
  169SAPE  C31119155   2.072   2.656   8.151  0.2547  0.8939 -0.3348
  169SAPE  H11X19156   2.007   2.745   8.166 -2.8352 -1.6602  2.0447
  169SAPE  H11Y19157   2.180   2.682   8.147  0.4933 -0.4890 -3.5693
  169SAPE  C31219158   2.050   2.566   8.271  0.4645 -0.2352  0.2566
  169SAPE  H12X19159   2.078   2.460   8.255 -2.1269 -0.6577 -1.9382
  169SAPE  H12Y19160   1.942   2.573   8.295  0.9292  0.9133  2.0672
  169SAPE  C31319161   2.120   2.618   8.398  0.0291  0.4455  0.4458
  169SAPE  H13X19162   2.085   2.722   8.412  1.7867  1.4227 -2.0546
  169SAPE  H13Y19163   2.230   2.622   8.386  0.1301 -1.2272  0.7140
  169SAPE  C31419164   2.091   2.530   8.520  0.3402  0.1912  0.3122
  169SAPE  H14X19165   2.101   2.423   8.494  1.3156 -0.0359  1.5610
  169SAPE  H14Y19166   1.985   2.547   8.549  0.2986 -0.6512  0.6648
  169SAPE  C31519167   2.176   2.565   8.650 -0.0752  0.6234 -0.0602
  169SAPE  H15X19168   2.096   2.559   8.727  1.6371 -3.2494  1.5615
  169SAPE  H15Y19169   2.218   2.667   8.635 -0.2411  0.6174 -0.6014
  169SAPE  C31619170   2.293   2.470   8.671 -0.6305  0.1720 -0.0433
  169SAPE  H16X19171   2.271   2.380   8.610 -1.7789  0.4043  0.0071
  169SAPE  H16Y19172   2.293   2.444   8.779 -0.4905 -1.9697 -0.5509
  169SAPE  C31719173   2.422   2.536   8.636 -0.3956 -0.0092 -1.0969
  169SAPE  H17X19174   2.440   2.630   8.693 -1.1934  0.4821 -1.6493
  169SAPE  H17Y19175   2.419   2.571   8.531  1.1745  1.3685 -0.7135
  169SAPE  C31819176   2.553   2.461   8.663  0.1065  0.0342 -0.1429
  169SAPE  H18X19177   2.649   2.515   8.648  0.4845 -0.8947 -1.1658
  169SAPE  H18Y19178   2.548   2.373   8.595 -1.5382  1.2037 -1.5730
  169SAPE  H18Z19179   2.570   2.420   8.765  1.0586 -1.9212 -1.0619
  170SAPE     N19180   2.612   6.428   5.996  0.1148 -0.0172  0.3879
  170SAPE   HN119181   2.683   6.502   5.980 -0.0844  0.6306  2.3238
  170SAPE   HN219182   2.568   6.396   5.908 -1.6038 -0.6225  1.4374
  170SAPE   HN319183   2.531   6.459   6.054 -1.3502  0.7736 -1.9774
  170SAPE   C1219184   2.676   6.303   6.054  0.3504 -0.1837  0.5492
  170SAPE  H12A19185   2.754   6.263   5.986  0.7538  2.2819 -0.4856
  170SAPE  H12B19186   2.605   6.222   6.080  1.4764 -1.4708 -0.2847
  170SAPE   C1119187   2.756   6.345   6.178  1.1086 -0.0932  1.1077
  170SAPE  H11A19188   2.805   6.252   6.215  1.2414  0.3379  2.0328
  170SAPE  H11B19189   2.697   6.392   6.259  3.1612  0.7838  2.1346
  170SAPE     P19190   2.967   6.487   6.240 -0.6712  0.3150 -0.5346
  170SAPE   O1319191   3.068   6.388   6.286  0.6076 -0.6545 -0.2072
  170SAPE   O1419192   3.026   6.609   6.174  0.0259  0.1901 -0.3835
  170SAPE   O1219193   2.865   6.430   6.132  0.4256 -0.0125 -0.2548
  170SAPE   O1119194   2.877   6.544   6.354 -0.4251  0.1637 -0.7514
  170SAPE    C119195   2.779   6.646   6.339  0.5753  0.0396 -0.0055
  170SAPE    HA19196   2.808   6.740   6.287 -0.7150 -0.2598 -1.3139
  170SAPE    HB19197   2.696   6.605   6.277 -0.6534  1.3718  0.7148
  170SAPE    C219198   2.716   6.674   6.474 -0.0440 -0.3705 -0.1695
  170SAPE    HS19199   2.653   6.765   6.466 -0.5403 -0.6247  0.8801
  170SAPE   O2119200   2.823   6.711   6.563 -0.2099 -0.3608  0.3038
  170SAPE   C2119201   2.894   6.816   6.544  0.1234 -0.3460 -0.1266
  170SAPE   O2219202   2.884   6.901   6.456 -0.2317 -0.1496 -0.6898
  170SAPE   C2219203   3.002   6.813   6.653 -0.1909  0.1676 -0.0174
  170SAPE   H2R19204   2.956   6.861   6.742 -5.1838  0.6183 -2.6240
  170SAPE   H2S19205   3.013   6.708   6.685  0.2385  0.0133 -0.6671
  170SAPE    C319206   2.636   6.552   6.523  0.2647  0.6177 -0.1467
  170SAPE    HX19207   2.708   6.469   6.506 -0.7276 -0.2972  0.0879
  170SAPE    HY19208   2.548   6.545   6.456  0.7388  1.2154 -0.8562
  170SAPE   O3119209   2.587   6.553   6.655  0.1775  0.0745 -0.7263
  170SAPE   C3119210   2.595   6.439   6.731 -0.4335 -0.3102 -0.0170
  170SAPE   O3219211   2.672   6.352   6.719 -0.2954  0.2958 -0.1649
  170SAPE   C3219212   2.491   6.450   6.842 -1.0780  0.7714  1.1353
  170SAPE   H2X19213   2.477   6.558   6.866  0.2265  0.8157  1.7878
  170SAPE   H2Y19214   2.533   6.400   6.932  0.5501  1.5984  0.8505
  170SAPE   C2319215   3.127   6.889   6.630  0.3835  0.3830 -1.1250
  170SAPE   H3R19216   3.091   6.990   6.602 -0.5621  0.0356 -1.2044
  170SAPE   H3S19217   3.183   6.847   6.544  1.3564 -0.9322  0.1284
  170SAPE   C2419218   3.227   6.905   6.742  0.1551  0.4110 -0.1182
  170SAPE   H4R19219   3.177   6.942   6.834  0.5537 -0.4552  0.4472
  170SAPE   H4S19220   3.302   6.981   6.711  2.7039 -1.4174  1.4109
  170SAPE   C2519221   3.309   6.775   6.776  0.0716  0.1223  0.4492
  170SAPE   H5R19222   3.335   6.728   6.680 -2.2260 -2.7790  1.1856
  170SAPE   C2619223   3.340   6.714   6.898  0.2304 -0.6423  0.2748
  170SAPE   H6R19224   3.396   6.619   6.892 -0.5642 -1.2961  2.7994
  170SAPE   C2719225   3.302   6.773   7.029 -0.1665  0.3490 -0.3981
  170SAPE   H7R19226   3.304   6.682   7.093  0.9275 -0.9028 -2.1762
  170SAPE   H7S19227   3.194   6.799   7.029  0.0615  1.3293 -0.7330
  170SAPE   C2819228   3.401   6.880   7.083 -0.5768  0.2084 -0.6010
  170SAPE   H8R19229   3.467   6.915   7.002  1.5986 -0.2181  0.9205
  170SAPE   C2919230   3.429   6.918   7.205  0.4726  0.1451  0.3653
  170SAPE   H9R19231   3.512   6.989   7.219  1.6060 -1.1330  0.2915
  170SAPE  C21019232   3.365   6.869   7.335  0.3632  0.7589  0.6658
  170SAPE  H10R19233   3.305   6.776   7.329 -0.8870  1.5858  0.1205
  170SAPE  H10S19234   3.288   6.948   7.354  0.4639  0.3446  2.9282
  170SAPE  C21119235   3.455   6.869   7.448  0.0138  0.0399 -0.1356
  170SAPE  H11R19236   3.557   6.844   7.415 -0.3576 -0.1758 -1.1502
  170SAPE  C21219237   3.417   6.895   7.573 -0.6232  0.5837 -0.1669
  170SAPE  H12R19238   3.496   6.890   7.649  0.8170  3.7188 -1.3538
  170SAPE  C21319239   3.278   6.940   7.616  0.2009 -0.8790  0.0310
  170SAPE  H13R19240   3.214   6.853   7.643 -1.2993  0.1446 -0.2029
  170SAPE  H13S19241   3.220   6.999   7.542  1.0105  2.4235  1.9493
  170SAPE  C21419242   3.293   7.032   7.732  0.0014 -0.4441  0.5000
  170SAPE  H14R19243   3.331   7.134   7.720 -1.1654  0.2464  2.4115
  170SAPE  C21519244   3.267   7.006   7.859  0.0035 -0.5323  0.1033
  170SAPE  H15R19245   3.281   7.084   7.935  0.1795  1.4624 -1.9125
  170SAPE  C21619246   3.215   6.877   7.914 -0.1120  0.5064  0.0024
  170SAPE  H16R19247   3.271   6.854   8.008  1.0218 -3.8985 -1.6250
  170SAPE  H16S19248   3.222   6.791   7.843 -1.5788  2.0184 -1.9959
  170SAPE  C21719249   3.065   6.884   7.961 -0.5831 -0.5507  0.4182
  170SAPE  H17R19250   3.010   6.887   7.865  0.7544  2.3198 -0.3260
  170SAPE  H17S19251   3.051   6.975   8.023 -0.8477 -0.3982  0.1347
  170SAPE  C21819252   3.028   6.760   8.044  0.4576  1.0855  1.0498
  170SAPE  H18R19253   3.060   6.667   7.992 -0.7451  0.7687  0.8576
  170SAPE  H18S19254   2.917   6.757   8.055  0.1574  2.0446 -1.4225
  170SAPE  C21919255   3.097   6.762   8.182  0.4484 -0.4878  0.0200
  170SAPE  H19R19256   3.083   6.860   8.232 -0.7767 -0.8359  0.3816
  170SAPE  H19S19257   3.203   6.740   8.155  0.4253  0.7848 -1.1537
  170SAPE  C22019258   3.043   6.658   8.276 -0.1193 -0.1493  0.5347
  170SAPE  H20R19259   3.100   6.678   8.370  0.7399  1.0267 -0.2194
  170SAPE  H20S19260   3.059   6.553   8.243  0.0933 -0.2199  0.8599
  170SAPE  H20T19261   2.935   6.673   8.295 -0.3843  0.5971 -1.4700
  170SAPE   C3319262   2.360   6.392   6.802  0.4243  0.1632  0.6569
  170SAPE   H3X19263   2.339   6.426   6.698  1.3161  2.1993  1.1133
  170SAPE   H3Y19264   2.284   6.426   6.876  0.4609 -1.2346  1.3512
  170SAPE   C3419265   2.359   6.241   6.808 -0.4875  1.0756 -0.1840
  170SAPE   H4X19266   2.451   6.209   6.754 -0.3606  0.5271  0.3547
  170SAPE   H4Y19267   2.272   6.203   6.750  1.1542  0.3154 -2.2354
  170SAPE   C3519268   2.364   6.170   6.944  0.8901  0.2326 -0.2849
  170SAPE   H5X19269   2.463   6.194   6.987  0.9726 -1.6347  0.5867
  170SAPE   H5Y19270   2.376   6.066   6.908  1.6058  0.7976 -1.7180
  170SAPE   C3619271   2.236   6.188   7.040 -0.1104  0.3739  0.2646
  170SAPE   H6X19272   2.147   6.143   6.991  0.4048 -2.0913  1.5372
  170SAPE   H6Y19273   2.223   6.294   7.069 -1.3588 -0.3872  2.5576
  170SAPE   C3719274   2.251   6.118   7.179  0.0634  0.1182  0.2822
  170SAPE   H7X19275   2.324   6.169   7.246  0.7507 -1.7377  0.9788
  170SAPE   H7Y19276   2.289   6.015   7.161  1.7489  0.6570  0.6276
  170SAPE   C3819277   2.114   6.102   7.243 -0.4698  0.8807  0.1698
  170SAPE   H8X19278   2.042   6.088   7.159 -1.6959  0.0282  1.3319
  170SAPE   H8Y19279   2.079   6.200   7.281  0.0034  1.8752 -1.9011
  170SAPE   C3919280   2.108   5.988   7.350 -0.3793  0.2153  0.2140
  170SAPE   H9X19281   2.148   6.030   7.445 -1.0033  0.4606  0.3743
  170SAPE   H9Y19282   2.158   5.893   7.322  0.0873 -0.3538  2.8212
  170SAPE  C31019283   1.966   5.936   7.383 -0.3133 -0.4575  0.2782
  170SAPE  H10X19284   1.927   5.890   7.289  3.5652 -2.2850 -0.5266
  170SAPE  H10Y19285   1.893   6.019   7.390 -0.4883 -0.7400  1.8435
  170SAPE  C31119286   1.960   5.842   7.497  0.2915 -0.2338 -0.4444
  170SAPE  H11X19287   2.016   5.750   7.468  1.3714  0.5201 -0.7744
  170SAPE  H11Y19288   1.856   5.803   7.487 -0.0569  0.8340 -1.0244
  170SAPE  C31219289   2.008   5.891   7.632 -0.0263 -0.0438 -0.0695
  170SAPE  H12X19290   1.986   6.000   7.641 -0.9685 -0.1707 -0.7442
  170SAPE  H12Y19291   2.118   5.891   7.643 -0.1954 -0.6065  1.6084
  170SAPE  C31319292   1.947   5.810   7.747  0.1538  0.0916 -0.0434
  170SAPE  H13X19293   1.964   5.701   7.733 -1.1340 -0.4773  2.4746
  170SAPE  H13Y19294   1.837   5.820   7.749  0.1504  0.7052 -2.0250
  170SAPE  C31419295   1.994   5.849   7.891  0.2618  0.5599 -1.0696
  170SAPE  H14X19296   1.983   5.958   7.910 -1.9219  0.2409 -0.2403
  170SAPE  H14Y19297   2.097   5.813   7.910 -0.3705 -1.2083 -0.9460
  170SAPE  C31519298   1.914   5.787   8.004  0.3407 -0.5979  0.1278
  170SAPE  H15X19299   1.903   5.676   8.005 -0.3698 -0.5273  1.0609
  170SAPE  H15Y19300   1.810   5.825   7.999  0.3752 -0.3587  1.0612
  170SAPE  C31619301   1.960   5.847   8.139  0.0609  0.2774  0.8893
  170SAPE  H16X19302   1.955   5.957   8.128  2.6430  0.6241  2.5446
  170SAPE  H16Y19303   2.066   5.816   8.148 -0.1985 -0.6015  1.0144
  170SAPE  C31719304   1.880   5.804   8.259  0.0381 -0.3247  1.0540
  170SAPE  H17X19305   1.859   5.696   8.254  1.2853 -0.5662  0.6879
  170SAPE  H17Y19306   1.781   5.853   8.252  0.4515  0.1652 -2.9236
  170SAPE  C31819307   1.939   5.828   8.399 -0.4438  0.0654 -0.1474
  170SAPE  H18X19308   2.024   5.757   8.411  0.0577  0.4678 -1.2777
  170SAPE  H18Y19309   1.863   5.820   8.480 -2.5385 -2.6552 -2.2644
  170SAPE  H18Z19310   1.990   5.926   8.404  0.9930 -0.6098 -1.2783
  171SAPE     N19311   4.511   0.359   5.978  0.0615  0.3880  0.4846
  171SAPE   HN119312   4.458   0.427   6.037  0.4326  2.4093 -1.4899
  171SAPE   HN219313   4.495   0.378   5.878 -0.0939  1.0773  0.6387
  171SAPE   HN319314   4.467   0.267   5.997 -1.1279  0.5340 -1.5307
  171SAPE   C1219315   4.654   0.362   6.020 -0.0186  0.5136 -0.3955
  171SAPE  H12A19316   4.689   0.466   6.005  0.6508  0.4785  0.8272
  171SAPE  H12B19317   4.706   0.293   5.950  0.0505  0.4281 -0.2608
  171SAPE   C1119318   4.683   0.299   6.162  0.6406  0.0793  0.6278
  171SAPE  H11A19319   4.789   0.291   6.193  1.1730  0.7229 -1.0162
  171SAPE  H11B19320   4.649   0.193   6.167  2.2239 -0.4581  0.0715
  171SAPE     P19321   4.473   0.368   6.306 -0.2011  0.0593 -0.6412
  171SAPE   O1319322   4.392   0.441   6.209 -0.4572  0.6069 -0.0113
  171SAPE   O1419323   4.437   0.228   6.327  0.3639  0.0762  0.2418
  171SAPE   O1219324   4.619   0.373   6.271 -0.0632 -0.6210 -0.2798
  171SAPE   O1119325   4.479   0.451   6.442  0.0419 -0.1822  0.0310
  171SAPE    C119326   4.560   0.400   6.546 -0.1798 -0.6482 -0.1848
  171SAPE    HA19327   4.533   0.296   6.571  0.4987 -0.6894  0.3950
  171SAPE    HB19328   4.668   0.414   6.523 -0.3213 -1.1628 -1.2020
  171SAPE    C219329   4.514   0.463   6.683  0.0755 -0.3501 -0.9981
  171SAPE    HS19330   4.522   0.573   6.691  0.7210 -0.5482  1.3733
  171SAPE   O2119331   4.595   0.400   6.791 -0.7540  0.1712 -0.3696
  171SAPE   C2119332   4.713   0.450   6.807  0.4769 -0.3012 -0.6227
  171SAPE   O2219333   4.768   0.545   6.757  0.7097 -0.0417 -0.6938
  171SAPE   C2219334   4.776   0.376   6.930 -0.3679 -0.4734 -0.0474
  171SAPE   H2R19335   4.812   0.275   6.901 -0.8504 -1.6122  3.1503
  171SAPE   H2S19336   4.865   0.440   6.949  0.6644 -1.9350  0.1087
  171SAPE    C319337   4.364   0.440   6.709 -0.1354  0.6797  0.2527
  171SAPE    HX19338   4.353   0.330   6.718  0.6129  0.5726 -0.1194
  171SAPE    HY19339   4.306   0.479   6.623  1.7222  0.9824 -0.8870
  171SAPE   O3119340   4.332   0.516   6.828 -0.3704 -0.1210  0.0211
  171SAPE   C3119341   4.210   0.496   6.878  0.1872  0.4150 -0.4588
  171SAPE   O3219342   4.121   0.432   6.829  0.4708  0.0077 -0.1151
  171SAPE   C3219343   4.219   0.549   7.025  0.0843 -0.5165  0.3929
  171SAPE   H2X19344   4.318   0.599   7.029  1.2241 -2.6650 -0.0844
  171SAPE   H2Y19345   4.213   0.466   7.099  2.6283 -0.7200  0.3970
  171SAPE   C2319346   4.677   0.383   7.055  0.4272 -0.0426  0.0303
  171SAPE   H3R19347   4.731   0.324   7.131 -1.1165  0.0399  1.2183
  171SAPE   H3S19348   4.582   0.329   7.037 -0.4407  1.2365  0.6676
  171SAPE   C2419349   4.649   0.528   7.107  0.1381  0.1422  0.6456
  171SAPE   H4R19350   4.617   0.591   7.022  0.5802  0.7277  0.9076
  171SAPE   H4S19351   4.740   0.584   7.139  0.9213 -0.0545 -1.1769
  171SAPE   C2519352   4.552   0.527   7.223  0.6299  0.6735  0.1403
  171SAPE   H5R19353   4.502   0.429   7.234  2.1514 -0.0423  0.8355
  171SAPE   C2619354   4.511   0.632   7.294  0.1111 -0.3879 -0.3818
  171SAPE   H6R19355   4.449   0.598   7.378 -0.9069 -1.4674 -1.5479
  171SAPE   C2719356   4.560   0.773   7.278 -0.4646 -0.1003 -0.1342
  171SAPE   H7R19357   4.658   0.772   7.227 -0.7134 -1.9028 -0.6090
  171SAPE   H7S19358   4.578   0.821   7.377 -0.1727 -1.4347  0.4814
  171SAPE   C2819359   4.470   0.842   7.189  0.3332 -0.4865  0.3846
  171SAPE   H8R19360   4.474   0.812   7.084  2.4980  0.8122  0.0638
  171SAPE   C2919361   4.403   0.958   7.217  0.1119 -0.3893 -0.0454
  171SAPE   H9R19362   4.349   1.008   7.135  1.4613 -1.8357 -1.8495
  171SAPE  C21019363   4.407   1.035   7.345 -0.4192 -0.1963  0.3232
  171SAPE  H10R19364   4.420   0.970   7.433  2.9482  2.8673  2.1832
  171SAPE  H10S19365   4.314   1.097   7.349 -0.0360  0.3250  1.0767
  171SAPE  C21119366   4.518   1.136   7.360 -0.3772 -0.0879 -0.7469
  171SAPE  H11R19367   4.621   1.097   7.365 -0.5413 -0.3338  0.7637
  171SAPE  C21219368   4.507   1.271   7.374  0.4032 -0.6448 -0.1354
  171SAPE  H12R19369   4.596   1.334   7.383  0.5404 -0.6151 -1.5372
  171SAPE  C21319370   4.381   1.358   7.375  0.3747 -0.3824  0.1963
  171SAPE  H13R19371   4.292   1.300   7.410 -2.2326  2.9909 -0.5275
  171SAPE  H13S19372   4.360   1.367   7.266  1.2974  0.7051  0.1064
  171SAPE  C21419373   4.389   1.493   7.455  0.2438 -0.0035 -0.3633
  171SAPE  H14R19374   4.363   1.584   7.399 -0.4666 -0.2451 -0.4370
  171SAPE  C21519375   4.403   1.507   7.589  0.1469 -0.1849  0.4650
  171SAPE  H15R19376   4.402   1.608   7.631  1.5324  0.7199 -1.5706
  171SAPE  C21619377   4.420   1.393   7.682  0.7647 -0.1934 -0.3928
  171SAPE  H16R19378   4.483   1.416   7.770 -1.0829 -0.4632  1.0291
  171SAPE  H16S19379   4.460   1.303   7.631 -1.4950 -0.6385 -1.4374
  171SAPE  C21719380   4.279   1.360   7.738 -0.3885  0.8470 -0.7776
  171SAPE  H17R19381   4.289   1.259   7.783  0.4422  0.1660 -2.4268
  171SAPE  H17S19382   4.205   1.340   7.658  0.3539 -0.2983 -1.1834
  171SAPE  C21819383   4.218   1.457   7.848  0.2169 -0.3885  0.3843
  171SAPE  H18R19384   4.222   1.555   7.796 -0.3854 -0.9241 -0.6858
  171SAPE  H18S19385   4.287   1.455   7.936 -0.0507  0.7665  0.6212
  171SAPE  C21919386   4.083   1.419   7.891 -0.0797  0.5387  0.3592
  171SAPE  H19R19387   4.067   1.310   7.907 -1.3572  0.1529 -3.1660
  171SAPE  H19S19388   4.015   1.427   7.803 -0.2218  3.9357  0.7097
  171SAPE  C22019389   4.025   1.509   7.994  0.3045 -0.3896  0.3240
  171SAPE  H20R19390   3.919   1.502   8.027  0.6203 -2.3740  0.9417
  171SAPE  H20S19391   4.025   1.614   7.955 -3.0260  0.3241  2.0049
  171SAPE  H20T19392   4.092   1.500   8.082 -1.4703 -3.0423  1.4605
  171SAPE   C3319393   4.115   0.658   7.051  0.4532 -0.0266  0.5764
  171SAPE   H3X19394   4.011   0.621   7.039 -0.1058  1.1059  1.7472
  171SAPE   H3Y19395   4.128   0.739   6.976 -0.2060  0.0871  0.5865
  171SAPE   C3419396   4.130   0.715   7.199  0.0728 -0.6368  0.2750
  171SAPE   H4X19397   4.209   0.793   7.198  0.5109 -1.0872 -0.0694
  171SAPE   H4Y19398   4.161   0.635   7.269 -0.4762  0.3348  1.6512
  171SAPE   C3519399   3.995   0.773   7.251 -0.2422 -0.3718 -0.2500
  171SAPE   H5X19400   3.914   0.710   7.209 -0.1454  0.6479 -1.9943
  171SAPE   H5Y19401   3.978   0.873   7.206 -1.2370  0.0591  1.0599
  171SAPE   C3619402   3.988   0.791   7.401  0.0262 -0.4771  0.1287
  171SAPE   H6X19403   3.951   0.704   7.460 -4.1555  1.4353  0.5775
  171SAPE   H6Y19404   3.909   0.868   7.419 -0.4063 -0.6206 -1.1033
  171SAPE   C3719405   4.121   0.834   7.461  0.5028  0.8372 -0.7703
  171SAPE   H7X19406   4.156   0.931   7.421 -0.8442  1.9677  0.7099
  171SAPE   H7Y19407   4.200   0.761   7.432 -1.8471 -1.0842 -2.5222
  171SAPE   C3819408   4.104   0.827   7.615  0.0152 -0.4053 -0.1019
  171SAPE   H8X19409   4.094   0.718   7.635  1.2162 -0.4197  0.4784
  171SAPE   H8Y19410   4.012   0.885   7.636  0.6805  1.2785 -1.6761
  171SAPE   C3919411   4.208   0.892   7.697  0.0752  0.2806  0.0116
  171SAPE   H9X19412   4.171   0.896   7.802  0.8041  0.5757  0.2631
  171SAPE   H9Y19413   4.214   0.999   7.668 -1.0732  0.0269 -1.2095
  171SAPE  C31019414   4.344   0.832   7.689  0.2389  0.1817 -0.5687
  171SAPE  H10X19415   4.372   0.827   7.582  3.4768 -3.0809  0.3127
  171SAPE  H10Y19416   4.361   0.726   7.718 -2.1377 -0.3116 -0.8458
  171SAPE  C31119417   4.462   0.920   7.748 -0.5159  0.4098 -0.1640
  171SAPE  H11X19418   4.435   1.027   7.735 -2.7345  0.1419  1.8870
  171SAPE  H11Y19419   4.560   0.891   7.705 -1.0285 -0.9323 -0.4690
  171SAPE  C31219420   4.491   0.885   7.901 -0.3850 -0.1267  0.4650
  171SAPE  H12X19421   4.521   0.778   7.893 -1.9643 -0.4601 -1.5532
  171SAPE  H12Y19422   4.389   0.891   7.946 -1.1403 -2.2677 -0.8609
  171SAPE  C31319423   4.595   0.971   7.968 -0.2313 -0.7456  0.1953
  171SAPE  H13X19424   4.683   0.971   7.901  0.7555 -3.6759  1.3913
  171SAPE  H13Y19425   4.632   0.922   8.061  0.4634  0.4920  0.5683
  171SAPE  C31419426   4.540   1.119   7.990  0.5760  0.6562 -0.4083
  171SAPE  H14X19427   4.441   1.116   8.040 -0.1492  4.5441 -1.4201
  171SAPE  H14Y19428   4.536   1.180   7.897  0.6465  0.5630 -0.4725
  171SAPE  C31519429   4.636   1.198   8.071  0.0512  0.7399  0.0237
  171SAPE  H15X19430   4.720   1.227   8.005 -0.0351 -2.1383 -1.4460
  171SAPE  H15Y19431   4.684   1.130   8.145  0.9294  1.0910 -0.2178
  171SAPE  C31619432   4.573   1.312   8.139 -0.0988 -0.8029  1.1019
  171SAPE  H16X19433   4.533   1.388   8.068  1.8802 -0.3616  0.4272
  171SAPE  H16Y19434   4.652   1.365   8.196 -0.9903  1.1209  0.6131
  171SAPE  C31719435   4.468   1.283   8.255 -0.5363 -0.1841 -0.0709
  171SAPE  H17X19436   4.500   1.200   8.322  0.5732  1.1303  1.0427
  171SAPE  H17Y19437   4.375   1.255   8.201 -2.2532  3.6328  0.8168
  171SAPE  C31819438   4.451   1.401   8.349 -0.5416  0.0479  0.1270
  171SAPE  H18X19439   4.555   1.426   8.378 -0.4697 -1.4152  1.1858
  171SAPE  H18Y19440   4.383   1.383   8.435 -0.1027  0.7894  0.6291
  171SAPE  H18Z19441   4.420   1.492   8.293  0.4826 -0.2827 -1.0021
  172SAPE     N19442   3.298   6.276   6.223  0.3736 -0.5909 -0.2036
  172SAPE   HN119443   3.216   6.309   6.277  0.1901 -0.4152 -0.5854
  172SAPE   HN219444   3.355   6.206   6.274 -0.9076 -2.2652 -1.0146
  172SAPE   HN319445   3.341   6.367   6.198 -0.4858  0.0701  0.7065
  172SAPE   C1219446   3.266   6.219   6.091 -0.3665  0.0717  0.3510
  172SAPE  H12A19447   3.345   6.242   6.016  1.0562 -0.5240  1.6530
  172SAPE  H12B19448   3.170   6.256   6.048 -0.0463  0.7718  0.2402
  172SAPE   C1119449   3.252   6.064   6.099 -0.1377  0.3031  0.3299
  172SAPE  H11A19450   3.212   6.046   5.997  1.7540  1.5830 -0.6598
  172SAPE  H11B19451   3.185   6.027   6.180 -1.2548  0.9790 -0.2571
  172SAPE     P19452   3.486   5.978   6.192  0.0077  0.0575  0.1129
  172SAPE   O1319453   3.481   5.838   6.235 -0.2321 -0.1233  0.3220
  172SAPE   O1419454   3.606   6.051   6.141  0.1124 -0.3175 -0.6984
  172SAPE   O1219455   3.373   5.998   6.088 -0.2313 -0.6508  0.4992
  172SAPE   O1119456   3.431   6.070   6.302  0.1497 -0.0355  0.4723
  172SAPE    C119457   3.356   6.017   6.418 -0.4049 -0.2104  0.4770
  172SAPE    HA19458   3.256   6.064   6.424 -0.1658  0.1876  1.5189
  172SAPE    HB19459   3.342   5.908   6.407 -1.7201 -0.1314  1.2943
  172SAPE    C219460   3.428   6.037   6.557 -0.2986  0.3861  0.1118
  172SAPE    HS19461   3.431   6.142   6.594  1.2972  0.4854 -0.2887
  172SAPE   O2119462   3.561   5.981   6.545 -0.1283  0.4491 -0.0848
  172SAPE   C2119463   3.647   6.021   6.639  0.1630 -0.2105  0.0764
  172SAPE   O2219464   3.624   6.095   6.733  0.1926  0.2934 -0.3409
  172SAPE   C2219465   3.786   5.961   6.612  0.9737  0.1479 -0.3336
  172SAPE   H2R19466   3.774   5.891   6.527 -0.3828 -0.9789  0.7806
  172SAPE   H2S19467   3.856   6.037   6.570  1.4219 -1.0351 -1.7549
  172SAPE    C319468   3.349   5.959   6.660  0.4591  0.8901 -0.3253
  172SAPE    HX19469   3.376   5.852   6.646 -0.4834  0.1822  2.8519
  172SAPE    HY19470   3.243   5.970   6.627  0.7987 -3.0332 -3.0596
  172SAPE   O3119471   3.357   6.005   6.792 -0.6292 -0.4099 -0.0567
  172SAPE   C3119472   3.317   5.905   6.876 -0.6369 -0.2907 -0.7472
  172SAPE   O3219473   3.286   5.792   6.843 -0.4152  1.0557  0.1728
  172SAPE   C3219474   3.313   5.955   7.019  1.1469  0.1405 -0.1591
  172SAPE   H2X19475   3.227   6.024   7.032 -0.5674 -1.8661 -0.5261
  172SAPE   H2Y19476   3.410   6.006   7.034  2.2481 -1.4055 -1.8589
  172SAPE   C2319477   3.844   5.872   6.722  0.0231  0.7908 -0.6268
  172SAPE   H3R19478   3.782   5.780   6.729  1.0637  0.0308 -1.2885
  172SAPE   H3S19479   3.835   5.925   6.819 -0.5710 -0.7582  0.1818
  172SAPE   C2419480   3.993   5.837   6.708  0.5669 -0.1550  0.5719
  172SAPE   H4R19481   4.040   5.813   6.806 -0.1067 -1.2253  0.6400
  172SAPE   H4S19482   4.049   5.928   6.680  0.9422 -0.5313  0.0878
  172SAPE   C2519483   4.033   5.723   6.616 -0.1739 -0.3827  0.4748
  172SAPE   H5R19484   4.008   5.747   6.512  0.6619 -2.2028 -0.1592
  172SAPE   C2619485   4.079   5.601   6.640  0.7318 -0.4930 -0.1264
  172SAPE   H6R19486   4.091   5.542   6.548  1.0852 -2.5746  1.2158
  172SAPE   C2719487   4.113   5.529   6.769  0.2082 -0.3046 -0.1568
  172SAPE   H7R19488   4.120   5.603   6.851 -1.6282 -0.5113  0.1927
  172SAPE   H7S19489   4.214   5.482   6.760  0.8400  0.9633  0.2376
  172SAPE   C2819490   4.016   5.426   6.824  0.4584 -0.2323 -0.6202
  172SAPE   H8R19491   3.982   5.365   6.739 -2.5956  2.2837 -1.3030
  172SAPE   C2919492   3.971   5.401   6.949 -0.5761  0.5826  0.2271
  172SAPE   H9R19493   3.887   5.331   6.959  0.0439 -0.3254 -0.8084
  172SAPE  C21019494   4.006   5.477   7.076  0.1160  1.2177 -0.7589
  172SAPE  H10R19495   3.907   5.505   7.117 -0.3626 -1.3958 -0.0508
  172SAPE  H10S19496   4.074   5.563   7.056  1.0405  0.6785 -0.0025
  172SAPE  C21119497   4.073   5.372   7.170 -0.4320 -0.3463 -0.5479
  172SAPE  H11R19498   4.115   5.282   7.123 -0.5552 -1.0308  0.6194
  172SAPE  C21219499   4.074   5.369   7.305  0.2435 -0.0701 -0.2094
  172SAPE  H12R19500   4.118   5.280   7.353  1.3833  0.3549 -0.4500
  172SAPE  C21319501   4.005   5.456   7.402  1.0932  0.4066  0.2567
  172SAPE  H13R19502   3.926   5.398   7.455  0.2878  1.8643  0.6546
  172SAPE  H13S19503   3.944   5.536   7.356 -0.0809  1.0345  2.8241
  172SAPE  C21419504   4.093   5.521   7.507  0.2591 -0.3510 -0.7279
  172SAPE  H14R19505   4.152   5.607   7.469  0.5159  0.0197  0.4984
  172SAPE  C21519506   4.112   5.482   7.636  0.1972  0.4660  0.0836
  172SAPE  H15R19507   4.179   5.545   7.696 -1.5929  1.7739  0.7709
  172SAPE  C21619508   4.055   5.359   7.701 -0.2480  0.3631  0.4602
  172SAPE  H16R19509   3.960   5.333   7.650  0.3409  1.0694 -1.0479
  172SAPE  H16S19510   4.006   5.383   7.798 -2.8856  0.5945 -0.8812
  172SAPE  C21719511   4.149   5.240   7.705 -0.5115 -0.0502  0.0893
  172SAPE  H17R19512   4.243   5.267   7.757 -0.1562 -0.4996 -0.3196
  172SAPE  H17S19513   4.176   5.230   7.598 -1.9894  2.4096 -0.5828
  172SAPE  C21819514   4.094   5.110   7.761  0.3983  0.3102  0.2835
  172SAPE  H18R19515   4.180   5.046   7.792 -0.5061 -0.3342  1.5411
  172SAPE  H18S19516   4.046   5.066   7.671 -1.3383  1.0234  0.8480
  172SAPE  C21919517   3.999   5.136   7.877 -0.7202  0.6838 -1.1083
  172SAPE  H19R19518   3.914   5.201   7.846 -1.1501  0.4540 -0.4335
  172SAPE  H19S19519   4.057   5.186   7.958  1.3392 -0.6284 -1.7360
  172SAPE  C22019520   3.936   5.008   7.935 -0.0262 -0.1837  0.1318
  172SAPE  H20R19521   3.864   5.045   8.010 -1.2330  1.6376 -1.8732
  172SAPE  H20S19522   4.009   4.938   7.981  2.5311  1.1614 -1.6807
  172SAPE  H20T19523   3.873   4.973   7.850 -1.4694  0.0652  1.0788
  172SAPE   C3319524   3.308   5.836   7.126  0.7239 -0.3517  0.0707
  172SAPE   H3X19525   3.396   5.772   7.100 -0.2673 -0.6826 -2.6100
  172SAPE   H3Y19526   3.219   5.772   7.109  0.7920 -0.8357  1.4630
  172SAPE   C3419527   3.303   5.877   7.269 -0.4781  0.9847  1.1554
  172SAPE   H4X19528   3.268   5.788   7.326 -1.4683 -0.1416 -1.1512
  172SAPE   H4Y19529   3.226   5.957   7.279 -1.8846 -0.1025 -0.6111
  172SAPE   C3519530   3.439   5.919   7.327  0.2974  0.0300  0.4212
  172SAPE   H5X19531   3.481   5.996   7.259  0.0082  1.1089  1.4583
  172SAPE   H5Y19532   3.494   5.823   7.317 -2.2235 -1.3952 -0.2570
  172SAPE   C3619533   3.439   5.968   7.468 -0.2029 -0.1909  0.1157
  172SAPE   H6X19534   3.389   6.067   7.479 -1.5583 -0.9446  0.9819
  172SAPE   H6Y19535   3.545   5.985   7.496 -0.1180 -1.1092  0.3828
  172SAPE   C3719536   3.384   5.867   7.571  0.1490  0.7215 -1.0730
  172SAPE   H7X19537   3.442   5.772   7.569  0.3896  0.7784  1.7877
  172SAPE   H7Y19538   3.280   5.840   7.542 -0.7218  2.0094  0.7603
  172SAPE   C3819539   3.387   5.921   7.714  0.1041  0.3329 -0.1399
  172SAPE   H8X19540   3.335   6.018   7.702  1.8227  1.3640  0.4781
  172SAPE   H8Y19541   3.487   5.955   7.747 -0.3149  0.1142  1.3996
  172SAPE   C3919542   3.329   5.829   7.824 -0.3475 -0.3706  0.5089
  172SAPE   H9X19543   3.380   5.732   7.842  1.2542  0.7319  2.1123
  172SAPE   H9Y19544   3.221   5.807   7.806 -0.3542 -1.0504  1.3379
  172SAPE  C31019545   3.344   5.904   7.959 -0.2775 -0.4377  0.1434
  172SAPE  H10X19546   3.276   5.992   7.964  0.3490 -0.0064  1.1444
  172SAPE  H10Y19547   3.444   5.946   7.983  1.1822 -4.1367  0.8901
  172SAPE  C31119548   3.320   5.806   8.079  0.3172  0.3227  0.4874
  172SAPE  H11X19549   3.392   5.721   8.076 -0.4309 -0.2877 -0.7635
  172SAPE  H11Y19550   3.224   5.761   8.046  0.5370  0.2296 -0.0265
  172SAPE  C31219551   3.319   5.860   8.222  0.3794  0.4441 -0.0200
  172SAPE  H12X19552   3.281   5.793   8.302 -3.4846 -0.5138 -2.5013
  172SAPE  H12Y19553   3.257   5.952   8.219 -0.1054  0.1494  0.7162
  172SAPE  C31319554   3.459   5.908   8.253 -0.4543  0.1221 -0.5239
  172SAPE  H13X19555   3.477   5.996   8.187 -1.0481 -0.9690 -2.1666
  172SAPE  H13Y19556   3.542   5.837   8.231  0.8990  2.1164 -2.0893
  172SAPE  C31419557   3.484   5.938   8.400  0.1203 -0.3176  1.0786
  172SAPE  H14X19558   3.583   5.989   8.399 -0.5923  1.1964 -3.2581
  172SAPE  H14Y19559   3.496   5.843   8.457 -0.6060 -0.1573  1.5111
  172SAPE  C31519560   3.389   6.028   8.471 -0.4581 -0.5007  0.7273
  172SAPE  H15X19561   3.294   5.973   8.491 -0.6633  0.4650  2.5592
  172SAPE  H15Y19562   3.371   6.119   8.409 -1.8005  0.0650  1.9086
  172SAPE  C31619563   3.443   6.089   8.602 -0.7345  0.9842 -0.1082
  172SAPE  H16X19564   3.540   6.136   8.573  0.1845 -1.5433 -1.3489
  172SAPE  H16Y19565   3.461   6.001   8.668  1.8586  0.8190 -0.9492
  172SAPE  C31719566   3.356   6.186   8.671 -0.2617 -0.3094 -0.1784
  172SAPE  H17X19567   3.339   6.266   8.596  1.2174  0.3079  0.1365
  172SAPE  H17Y19568   3.418   6.221   8.757  1.0897 -0.6716 -0.9895
  172SAPE  C31819569   3.227   6.120   8.725 -0.1140  0.4232 -0.0706
  172SAPE  H18X19570   3.181   6.050   8.651  2.9226 -1.3029 -0.4125
  172SAPE  H18Y19571   3.161   6.201   8.762 -2.8525 -1.4397 -0.6948
  172SAPE  H18Z19572   3.254   6.055   8.811  0.7215 -0.5700 -1.0614
  173SOPE     N19573   4.231   3.474  10.888  0.1741  0.2394  0.2392
  173SOPE   HN119574   4.175   3.542  10.943  2.1537  2.2363 -0.1405
  173SOPE   HN219575   4.164   3.397  10.868 -2.3655  2.9825 -2.3561
  173SOPE   HN319576   4.317   3.440  10.936  2.3393  1.5559 -2.5215
  173SOPE   C1219577   4.267   3.535  10.747 -0.1569 -0.4889  0.4080
  173SOPE  H12A19578   4.191   3.501  10.674 -0.0126  1.3589 -0.6327
  173SOPE  H12B19579   4.367   3.492  10.727  0.2191 -0.8674  2.9509
  173SOPE   C1119580   4.284   3.692  10.761 -0.4910 -0.8048 -0.4598
  173SOPE  H11A19581   4.294   3.727  10.656  2.8204  2.0561  0.7330
  173SOPE  H11B19582   4.376   3.713  10.820 -0.7686 -2.9459  0.8153
  173SOPE     P19583   4.174   3.902  10.872 -0.2359  0.1951 -0.6094
  173SOPE   O1319584   4.254   3.923  10.991  0.1224  0.1104  0.2167
  173SOPE   O1419585   4.042   3.956  10.886  0.3113 -0.1269 -0.2629
  173SOPE   O1219586   4.171   3.754  10.825 -0.5376 -0.3125 -0.1832
  173SOPE   O1119587   4.243   3.984  10.756 -0.1514 -0.2630  0.2486
  173SOPE    C119588   4.192   3.984  10.617  0.5621 -0.4174  0.8369
  173SOPE    HA19589   4.087   3.949  10.609  1.1129 -2.5151  2.2238
  173SOPE    HB19590   4.258   3.925  10.550 -1.2443 -1.5416  0.0146
  173SOPE    C219591   4.183   4.132  10.563 -0.3285 -0.6734  0.3801
  173SOPE    HS19592   4.145   4.195  10.646  1.0049 -3.3062  3.0910
  173SOPE   O2119593   4.084   4.142  10.452  0.0312 -0.4875  0.3134
  173SOPE   C2119594   4.027   4.258  10.434 -0.2655 -0.4792 -0.3940
  173SOPE   O2219595   4.039   4.356  10.510 -0.1249 -0.5019  0.5593
  173SOPE   C2219596   3.948   4.253  10.299  0.0420 -0.2380 -0.4716
  173SOPE   H2R19597   3.841   4.240  10.324 -0.1804  0.7605 -0.8771
  173SOPE   H2S19598   3.981   4.165  10.239 -0.9564 -0.8679 -0.1111
  173SOPE    C319599   4.325   4.175  10.528  0.2957 -0.0721 -0.1087
  173SOPE    HX19600   4.391   4.167  10.617  2.2591  1.2260 -1.4095
  173SOPE    HY19601   4.315   4.284  10.508 -1.4511 -0.4680 -1.4527
  173SOPE   O3119602   4.385   4.105  10.413  0.1906 -0.9567 -0.2907
  173SOPE   C3119603   4.379   4.166  10.291 -0.0020  0.2392  0.2678
  173SOPE   O3219604   4.329   4.274  10.274  0.0651 -0.4337  0.3805
  173SOPE   C3219605   4.455   4.090  10.189  0.4135 -0.0386  0.1695
  173SOPE   H2X19606   4.436   3.983  10.211  1.0256 -0.5875 -1.9277
  173SOPE   H2Y19607   4.564   4.106  10.201  0.4806 -0.4772  0.1515
  173SOPE   C2319608   3.981   4.377  10.212  0.0917  0.7342  0.0248
  173SOPE   H3R19609   4.091   4.394  10.216  0.3174 -0.9252  1.8063
  173SOPE   H3S19610   3.923   4.461  10.257  2.1221  1.3817  1.5215
  173SOPE   C2419611   3.950   4.362  10.062 -0.7927  0.3627  0.0953
  173SOPE   H4R19612   3.844   4.331  10.044 -1.3243  1.7008  0.8561
  173SOPE   H4S19613   3.959   4.463  10.018 -0.5219 -0.3393 -1.4980
  173SOPE   C2519614   4.038   4.257   9.985 -0.0755 -0.3000 -0.1981
  173SOPE   H5R19615   4.145   4.284   9.992 -0.1264  0.7139 -2.9206
  173SOPE   H5S19616   4.017   4.160  10.035 -1.0251 -0.3241 -0.6335
  173SOPE   C2619617   4.011   4.234   9.835 -0.3126 -0.6586 -0.4052
  173SOPE   H6R19618   4.079   4.158   9.792 -1.3808 -1.7447 -0.1984
  173SOPE   H6S19619   3.911   4.187   9.827 -0.9597  0.6843 -0.4286
  173SOPE   C2719620   4.022   4.358   9.749 -0.2259 -0.2049 -0.0451
  173SOPE   H7R19621   3.940   4.359   9.674  1.5896 -2.5573 -2.1323
  173SOPE   H7S19622   4.008   4.449   9.811 -0.3546  1.8746 -3.0169
  173SOPE   C2819623   4.157   4.368   9.671  0.3020 -0.4783 -0.2325
  173SOPE   H8R19624   4.250   4.368   9.732 -0.6111  2.3330  1.2348
  173SOPE   H8S19625   4.162   4.267   9.626 -1.3075 -0.7038  0.0520
  173SOPE   C2919626   4.176   4.467   9.555  0.4146  0.1512 -1.0345
  173SOPE   H9119627   4.146   4.570   9.580  1.9136  0.2635  0.3679
  173SOPE  C21019628   4.217   4.438   9.431 -0.2377  0.2935  0.4508
  173SOPE  H10119629   4.233   4.514   9.352 -0.6587  1.8043  1.7856
  173SOPE  C21119630   4.247   4.298   9.380  0.1351  0.5240 -0.2517
  173SOPE  H11R19631   4.154   4.239   9.395 -0.4214  0.4022 -3.8536
  173SOPE  H11S19632   4.316   4.246   9.450  0.5016  0.0470 -0.9638
  173SOPE  C21219633   4.300   4.292   9.238  0.2643  0.6112  0.2468
  173SOPE  H12R19634   4.216   4.307   9.167  0.2065  2.4180  0.6878
  173SOPE  H12S19635   4.332   4.186   9.226  2.8264  1.3058  0.5928
  173SOPE  C21319636   4.426   4.380   9.219 -0.0926  0.0340 -1.2748
  173SOPE  H13R19637   4.500   4.359   9.299 -1.6956 -1.5323 -0.1842
  173SOPE  H13S19638   4.397   4.488   9.218 -1.1536 -0.2425 -0.4127
  173SOPE  C21419639   4.488   4.355   9.077  0.3927  0.4189  0.2554
  173SOPE  H14R19640   4.512   4.247   9.074  1.0297  0.4824  2.1221
  173SOPE  H14S19641   4.588   4.401   9.090  0.6556  0.2789 -1.2475
  173SOPE  C21519642   4.410   4.395   8.954 -0.1975  0.1739 -0.5948
  173SOPE  H15R19643   4.368   4.498   8.961  1.1618  0.6427  0.9003
  173SOPE  H15S19644   4.318   4.333   8.960 -1.2918  1.6066 -1.9995
  173SOPE  C21619645   4.471   4.353   8.814 -0.1431  0.2136 -0.4454
  173SOPE  H16R19646   4.475   4.242   8.813 -1.1044  0.1397 -4.4693
  173SOPE  H16S19647   4.576   4.389   8.811 -0.4112  1.0453  0.1137
  173SOPE  C21719648   4.393   4.403   8.689  0.4810 -0.1084 -0.2220
  173SOPE  H17R19649   4.291   4.364   8.709  0.7616 -0.3106  0.8668
  173SOPE  H17S19650   4.441   4.358   8.599  0.1311 -1.1358  0.0975
  173SOPE  C21819651   4.400   4.557   8.680  0.1863  0.7916  0.2275
  173SOPE  H18R19652   4.335   4.592   8.763  1.9124 -0.5307  2.2085
  173SOPE  H18S19653   4.338   4.585   8.592  0.2667 -1.9580 -0.7519
  173SOPE  H18T19654   4.506   4.590   8.684  0.2239  0.5276  1.5950
  173SOPE   C3319655   4.417   4.136  10.045  0.0227 -0.1407 -0.9499
  173SOPE   H3X19656   4.444   4.239  10.014 -2.0055  0.6668 -0.0897
  173SOPE   H3Y19657   4.308   4.134  10.024 -0.3669 -1.7585  1.1162
  173SOPE   C3419658   4.470   4.038   9.933  0.0051 -0.5800  0.1053
  173SOPE   H4X19659   4.442   3.936   9.968 -0.1900 -0.4010  0.4676
  173SOPE   H4Y19660   4.581   4.033   9.933  0.0367 -0.0164 -0.4638
  173SOPE   C3519661   4.421   4.058   9.789 -0.6808  0.9511 -0.1874
  173SOPE   H5X19662   4.422   4.166   9.762  0.3973  0.6599 -1.3829
  173SOPE   H5Y19663   4.315   4.026   9.791 -0.4159 -0.0851 -1.5064
  173SOPE   C3619664   4.488   3.972   9.675  0.0138 -0.2869 -0.3043
  173SOPE   H6X19665   4.487   3.869   9.715 -0.9963  0.3030  1.2637
  173SOPE   H6Y19666   4.594   3.998   9.653 -0.4509  0.1047 -2.1164
  173SOPE   C3719667   4.399   3.981   9.551  0.5611 -0.0418  0.1927
  173SOPE   H7X19668   4.447   4.065   9.497  0.5385  0.3531  0.7867
  173SOPE   H7Y19669   4.295   4.012   9.573  0.4649  1.4838 -2.2255
  173SOPE   C3819670   4.410   3.857   9.456  0.2696  0.5210  0.5244
  173SOPE   H8X19671   4.366   3.765   9.499 -0.5819  1.0749  0.8774
  173SOPE   H8Y19672   4.519   3.838   9.445 -0.1850 -1.9279  0.0677
  173SOPE   C3919673   4.353   3.889   9.319  0.6443 -0.0749  0.4510
  173SOPE   H9X19674   4.403   3.975   9.270 -0.6716  0.6269  0.2918
  173SOPE   H9Y19675   4.244   3.903   9.336  0.0813 -1.6432 -1.6350
  173SOPE  C31019676   4.332   3.771   9.218  0.3341  0.6601  0.0208
  173SOPE  H10X19677   4.304   3.684   9.281  0.4696 -0.3583 -1.3182
  173SOPE  H10Y19678   4.434   3.757   9.175 -0.1362 -1.2294 -0.4911
  173SOPE  C31119679   4.227   3.780   9.104  0.0789  0.2082  0.0446
  173SOPE  H11X19680   4.129   3.750   9.145 -0.0468  0.9931  0.3263
  173SOPE  H11Y19681   4.261   3.710   9.025 -0.5634 -0.0981  0.0439
  173SOPE  C31219682   4.214   3.916   9.032 -0.4780  0.4898 -0.5074
  173SOPE  H12X19683   4.312   3.964   9.014 -0.2194 -0.5034 -1.7487
  173SOPE  H12Y19684   4.158   3.976   9.107  1.4686 -0.5297  1.8147
  173SOPE  C31319685   4.138   3.903   8.897  0.0920  1.0810  0.2696
  173SOPE  H13X19686   4.053   3.838   8.926 -0.0063 -0.7945 -3.8961
  173SOPE  H13Y19687   4.199   3.844   8.826 -0.9479 -1.5772  1.5196
  173SOPE  C31419688   4.095   4.037   8.840 -0.5130 -0.1388  0.1250
  173SOPE  H14X19689   4.100   4.116   8.918 -1.3148  0.4957 -0.4494
  173SOPE  H14Y19690   3.988   4.037   8.810 -0.9498  0.5263  1.6213
  173SOPE  C31519691   4.173   4.086   8.716 -0.2196  0.0334 -0.3752
  173SOPE  H15X19692   4.280   4.092   8.744 -0.3227  1.2007 -0.1791
  173SOPE  H15Y19693   4.149   4.188   8.679  0.2194  0.0653 -0.5827
  173SOPE  C31619694   4.157   3.995   8.585  0.4681  0.7544 -1.0870
  173SOPE  H16X19695   4.139   3.889   8.611 -2.0255  1.6267  1.0028
  173SOPE  H16Y19696   4.250   3.997   8.526  1.9710  1.6130  1.2198
  173SOPE  C31719697   4.031   4.027   8.499 -0.2586  0.3612 -0.3697
  173SOPE  H17X19698   4.059   4.122   8.448 -4.2798  1.4767 -0.6356
  173SOPE  H17Y19699   3.942   4.036   8.565  0.3722 -0.2394  0.5661
  173SOPE  C31819700   4.014   3.939   8.389  0.5083 -0.3357  0.2851
  173SOPE  H18X19701   4.001   3.839   8.434  0.6314  0.1077  1.3269
  173SOPE  H18Y19702   4.104   3.937   8.324  0.5830  0.2171  0.3627
  173SOPE  H18Z19703   3.918   3.960   8.336  0.0139  0.1388  1.3631
  174SOPE     N19704   3.698   3.690  10.854 -0.4033 -0.5626 -0.0555
  174SOPE   HN119705   3.679   3.765  10.923 -0.1465 -1.6130  1.1746
  174SOPE   HN219706   3.615   3.692  10.792  0.3734  1.5034 -1.0794
  174SOPE   HN319707   3.696   3.598  10.903  1.3565 -0.8145 -0.4057
  174SOPE   C1219708   3.837   3.696  10.792 -0.7194  1.1174  0.1697
  174SOPE  H12A19709   3.909   3.725  10.872 -1.5229  0.1478  1.2614
  174SOPE  H12B19710   3.839   3.780  10.719  1.5787  0.0174 -1.0960
  174SOPE   C1119711   3.861   3.563  10.716  0.2862  0.2577  0.1563
  174SOPE  H11A19712   3.969   3.557  10.691  0.0586 -0.9642 -0.5610
  174SOPE  H11B19713   3.806   3.575  10.620  1.9284  3.7158 -0.4318
  174SOPE     P19714   3.882   3.311  10.778  0.0760 -0.1964  0.0305
  174SOPE   O1319715   3.806   3.216  10.868 -0.4477  0.2193  0.4175
  174SOPE   O1419716   4.028   3.323  10.793  0.3948  0.2784  0.0528
  174SOPE   O1219717   3.814   3.446  10.787 -0.1391 -0.9195  0.7277
  174SOPE   O1119718   3.848   3.271  10.623 -0.0937  0.2292  0.3253
  174SOPE    C119719   3.944   3.189  10.553  0.0412 -0.4771  0.7665
  174SOPE    HA19720   3.923   3.083  10.576  1.4064 -0.3494  2.6670
  174SOPE    HB19721   4.046   3.197  10.597  0.7125  0.7585 -0.9398
  174SOPE    C219722   3.947   3.236  10.405 -0.2638  0.4494 -0.4133
  174SOPE    HS19723   3.845   3.252  10.366  1.3098  0.4347 -4.7324
  174SOPE   O2119724   4.008   3.134  10.318  0.0995  0.2107  0.2897
  174SOPE   C2119725   3.954   3.015  10.313 -0.3695 -0.3842 -0.8466
  174SOPE   O2219726   3.849   2.984  10.365  0.1938 -0.5974 -0.1165
  174SOPE   C2219727   4.052   2.913  10.250  0.6573  0.4279  0.1608
  174SOPE   H2R19728   4.008   2.813  10.269  0.5605 -0.1279 -2.6918
  174SOPE   H2S19729   4.144   2.921  10.313  0.8785  0.2417 -0.1347
  174SOPE    C319730   4.029   3.365  10.390  0.1272  0.4904  0.1055
  174SOPE    HX19731   4.128   3.357  10.440 -1.0060 -0.7098  2.2330
  174SOPE    HY19732   3.976   3.446  10.444  2.6913  1.0677  1.8838
  174SOPE   O3119733   4.042   3.410  10.254 -0.4388 -0.4572 -0.3301
  174SOPE   C3119734   4.157   3.406  10.195 -0.8303 -0.1748 -0.9327
  174SOPE   O3219735   4.263   3.362  10.233 -0.2302  0.0798  0.0996
  174SOPE   C3219736   4.139   3.467  10.050 -1.1519 -0.2654  0.1713
  174SOPE   H2X19737   4.219   3.544  10.037 -0.7629 -0.4667  1.3763
  174SOPE   H2Y19738   4.038   3.512  10.034 -1.2357 -0.9616 -1.3425
  174SOPE   C2319739   4.076   2.934  10.096 -0.3335  0.5157  0.2740
  174SOPE   H3R19740   4.163   2.869  10.075 -0.9451 -0.2626  0.1252
  174SOPE   H3S19741   4.108   3.039  10.076 -0.3588  0.9064  2.1242
  174SOPE   C2419742   3.955   2.894  10.012 -0.2009  0.6508  0.0154
  174SOPE   H4R19743   3.942   2.786  10.036  3.4930  0.1128 -0.1484
  174SOPE   H4S19744   3.870   2.947  10.060 -1.5439 -0.9397 -0.5520
  174SOPE   C2519745   3.976   2.922   9.859  0.0628  0.3784 -0.3050
  174SOPE   H5R19746   3.981   3.031   9.843  1.7806  0.1582 -1.3741
  174SOPE   H5S19747   4.076   2.876   9.841  0.1103 -0.6291  2.2796
  174SOPE   C2619748   3.877   2.867   9.759  0.0307  0.5351 -0.3025
  174SOPE   H6R19749   3.928   2.828   9.668  0.7685 -2.0127  1.1388
  174SOPE   H6S19750   3.837   2.773   9.803 -0.4912 -1.1094 -4.0752
  174SOPE   C2719751   3.776   2.972   9.718 -0.4868  0.4395 -0.2144
  174SOPE   H7R19752   3.682   2.969   9.776 -0.2915  0.3060  0.1025
  174SOPE   H7S19753   3.815   3.075   9.735 -0.8222  0.5447 -0.0825
  174SOPE   C2819754   3.734   2.964   9.566  0.2523  0.1643 -0.9671
  174SOPE   H8R19755   3.689   3.065   9.549 -0.2008  0.4075  1.4333
  174SOPE   H8S19756   3.824   2.952   9.501  1.0071 -1.1572  0.2957
  174SOPE   C2919757   3.628   2.857   9.544  0.0010  0.0642 -0.2642
  174SOPE   H9119758   3.653   2.761   9.591  0.8398  0.6420  0.4835
  174SOPE  C21019759   3.513   2.858   9.465 -0.2412  0.3970 -0.1061
  174SOPE  H10119760   3.440   2.777   9.479 -1.2801  1.0245 -1.6754
  174SOPE  C21119761   3.468   2.979   9.385 -0.2385  0.6950 -0.5015
  174SOPE  H11R19762   3.556   3.045   9.372  1.3149 -0.7918  2.0581
  174SOPE  H11S19763   3.390   3.039   9.438  0.8971  0.6908  1.2178
  174SOPE  C21219764   3.436   2.933   9.242  0.8644  0.3259 -0.1819
  174SOPE  H12R19765   3.511   2.865   9.198 -0.8244 -0.6741 -1.5869
  174SOPE  H12S19766   3.438   3.025   9.180  0.0381  0.6378  0.2385
  174SOPE  C21319767   3.299   2.873   9.221  0.0615  0.0879 -0.0406
  174SOPE  H13R19768   3.232   2.898   9.306 -0.0157 -0.5056  0.0777
  174SOPE  H13S19769   3.321   2.764   9.212 -0.1908  0.2145 -2.3492
  174SOPE  C21419770   3.234   2.899   9.088  0.3873  0.2051 -0.1298
  174SOPE  H14R19771   3.219   3.008   9.076  0.2551  0.2696  0.5825
  174SOPE  H14S19772   3.131   2.858   9.083 -0.2909  1.7110  1.0246
  174SOPE  C21519773   3.321   2.854   8.971  0.2942  0.4305 -0.3705
  174SOPE  H15R19774   3.355   2.749   8.988 -0.3667  0.5356  1.7252
  174SOPE  H15S19775   3.407   2.924   8.965 -0.8445  1.9330  0.7021
  174SOPE  C21619776   3.244   2.859   8.844  0.6838 -0.4098  0.2986
  174SOPE  H16R19777   3.208   2.964   8.839 -1.2625 -1.1322 -2.3047
  174SOPE  H16S19778   3.147   2.805   8.846  1.2498 -1.5411 -1.5553
  174SOPE  C21719779   3.312   2.816   8.713 -0.0040 -0.6132  0.5203
  174SOPE  H17R19780   3.408   2.871   8.706  0.4029 -1.4878 -0.9579
  174SOPE  H17S19781   3.252   2.838   8.623 -0.5262  3.1210  1.7041
  174SOPE  C21819782   3.338   2.661   8.710 -0.2262 -0.6600 -0.5651
  174SOPE  H18R19783   3.407   2.631   8.792 -0.3329 -1.7273 -0.8546
  174SOPE  H18S19784   3.389   2.625   8.618 -2.1744 -2.9816 -0.8214
  174SOPE  H18T19785   3.239   2.611   8.722 -0.6177  0.4096  0.8215
  174SOPE   C3319786   4.137   3.351   9.948  0.0552  0.4094 -0.5483
  174SOPE   H3X19787   4.058   3.276   9.970 -0.3339  0.5830 -1.3484
  174SOPE   H3Y19788   4.241   3.313   9.944  0.6157  1.2828  3.4503
  174SOPE   C3419789   4.090   3.398   9.805  0.3456 -0.3948 -0.5748
  174SOPE   H4X19790   4.170   3.468   9.772 -1.2420  1.7053 -0.1203
  174SOPE   H4Y19791   4.010   3.476   9.807 -0.5774 -1.3620  1.6321
  174SOPE   C3519792   4.061   3.290   9.702 -0.2141 -0.3838  0.0353
  174SOPE   H5X19793   3.978   3.224   9.734 -0.8254 -0.5603 -1.8639
  174SOPE   H5Y19794   4.153   3.228   9.699 -0.0281 -0.0657 -1.0219
  174SOPE   C3619795   4.038   3.355   9.560 -0.2329 -0.6321  0.3288
  174SOPE   H6X19796   4.135   3.391   9.520 -1.6502  1.9170 -0.9720
  174SOPE   H6Y19797   3.978   3.449   9.566  0.2962 -0.2158 -0.8106
  174SOPE   C3719798   3.985   3.257   9.461  0.4689  0.4525  0.2962
  174SOPE   H7X19799   3.876   3.241   9.476  0.5895 -0.5855  0.1102
  174SOPE   H7Y19800   4.034   3.158   9.477 -0.0842  0.1227 -0.0094
  174SOPE   C3819801   4.010   3.312   9.317  0.5588  0.0969  0.1222
  174SOPE   H8X19802   4.121   3.319   9.312  0.5323  0.3770 -0.0965
  174SOPE   H8Y19803   3.975   3.417   9.302  2.3025  0.5336 -1.0789
  174SOPE   C3919804   3.950   3.223   9.209  0.8443  0.0722  0.4225
  174SOPE   H9X19805   3.985   3.118   9.223 -1.1150 -0.4759  1.4339
  174SOPE   H9Y19806   3.983   3.253   9.107  0.5441  2.0101  0.8761
  174SOPE  C31019807   3.800   3.216   9.210 -0.0255  0.9414  0.1289
  174SOPE  H10X19808   3.761   3.318   9.231  0.9376  1.0323  1.5338
  174SOPE  H10Y19809   3.768   3.157   9.298  0.7417  0.9556  0.4151
  174SOPE  C31119810   3.736   3.144   9.085 -0.1584 -0.2029  0.3563
  174SOPE  H11X19811   3.631   3.181   9.093  0.9567  3.0713  0.8482
  174SOPE  H11Y19812   3.731   3.034   9.099  1.1980 -0.2732  0.3385
  174SOPE  C31219813   3.795   3.184   8.950  0.0467 -0.4281  0.4502
  174SOPE  H12X19814   3.894   3.135   8.938  0.3099  0.4128 -0.8738
  174SOPE  H12Y19815   3.817   3.293   8.952  1.3826 -0.7057  4.4858
  174SOPE  C31319816   3.693   3.145   8.835 -0.0967  0.4205 -0.6890
  174SOPE  H13X19817   3.595   3.194   8.856 -0.6285 -0.5807 -0.7931
  174SOPE  H13Y19818   3.676   3.036   8.847 -2.2821  0.6378 -1.6341
  174SOPE  C31419819   3.727   3.177   8.690  0.0016  0.7704  0.1265
  174SOPE  H14X19820   3.760   3.282   8.673  0.1166  1.1566  2.4996
  174SOPE  H14Y19821   3.632   3.151   8.639 -0.4197 -0.6594  1.6037
  174SOPE  C31519822   3.831   3.080   8.628 -0.6703  0.4000 -0.6964
  174SOPE  H15X19823   3.915   3.059   8.698 -1.7317 -3.4140 -0.4671
  174SOPE  H15Y19824   3.870   3.122   8.533 -0.2299 -0.4346 -0.8872
  174SOPE  C31619825   3.781   2.947   8.577 -0.3162 -0.2011 -0.7610
  174SOPE  H16X19826   3.683   2.972   8.531 -0.8470 -0.6439  0.1303
  174SOPE  H16Y19827   3.771   2.874   8.660  0.7231 -1.6384 -1.8756
  174SOPE  C31719828   3.880   2.878   8.485 -0.4187  0.4309  0.4642
  174SOPE  H17X19829   3.892   2.939   8.393 -2.2373 -0.5028 -0.4067
  174SOPE  H17Y19830   3.829   2.784   8.456  1.4745 -1.4562  3.0350
  174SOPE  C31819831   4.026   2.840   8.540  0.2651  0.7150  0.6328
  174SOPE  H18X19832   4.091   2.792   8.464  1.0964  3.0300 -0.1453
  174SOPE  H18Y19833   4.004   2.775   8.628  0.5229 -2.3987 -1.5246
  174SOPE  H18Z19834   4.097   2.916   8.577  3.5752 -1.8802 -0.1278
  175SOPE     N19835   6.429   5.360  10.579 -0.7810  0.0969  0.6652
  175SOPE   HN119836   6.511   5.303  10.549  2.4008  3.9334  1.6773
  175SOPE   HN219837   6.365   5.348  10.498 -0.4024 -1.7653  0.6193
  175SOPE   HN319838   6.457   5.460  10.576 -0.9265  0.1102 -1.0713
  175SOPE   C1219839   6.382   5.327  10.717 -0.5365  0.9216 -0.4479
  175SOPE  H12A19840   6.441   5.381  10.794 -0.2323  0.3545 -0.2761
  175SOPE  H12B19841   6.413   5.220  10.721  1.4927  1.4424 -1.6832
  175SOPE   C1119842   6.235   5.348  10.738  0.0903  0.7411 -0.5137
  175SOPE  H11A19843   6.217   5.315  10.843  1.4551  0.1872 -0.4323
  175SOPE  H11B19844   6.196   5.272  10.667  1.2765  2.4599 -3.1011
  175SOPE     P19845   6.104   5.519  10.594 -0.0788 -0.3326  0.1807
  175SOPE   O1319846   6.051   5.659  10.608  0.1462  0.0264  0.7614
  175SOPE   O1419847   6.000   5.415  10.584 -0.5710 -0.0105 -0.1785
  175SOPE   O1219848   6.193   5.483  10.720 -0.6046  0.3228  0.2542
  175SOPE   O1119849   6.200   5.503  10.464 -0.0369 -0.3566 -0.5283
  175SOPE    C119850   6.231   5.603  10.373  0.2469  0.3545  0.0863
  175SOPE    HA19851   6.338   5.594  10.343  0.4641  0.7369  0.7254
  175SOPE    HB19852   6.233   5.706  10.414  1.3021  0.9432 -1.3965
  175SOPE    C219853   6.139   5.586  10.253  0.1880 -0.0130 -0.6832
  175SOPE    HS19854   6.048   5.643  10.279  0.0238 -1.3166  1.7604
  175SOPE   O2119855   6.113   5.447  10.229  0.4984 -0.0191  0.0718
  175SOPE   C2119856   6.006   5.415  10.153 -0.3642  0.9397  0.0097
  175SOPE   O2219857   5.925   5.497  10.104 -0.1577 -0.4515  0.4072
  175SOPE   C2219858   6.018   5.263  10.126  0.0879  0.1267  0.1852
  175SOPE   H2R19859   5.997   5.217  10.225 -0.9114 -0.8118 -0.4448
  175SOPE   H2S19860   6.124   5.246  10.101  0.4227  0.3638  1.4263
  175SOPE    C319861   6.213   5.651  10.129  0.4360  0.6202 -0.2337
  175SOPE    HX19862   6.148   5.645  10.039  1.2889 -3.1218 -0.6596
  175SOPE    HY19863   6.295   5.579  10.106 -1.1692 -0.5744 -2.3964
  175SOPE   O3119864   6.273   5.783  10.149 -0.4049  0.4545  0.0141
  175SOPE   C3119865   6.185   5.876  10.121  0.2037  0.1453 -0.1581
  175SOPE   O3219866   6.068   5.865  10.091 -0.1962 -0.4668 -0.3717
  175SOPE   C3219867   6.262   6.017  10.117  0.2857  0.5590 -0.3637
  175SOPE   H2X19868   6.292   6.032  10.223  3.7401 -2.2917 -0.8275
  175SOPE   H2Y19869   6.184   6.090  10.085  1.0743  1.9705  0.8828
  175SOPE   C2319870   5.922   5.209  10.020  0.5632  0.1703  0.2441
  175SOPE   H3R19871   5.817   5.224  10.053  0.2920 -1.5511  0.2082
  175SOPE   H3S19872   5.948   5.101  10.009  1.8242  0.2220  2.4984
  175SOPE   C2419873   5.936   5.275   9.884  0.6399 -0.0259  0.7083
  175SOPE   H4R19874   5.849   5.261   9.817  2.6264  0.0681 -2.0124
  175SOPE   H4S19875   5.951   5.384   9.901  0.0724  0.1011  0.4098
  175SOPE   C2519876   6.063   5.222   9.810 -0.4091 -0.2164 -0.6119
  175SOPE   H5R19877   6.137   5.213   9.892 -1.2715  0.3218  0.2367
  175SOPE   H5S19878   6.043   5.116   9.782  0.4910 -0.8167  0.9776
  175SOPE   C2619879   6.127   5.323   9.704 -0.1478  0.5690  0.3285
  175SOPE   H6R19880   6.147   5.420   9.755 -1.3385  0.7990  0.3668
  175SOPE   H6S19881   6.223   5.283   9.664  0.2166 -1.3596  2.9925
  175SOPE   C2719882   6.047   5.346   9.582  0.0577  0.2832 -0.1926
  175SOPE   H7R19883   5.957   5.399   9.621  0.1560  1.8723 -2.0323
  175SOPE   H7S19884   6.099   5.414   9.512  1.4749 -1.2196 -0.6134
  175SOPE   C2819885   6.003   5.209   9.516  0.4306  0.4533  0.3417
  175SOPE   H8R19886   5.937   5.144   9.578 -0.8746  1.8791  0.4722
  175SOPE   H8S19887   5.939   5.240   9.430 -1.8875 -0.5893  1.6328
  175SOPE   C2919888   6.127   5.129   9.477  0.1893  0.1268  0.0705
  175SOPE   H9119889   6.194   5.105   9.560 -0.3984 -2.1210 -0.0718
  175SOPE  C21019890   6.159   5.093   9.351 -0.3202 -0.0800  0.4202
  175SOPE  H10119891   6.249   5.031   9.341 -0.9744 -1.1479  1.0672
  175SOPE  C21119892   6.084   5.108   9.224  0.1573  0.3560 -0.4407
  175SOPE  H11R19893   6.061   5.217   9.217  0.7860  0.5722  0.7505
  175SOPE  H11S19894   5.980   5.069   9.222  0.9422 -1.8936  0.7766
  175SOPE  C21219895   6.155   5.066   9.091 -0.4988  0.2280 -0.0217
  175SOPE  H12R19896   6.256   5.112   9.091  0.0150 -0.8763  0.8854
  175SOPE  H12S19897   6.091   5.113   9.014  0.4220  0.0311 -0.9240
  175SOPE  C21319898   6.161   4.917   9.047  0.3123 -0.1920 -1.2333
  175SOPE  H13R19899   6.065   4.866   9.069 -0.4553  1.7857  0.1822
  175SOPE  H13S19900   6.230   4.868   9.119 -1.2394 -0.0394  0.3841
  175SOPE  C21419901   6.215   4.881   8.908 -0.6876 -0.5425  0.6391
  175SOPE  H14R19902   6.217   4.771   8.892 -0.0649 -0.2539 -1.3286
  175SOPE  H14S19903   6.318   4.917   8.891  0.0870 -2.8358  0.3216
  175SOPE  C21519904   6.133   4.937   8.789 -0.4340 -0.2528 -0.7433
  175SOPE  H15R19905   6.118   5.047   8.794  1.3846 -0.0234 -0.2031
  175SOPE  H15S19906   6.029   4.896   8.786 -2.1827  3.5177  2.8199
  175SOPE  C21619907   6.195   4.898   8.652  0.2641 -0.5439  0.2178
  175SOPE  H16R19908   6.136   4.935   8.565  0.4444  1.1287  0.7826
  175SOPE  H16S19909   6.203   4.787   8.642 -0.3283 -0.5889  0.2392
  175SOPE  C21719910   6.339   4.944   8.629  0.2119  1.0414 -0.2049
  175SOPE  H17R19911   6.406   4.887   8.697 -1.7985 -1.3997 -0.1961
  175SOPE  H17S19912   6.340   5.054   8.645 -3.1833  1.1594 -0.3513
  175SOPE  C21819913   6.392   4.909   8.488 -0.6288 -0.5468 -0.2266
  175SOPE  H18R19914   6.349   4.966   8.404  1.3862 -0.9835 -1.5789
  175SOPE  H18S19915   6.395   4.800   8.464 -1.0967 -0.8736  1.1267
  175SOPE  H18T19916   6.497   4.944   8.488 -1.5217  2.2682 -0.6784
  175SOPE   C3319917   6.377   6.036  10.013  0.0507 -0.4547 -1.7863
  175SOPE   H3X19918   6.426   5.937  10.020  1.5155  0.4089  0.9085
  175SOPE   H3Y19919   6.441   6.111  10.064  1.1675 -1.6292 -1.4388
  175SOPE   C3419920   6.344   6.075   9.874  0.3061  0.2826 -0.0656
  175SOPE   H4X19921   6.427   6.040   9.808 -1.1473 -0.3232 -1.6257
  175SOPE   H4Y19922   6.316   6.181   9.856 -0.1348  0.1911  0.0759
  175SOPE   C3519923   6.224   6.000   9.817 -0.4736 -0.2218  0.5970
  175SOPE   H5X19924   6.134   6.038   9.870 -1.1263  1.6100 -1.7308
  175SOPE   H5Y19925   6.222   5.891   9.839  0.8709 -0.1435  1.1137
  175SOPE   C3619926   6.210   6.032   9.664 -0.0362 -0.6113  0.0502
  175SOPE   H6X19927   6.309   6.015   9.615 -0.5190  0.4473 -1.3343
  175SOPE   H6Y19928   6.181   6.139   9.656  0.3391 -0.4045  1.3765
  175SOPE   C3719929   6.103   5.942   9.601  0.0348  0.0842 -0.0672
  175SOPE   H7X19930   6.009   5.974   9.650  0.7541  0.8122  0.8450
  175SOPE   H7Y19931   6.119   5.836   9.631  1.4193 -0.0819 -1.3312
  175SOPE   C3819932   6.084   5.959   9.450 -0.1441 -0.2385 -0.1392
  175SOPE   H8X19933   6.186   5.951   9.407 -0.6831 -0.1088 -1.4596
  175SOPE   H8Y19934   6.038   6.059   9.430  0.3577 -0.2440 -1.4024
  175SOPE   C3919935   6.015   5.848   9.377  0.1120  0.1501 -0.2484
  175SOPE   H9X19936   6.014   5.876   9.269  0.7802  1.8980  0.1822
  175SOPE   H9Y19937   5.905   5.852   9.396  0.3969  0.9090  1.2673
  175SOPE  C31019938   6.074   5.706   9.398  0.8291  0.7717 -0.0306
  175SOPE  H10X19939   6.049   5.676   9.502  1.3084  0.6402  0.0504
  175SOPE  H10Y19940   6.182   5.719   9.372  1.4586 -1.4445  1.2649
  175SOPE  C31119941   6.019   5.597   9.301 -0.2879 -0.1475 -0.0575
  175SOPE  H11X19942   6.092   5.514   9.289 -2.4333 -2.5702  2.9166
  175SOPE  H11Y19943   6.015   5.649   9.203  1.3457  0.6588  0.2846
  175SOPE  C31219944   5.876   5.544   9.332 -0.5321  0.6369 -0.3599
  175SOPE  H12X19945   5.819   5.621   9.389 -0.4511  1.4577 -1.3600
  175SOPE  H12Y19946   5.872   5.457   9.401 -2.5007  1.3616  0.4777
  175SOPE  C31319947   5.787   5.526   9.203 -0.5444  0.6483  0.3068
  175SOPE  H13X19948   5.788   5.619   9.142  1.9541  0.7046  0.3810
  175SOPE  H13Y19949   5.683   5.495   9.229 -0.3078  0.1371  0.6627
  175SOPE  C31419950   5.832   5.415   9.114 -0.2612  0.3522 -0.3025
  175SOPE  H14X19951   5.820   5.316   9.164  1.9340 -0.4342 -1.2855
  175SOPE  H14Y19952   5.936   5.423   9.076 -0.2977  1.8114 -0.1253
  175SOPE  C31519953   5.748   5.396   8.987 -0.6747 -0.4830 -0.4476
  175SOPE  H15X19954   5.777   5.476   8.915 -0.8529 -1.4250 -1.5767
  175SOPE  H15Y19955   5.639   5.417   8.991 -0.6814  0.1233 -3.0918
  175SOPE  C31619956   5.783   5.270   8.908  0.2897 -0.4842 -0.3060
  175SOPE  H16X19957   5.770   5.181   8.974  1.3448 -1.1220 -0.9513
  175SOPE  H16Y19958   5.889   5.286   8.878  0.7223  2.6189  2.5402
  175SOPE  C31719959   5.698   5.257   8.781 -0.2146 -1.1547  0.0859
  175SOPE  H17X19960   5.669   5.363   8.762  0.0470 -0.9989  0.5282
  175SOPE  H17Y19961   5.596   5.215   8.796 -0.2248 -1.2840 -0.3407
  175SOPE  C31819962   5.777   5.214   8.653  0.1679  0.4186 -0.3509
  175SOPE  H18X19963   5.854   5.289   8.628 -1.5046  1.2976 -3.1248
  175SOPE  H18Y19964   5.719   5.226   8.559  0.7065 -1.7457 -0.9752
  175SOPE  H18Z19965   5.819   5.112   8.661  3.1191  1.2140 -4.4294
  176SOPE     N19966   5.784   5.357  10.731  0.8304  0.2233 -0.0857
  176SOPE   HN119967   5.844   5.368  10.815 -1.8140  0.0781  1.8570
  176SOPE   HN219968   5.770   5.254  10.721  1.2268  0.2372 -0.9012
  176SOPE   HN319969   5.837   5.393  10.649  0.5517 -1.2855 -0.9617
  176SOPE   C1219970   5.651   5.431  10.757  0.3538  0.4055  0.0417
  176SOPE  H12A19971   5.673   5.538  10.735 -1.7114  0.2939 -2.9303
  176SOPE  H12B19972   5.615   5.416  10.861  2.8815 -0.5475  0.8129
  176SOPE   C1119973   5.544   5.376  10.656 -0.9626  0.2110  0.1580
  176SOPE  H11A19974   5.583   5.384  10.553 -1.3953 -1.4802 -0.1632
  176SOPE  H11B19975   5.449   5.435  10.660 -1.6029 -0.4628 -3.5130
  176SOPE     P19976   5.423   5.175  10.787  0.1304 -0.4204 -0.1260
  176SOPE   O1319977   5.423   5.251  10.914  0.1195  0.3040 -0.2293
  176SOPE   O1419978   5.431   5.029  10.789  0.3977 -0.2851  0.1424
  176SOPE   O1219979   5.520   5.239  10.681  0.3092  0.0781  0.1815
  176SOPE   O1119980   5.289   5.204  10.717  0.1117  0.1855  0.2089
  176SOPE    C119981   5.270   5.206  10.574 -0.1039  0.7776  0.4749
  176SOPE    HA19982   5.367   5.211  10.519 -0.7607  3.0925 -0.5137
  176SOPE    HB19983   5.211   5.297  10.553 -1.0335 -0.1483 -0.9902
  176SOPE    C219984   5.192   5.075  10.529  0.2014 -0.0004  0.0223
  176SOPE    HS19985   5.235   4.986  10.580  1.7990  0.4491 -0.5215
  176SOPE   O2119986   5.197   5.063  10.382  0.3729  0.0313  0.2722
  176SOPE   C2119987   5.306   5.009  10.338 -0.0681 -0.1326  0.0414
  176SOPE   O2219988   5.406   4.983  10.404 -0.5381 -0.1172 -0.1386
  176SOPE   C2219989   5.299   5.004  10.184 -0.4630  0.2244 -0.2837
  176SOPE   H2R19990   5.246   5.091  10.141  2.1083  1.6136 -0.7658
  176SOPE   H2S19991   5.230   4.921  10.159  1.8529 -2.4180  1.6434
  176SOPE    C319992   5.048   5.079  10.581 -0.2860 -0.3195  0.2324
  176SOPE    HX19993   5.001   5.148  10.509 -1.6291 -2.3287 -0.8633
  176SOPE    HY19994   5.055   5.106  10.689  1.4805  0.9065 -0.1614
  176SOPE   O3119995   4.988   4.951  10.558 -0.2322 -0.2091  0.1430
  176SOPE   C3119996   4.908   4.904  10.656 -0.4965 -0.3273  0.1564
  176SOPE   O3219997   4.868   4.964  10.754 -0.5069  0.3237 -0.8451
  176SOPE   C3219998   4.877   4.759  10.628  0.4228  0.4248 -0.0112
  176SOPE   H2X19999   4.947   4.700  10.691  2.0038  0.3860 -1.7538
  176SOPE   H2Y20000   4.901   4.738  10.521  0.8550  1.3296 -0.0961
  176SOPE   C2320001   5.431   4.979  10.111 -0.2368  0.1699 -0.6101
  176SOPE   H3R20002   5.445   4.876  10.070  1.1315 -0.4225  1.2778
  176SOPE   H3S20003   5.524   5.016  10.160 -1.9357  1.6764  1.5222
  176SOPE   C2420004   5.418   5.062   9.978 -0.7699  0.2670  0.0060
  176SOPE   H4R20005   5.337   5.032   9.907  1.6013 -4.0922 -0.9984
  176SOPE   H4S20006   5.392   5.160  10.023 -0.1237 -0.3760  1.8054
  176SOPE   C2520007   5.556   5.072   9.902  0.2863 -1.0309 -0.2068
  176SOPE   H5R20008   5.625   5.110   9.980  1.6549 -1.2723 -1.2750
  176SOPE   H5S20009   5.582   4.970   9.867 -0.6509 -1.1769 -0.4873
  176SOPE   C2620010   5.564   5.167   9.782 -0.0560  0.0967  0.0237
  176SOPE   H6R20011   5.544   5.274   9.807 -1.7918 -0.5997  1.7390
  176SOPE   H6S20012   5.670   5.168   9.747  0.2490 -3.1428  0.7080
  176SOPE   C2720013   5.450   5.133   9.679 -0.3193 -0.4121 -0.7514
  176SOPE   H7R20014   5.457   5.031   9.636  0.3068 -0.7578  0.1646
  176SOPE   H7S20015   5.348   5.134   9.723  1.5023 -2.2720  3.7121
  176SOPE   C2820016   5.444   5.233   9.567 -0.3604 -0.0851 -0.7166
  176SOPE   H8R20017   5.349   5.209   9.516 -1.3195  0.8008  0.6469
  176SOPE   H8S20018   5.433   5.334   9.612  0.3996 -0.9494  1.5061
  176SOPE   C2920019   5.559   5.232   9.465 -0.2251  0.2324 -0.8412
  176SOPE   H9120020   5.620   5.323   9.464 -2.0837  1.5208  0.1552
  176SOPE  C21020021   5.591   5.135   9.380  0.1912  1.3642  0.6914
  176SOPE  H10120022   5.677   5.143   9.311 -0.7120  1.7260 -0.3880
  176SOPE  C21120023   5.513   5.004   9.374  0.1994 -0.4774 -0.0073
  176SOPE  H11R20024   5.425   5.000   9.441 -0.1556 -1.3143 -0.5076
  176SOPE  H11S20025   5.577   4.917   9.398  2.1582  0.8761 -0.2270
  176SOPE  C21220026   5.460   4.976   9.226 -0.6857  0.0376  0.3225
  176SOPE  H12R20027   5.427   5.068   9.173  1.0858 -0.6111 -1.9858
  176SOPE  H12S20028   5.373   4.907   9.225  0.0176 -0.8468 -0.4496
  176SOPE  C21320029   5.568   4.893   9.144  0.0077 -0.3073  0.3158
  176SOPE  H13R20030   5.575   4.800   9.204  0.4593 -0.6665 -0.2859
  176SOPE  H13S20031   5.670   4.936   9.152 -1.5394  3.6419  0.2207
  176SOPE  C21420032   5.522   4.869   9.000  0.0526  0.3911  0.7498
  176SOPE  H14R20033   5.489   4.966   8.958  0.2027 -0.8585 -2.4656
  176SOPE  H14S20034   5.437   4.797   9.005  0.0739  0.3088  0.0461
  176SOPE  C21520035   5.636   4.819   8.906  0.7353  0.2875  0.7403
  176SOPE  H15R20036   5.668   4.713   8.917  2.1302  0.8466  2.1565
  176SOPE  H15S20037   5.726   4.879   8.929  0.6755  0.8002 -0.3321
  176SOPE  C21620038   5.602   4.853   8.753 -0.3072  0.0573 -0.3438
  176SOPE  H16R20039   5.688   4.837   8.684 -0.0943 -1.8441  0.3292
  176SOPE  H16S20040   5.563   4.957   8.766 -0.5948 -0.2317  1.1987
  176SOPE  C21720041   5.487   4.759   8.703 -0.2479  0.1244  0.5389
  176SOPE  H17R20042   5.402   4.758   8.775 -1.1431  0.6726 -0.4953
  176SOPE  H17S20043   5.515   4.653   8.689 -0.1888  0.2898 -0.6431
  176SOPE  C21820044   5.437   4.802   8.568 -0.0736  0.1138  0.8560
  176SOPE  H18R20045   5.515   4.805   8.488 -1.6041  1.0701 -0.6192
  176SOPE  H18S20046   5.392   4.903   8.570  1.2947  0.7690 -0.5527
  176SOPE  H18T20047   5.363   4.729   8.530 -0.3325  0.0913  1.3994
  176SOPE   C3320048   4.734   4.708  10.660  0.1140  0.1968 -0.7776
  176SOPE   H3X20049   4.659   4.758  10.594 -0.0632  0.2926 -0.5053
  176SOPE   H3Y20050   4.722   4.747  10.763  2.0802 -1.6844  0.1998
  176SOPE   C3420051   4.728   4.553  10.650 -0.0639  0.2691  0.6233
  176SOPE   H4X20052   4.627   4.520  10.685  0.9416 -1.0201  2.3511
  176SOPE   H4Y20053   4.807   4.508  10.713  1.9167  0.1413 -1.8617
  176SOPE   C3520054   4.757   4.501  10.515  0.3487  0.2749 -0.2730
  176SOPE   H5X20055   4.857   4.537  10.482  1.5845  0.6570  3.6710
  176SOPE   H5Y20056   4.680   4.552  10.453  0.2381  0.5004  0.0498
  176SOPE   C3620057   4.747   4.345  10.508 -0.6992  0.1481  0.0515
  176SOPE   H6X20058   4.647   4.302  10.527 -1.3182  0.5364 -2.1847
  176SOPE   H6Y20059   4.809   4.307  10.592 -1.1250  0.9311  0.7204
  176SOPE   C3720060   4.809   4.286  10.382 -0.5801  0.8394 -0.5427
  176SOPE   H7X20061   4.910   4.325  10.359  0.4406 -1.0837  0.5808
  176SOPE   H7Y20062   4.743   4.326  10.302 -1.3257  0.3530 -0.1804
  176SOPE   C3820063   4.833   4.136  10.389 -0.1926 -0.7229  0.1597
  176SOPE   H8X20064   4.740   4.075  10.375 -0.8525  0.8361 -2.7522
  176SOPE   H8Y20065   4.875   4.110  10.488  2.1924 -2.3137 -1.2139
  176SOPE   C3920066   4.935   4.083  10.284 -0.0802  1.1487  0.0938
  176SOPE   H9X20067   4.961   3.977  10.308 -0.1724  1.4383  1.5175
  176SOPE   H9Y20068   5.027   4.146  10.284 -0.3427  1.5678  2.4698
  176SOPE  C31020069   4.879   4.097  10.143 -0.5013  0.1738  0.4561
  176SOPE  H10X20070   4.907   4.197  10.104  1.7033 -0.0876  1.2766
  176SOPE  H10Y20071   4.769   4.088  10.143 -0.6356  1.6818  1.1253
  176SOPE  C31120072   4.933   3.993  10.039  0.4309 -0.9142 -0.5596
  176SOPE  H11X20073   4.888   3.893  10.053 -2.9525  0.6146  0.0243
  176SOPE  H11Y20074   5.043   3.997  10.047  0.4649  0.3812 -1.4808
  176SOPE  C31220075   4.896   4.038   9.894  0.3312  0.1589 -0.0485
  176SOPE  H12X20076   4.942   4.139   9.891 -0.5206  0.5446 -0.2447
  176SOPE  H12Y20077   4.786   4.056   9.886  0.1197  0.1348  2.4435
  176SOPE  C31320078   4.928   3.943   9.771  0.0077 -0.6119  0.2373
  176SOPE  H13X20079   5.035   3.915   9.765 -0.1397 -1.3102  0.8029
  176SOPE  H13Y20080   4.909   3.995   9.675  0.0620 -0.4674  0.3043
  176SOPE  C31420081   4.837   3.807   9.766 -0.9412  0.0921 -0.0160
  176SOPE  H14X20082   4.728   3.824   9.754 -1.0055  0.4317  1.0287
  176SOPE  H14Y20083   4.850   3.749   9.859  0.3855  0.8649  0.3014
  176SOPE  C31520084   4.876   3.707   9.647 -0.1726 -0.4009  0.3395
  176SOPE  H15X20085   4.819   3.612   9.650  0.1402 -0.6150 -0.6686
  176SOPE  H15Y20086   4.984   3.682   9.656  0.5599  2.7324  0.8106
  176SOPE  C31620087   4.857   3.763   9.507  0.1502 -0.4531 -0.2364
  176SOPE  H16X20088   4.915   3.857   9.497  0.4011 -0.5054  0.7181
  176SOPE  H16Y20089   4.752   3.787   9.479  0.2171 -1.4141 -1.3433
  176SOPE  C31720090   4.904   3.658   9.406 -0.1002 -0.1333  0.5217
  176SOPE  H17X20091   4.848   3.565   9.429  0.0498 -0.6367 -1.1284
  176SOPE  H17Y20092   5.014   3.648   9.415  0.4515  1.7107 -3.3343
  176SOPE  C31820093   4.911   3.710   9.261  0.5876 -0.0643  0.0553
  176SOPE  H18X20094   4.913   3.632   9.182 -2.4389 -0.4035  0.2449
  176SOPE  H18Y20095   5.008   3.763   9.253 -0.7217  2.6406  1.6278
  176SOPE  H18Z20096   4.819   3.771   9.248 -0.4107 -1.6411 -0.4937
  177SOPE     N20097   5.858   2.732  10.937  0.5002 -0.3179 -0.2244
  177SOPE   HN120098   5.857   2.636  10.977 -0.6060  0.7610  2.5018
  177SOPE   HN220099   5.952   2.765  10.908  0.5473  0.0377  0.3124
  177SOPE   HN320100   5.823   2.795  11.013  1.4374 -1.6115  1.3223
  177SOPE   C1220101   5.769   2.749  10.815  0.2952  0.2920  0.1018
  177SOPE  H12A20102   5.827   2.719  10.726  1.1186  2.9062 -0.2685
  177SOPE  H12B20103   5.746   2.856  10.797 -1.9155 -0.5045 -2.1831
  177SOPE   C1120104   5.651   2.652  10.835  0.2955 -0.2147 -0.9840
  177SOPE  H11A20105   5.689   2.548  10.844 -1.4195 -0.7102  0.7911
  177SOPE  H11B20106   5.589   2.647  10.742 -2.1728 -0.9836  0.6451
  177SOPE     P20107   5.456   2.786  10.958 -0.0763  0.0966  0.0590
  177SOPE   O1320108   5.518   2.916  10.906  0.0196 -0.4154  0.6000
  177SOPE   O1420109   5.409   2.791  11.099  0.0468 -0.6297  0.1701
  177SOPE   O1220110   5.570   2.681  10.953 -0.0444 -0.2572  0.0631
  177SOPE   O1120111   5.348   2.742  10.865  0.3387 -0.6257  0.0723
  177SOPE    C120112   5.306   2.606  10.852  0.3615  0.2152 -0.2718
  177SOPE    HA20113   5.211   2.575  10.899  0.0073  0.0226 -1.1032
  177SOPE    HB20114   5.388   2.539  10.886  1.5787  2.0468  0.5512
  177SOPE    C220115   5.290   2.571  10.701 -0.0636  0.0331  0.0810
  177SOPE    HS20116   5.390   2.570  10.652 -1.1604 -0.1579 -2.2335
  177SOPE   O2120117   5.210   2.672  10.646  0.0703  0.1847  0.4180
  177SOPE   C2120118   5.269   2.740  10.544  0.1383 -0.1223  0.1072
  177SOPE   O2220119   5.382   2.723  10.500  0.0492 -0.3810  0.5604
  177SOPE   C2220120   5.172   2.846  10.490  0.3917  0.2878 -0.8292
  177SOPE   H2R20121   5.171   2.932  10.561  0.9723  0.6921 -1.3033
  177SOPE   H2S20122   5.072   2.803  10.468 -0.9425  3.5192 -1.4715
  177SOPE    C320123   5.219   2.435  10.686 -0.6881  0.3078  0.1560
  177SOPE    HX20124   5.138   2.418  10.760  1.1310  0.8883  2.3504
  177SOPE    HY20125   5.297   2.360  10.714  0.4638  0.7096 -1.8644
  177SOPE   O3120126   5.188   2.411  10.550  0.0415  0.1645  0.0635
  177SOPE   C3120127   5.068   2.447  10.509 -0.7638 -0.4719  0.9627
  177SOPE   O3220128   4.975   2.488  10.578  0.8329 -0.1700 -0.1530
  177SOPE   C3220129   5.057   2.391  10.369  0.4534 -0.1039  0.5752
  177SOPE   H2X20130   5.037   2.282  10.371  3.9949 -0.8311 -0.4626
  177SOPE   H2Y20131   5.152   2.418  10.318 -1.1117  0.3016 -2.2369
  177SOPE   C2320132   5.214   2.899  10.358 -0.1377  0.3382 -0.4228
  177SOPE   H3R20133   5.324   2.914  10.359  0.0978 -1.1767 -1.3627
  177SOPE   H3S20134   5.169   2.996  10.328  0.1703  0.8036  0.6257
  177SOPE   C2420135   5.177   2.808  10.236 -1.0038  0.1348 -0.3021
  177SOPE   H4R20136   5.205   2.702  10.251  0.5168  0.5755  0.0784
  177SOPE   H4S20137   5.069   2.808  10.210 -1.6915  1.4939  2.3849
  177SOPE   C2520138   5.247   2.850  10.102 -0.3247 -0.4557  0.1592
  177SOPE   H5R20139   5.238   2.960  10.100  0.7983 -0.3577 -0.1020
  177SOPE   H5S20140   5.356   2.829  10.113 -0.4542 -1.2626 -0.0007
  177SOPE   C2620141   5.186   2.776   9.983 -0.3484  1.2404 -0.1329
  177SOPE   H6R20142   5.173   2.669  10.010  1.8649  1.1178  0.5269
  177SOPE   H6S20143   5.084   2.816   9.966  0.0304  1.2913 -2.3774
  177SOPE   C2720144   5.259   2.795   9.851  0.0171 -0.2050  0.8041
  177SOPE   H7R20145   5.225   2.894   9.815  0.6108 -0.8437 -1.5805
  177SOPE   H7S20146   5.369   2.802   9.863 -0.3054  3.5308  2.0916
  177SOPE   C2820147   5.229   2.688   9.749  0.2566  0.3098 -0.5951
  177SOPE   H8R20148   5.321   2.689   9.686  2.2324  1.8426  2.2290
  177SOPE   H8S20149   5.209   2.593   9.803  1.4974 -0.8553 -2.1268
  177SOPE   C2920150   5.104   2.709   9.671  0.0421 -0.3580 -0.7456
  177SOPE   H9120151   5.006   2.671   9.702  0.2369  0.3661  0.7740
  177SOPE  C21020152   5.098   2.761   9.547  0.0259  0.3312  0.3451
  177SOPE  H10120153   5.001   2.778   9.497 -0.9596  0.6022  2.3061
  177SOPE  C21120154   5.219   2.808   9.474 -0.6458 -0.1892  0.0619
  177SOPE  H11R20155   5.298   2.831   9.548 -0.8479 -2.0893  0.8900
  177SOPE  H11S20156   5.215   2.909   9.427 -0.5019 -0.1222  0.1924
  177SOPE  C21220157   5.265   2.712   9.360 -1.1034 -0.0255  0.2280
  177SOPE  H12R20158   5.177   2.668   9.308 -0.7204  0.5461 -0.9217
  177SOPE  H12S20159   5.332   2.635   9.402 -0.9847  0.7417  1.4768
  177SOPE  C21320160   5.363   2.775   9.251 -0.3329  0.0243 -0.6169
  177SOPE  H13R20161   5.442   2.833   9.304 -0.9831 -0.7217  1.2089
  177SOPE  H13S20162   5.305   2.856   9.200  0.5792  1.4590  0.5895
  177SOPE  C21420163   5.427   2.683   9.157 -0.0587  0.7604  0.0135
  177SOPE  H14R20164   5.339   2.641   9.104 -0.7932  1.7231  0.4431
  177SOPE  H14S20165   5.482   2.599   9.204 -0.0927  0.2785 -0.7949
  177SOPE  C21520166   5.519   2.761   9.064  0.1049  0.1818 -0.6614
  177SOPE  H15R20167   5.610   2.810   9.107 -0.0388 -0.9058  0.9024
  177SOPE  H15S20168   5.466   2.850   9.025  2.2306  1.7049 -0.2313
  177SOPE  C21620169   5.562   2.682   8.940 -0.2588 -0.2152  0.0982
  177SOPE  H16R20170   5.467   2.634   8.907 -1.2911  1.0195  1.2196
  177SOPE  H16S20171   5.629   2.595   8.959  1.2280  1.0238  0.5316
  177SOPE  C21720172   5.604   2.775   8.827 -0.6445 -0.0943 -0.3098
  177SOPE  H17R20173   5.680   2.849   8.858 -1.9275 -0.1709  3.3136
  177SOPE  H17S20174   5.513   2.838   8.818  0.9237  2.3347  0.4992
  177SOPE  C21820175   5.656   2.703   8.703  0.3016  0.0345 -0.1270
  177SOPE  H18R20176   5.737   2.628   8.716 -0.2670 -0.5410  0.1208
  177SOPE  H18S20177   5.701   2.769   8.625  1.7742 -1.7067 -0.7866
  177SOPE  H18T20178   5.573   2.654   8.649  1.2202 -0.9016 -0.7097
  177SOPE   C3320179   4.954   2.456  10.280 -0.1864  0.5604 -0.0097
  177SOPE   H3X20180   4.971   2.566  10.285  1.0049  0.3823 -0.1105
  177SOPE   H3Y20181   4.852   2.441  10.321 -0.0433  1.4023  0.6747
  177SOPE   C3420182   4.956   2.400  10.132  0.4742 -0.3888 -0.0220
  177SOPE   H4X20183   4.925   2.293  10.132 -1.3839  0.0959 -3.4138
  177SOPE   H4Y20184   5.057   2.400  10.085  0.8141 -0.3319  0.7074
  177SOPE   C3520185   4.858   2.473  10.042  0.4269 -0.0943 -0.4693
  177SOPE   H5X20186   4.884   2.581  10.041  1.2024 -0.2723 -0.0716
  177SOPE   H5Y20187   4.756   2.467  10.087  0.3315 -2.3768 -0.9320
  177SOPE   C3620188   4.864   2.428   9.893  0.6981 -0.6004 -0.6221
  177SOPE   H6X20189   4.857   2.318   9.886 -1.4843 -0.5075 -0.3009
  177SOPE   H6Y20190   4.961   2.454   9.844  0.7370 -2.7251 -1.7237
  177SOPE   C3720191   4.754   2.479   9.799 -0.0835  0.9430 -0.5677
  177SOPE   H7X20192   4.779   2.587   9.795  1.6769  0.6955  2.4262
  177SOPE   H7Y20193   4.664   2.463   9.861  1.4687 -0.9236  1.2610
  177SOPE   C3820194   4.745   2.415   9.660 -0.4453 -0.1286 -1.0862
  177SOPE   H8X20195   4.644   2.437   9.620 -0.6852  1.4409  0.3145
  177SOPE   H8Y20196   4.759   2.305   9.663  0.6548  0.0288  0.8904
  177SOPE   C3920197   4.855   2.474   9.563 -0.4083  0.7222  0.7260
  177SOPE   H9X20198   4.956   2.473   9.609  0.3710  0.2377 -0.9592
  177SOPE   H9Y20199   4.833   2.583   9.551 -0.7042  0.3937 -2.1453
  177SOPE  C31020200   4.860   2.403   9.432 -0.2660 -0.1014  0.1797
  177SOPE  H10X20201   4.762   2.415   9.382 -0.4432 -0.1664  0.5056
  177SOPE  H10Y20202   4.883   2.296   9.454 -2.8835 -0.7189  0.1203
  177SOPE  C31120203   4.974   2.462   9.348  0.2574 -1.2248 -0.0610
  177SOPE  H11X20204   5.074   2.431   9.383  1.0929  0.3635 -0.9637
  177SOPE  H11Y20205   4.969   2.572   9.363  1.8817 -1.1966  0.3143
  177SOPE  C31220206   4.948   2.433   9.201 -0.4106  0.0188  0.9495
  177SOPE  H12X20207   4.840   2.443   9.179 -0.4844 -3.0156 -0.3421
  177SOPE  H12Y20208   4.970   2.324   9.194  0.4897  0.0197  3.1879
  177SOPE  C31320209   5.034   2.517   9.105 -0.4286 -0.1606 -0.2145
  177SOPE  H13X20210   5.141   2.518   9.137 -0.9982  0.4655  1.7058
  177SOPE  H13Y20211   4.998   2.622   9.101  1.9439  0.7538  1.0650
  177SOPE  C31420212   5.035   2.474   8.958  0.6431  0.3315 -0.1593
  177SOPE  H14X20213   4.932   2.495   8.925  0.2558 -2.5513 -0.9194
  177SOPE  H14Y20214   5.048   2.364   8.951 -0.4621  0.2987 -1.9519
  177SOPE  C31520215   5.144   2.541   8.863 -0.4271  0.2324  0.2947
  177SOPE  H15X20216   5.144   2.510   8.756 -0.4252  1.1764  0.0128
  177SOPE  H15Y20217   5.241   2.495   8.889 -0.0895  0.5542 -0.3831
  177SOPE  C31620218   5.137   2.693   8.860  0.4551  0.0412 -0.7544
  177SOPE  H16X20219   5.188   2.726   8.953  0.5345 -2.3423  0.0816
  177SOPE  H16Y20220   5.039   2.745   8.866 -0.2676 -1.5053  1.5658
  177SOPE  C31720221   5.212   2.752   8.738 -0.2642 -0.0892 -0.3491
  177SOPE  H17X20222   5.151   2.761   8.645 -0.2890  0.7429 -0.2544
  177SOPE  H17Y20223   5.306   2.695   8.721  1.1228  1.1528  2.9379
  177SOPE  C31820224   5.254   2.896   8.755 -0.2029 -0.0535 -0.1494
  177SOPE  H18X20225   5.173   2.970   8.743  0.0425  0.8384  3.2033
  177SOPE  H18Y20226   5.324   2.924   8.673  0.5520 -1.1335  0.1053
  177SOPE  H18Z20227   5.301   2.917   8.854  2.8227 -1.5693 -1.1718
  178SOPE     N20228   2.281   0.944  10.621 -0.4743 -0.4871 -0.5859
  178SOPE   HN120229   2.252   0.851  10.583  0.0649 -0.7901 -0.2633
  178SOPE   HN220230   2.296   0.931  10.723 -1.3181  0.0921 -0.3884
  178SOPE   HN320231   2.209   1.013  10.592  0.1354 -0.7133 -2.7655
  178SOPE   C1220232   2.404   0.991  10.554 -0.3441  0.1011  0.8646
  178SOPE  H12A20233   2.378   1.018  10.450 -0.1290 -1.5582  0.3666
  178SOPE  H12B20234   2.465   0.898  10.552 -1.6389 -0.7436 -0.7086
  178SOPE   C1120235   2.476   1.099  10.636  0.0994 -0.2295 -0.5127
  178SOPE  H11A20236   2.577   1.114  10.592  0.3183 -1.1953 -0.3652
  178SOPE  H11B20237   2.484   1.055  10.737  0.1739 -0.1524 -0.4855
  178SOPE     P20238   2.447   1.341  10.708 -0.4479 -0.0128  0.1487
  178SOPE   O1320239   2.480   1.305  10.849 -0.0255  0.7466  0.2868
  178SOPE   O1420240   2.352   1.450  10.693 -0.0898 -0.3627 -0.0561
  178SOPE   O1220241   2.394   1.216  10.636  0.0283  0.0144 -0.0353
  178SOPE   O1120242   2.588   1.371  10.639 -0.0711  0.1400  0.1659
  178SOPE    C120243   2.586   1.462  10.530 -0.5897 -0.6126  0.4107
  178SOPE    HA20244   2.688   1.504  10.524  0.1943 -2.1476  2.5623
  178SOPE    HB20245   2.518   1.549  10.546 -1.3636 -0.9314 -0.9645
  178SOPE    C220246   2.547   1.404  10.388  0.7145 -1.0603  0.2353
  178SOPE    HS20247   2.442   1.372  10.407  0.4105 -0.1933  0.0207
  178SOPE   O2120248   2.630   1.289  10.365  0.7883 -0.2153 -0.3052
  178SOPE   C2120249   2.577   1.184  10.310  0.1364  0.5429  0.5173
  178SOPE   O2220250   2.461   1.160  10.288  0.2262  0.1065 -0.3887
  178SOPE   C2220251   2.692   1.091  10.266 -0.4019  0.8411 -0.8423
  178SOPE   H2R20252   2.721   1.021  10.348  0.8325  0.0325 -1.9398
  178SOPE   H2S20253   2.779   1.157  10.245  1.6354 -2.2862 -2.6807
  178SOPE    C320254   2.552   1.494  10.265 -0.1434  0.0587  0.0906
  178SOPE    HX20255   2.650   1.545  10.261  0.2873 -0.8379 -0.7844
  178SOPE    HY20256   2.475   1.571  10.288 -0.3577 -0.6713  1.9069
  178SOPE   O3120257   2.521   1.418  10.146 -0.2942  0.1237 -0.5306
  178SOPE   C3120258   2.623   1.408  10.061  0.2392 -0.2950  0.2693
  178SOPE   O3220259   2.737   1.440  10.073 -0.3422  0.7344 -0.5322
  178SOPE   C3220260   2.572   1.334   9.936 -0.0419 -0.5926 -0.2968
  178SOPE   H2X20261   2.497   1.403   9.893 -1.1992 -1.8626 -0.3678
  178SOPE   H2Y20262   2.509   1.245   9.958  0.8842 -1.3319 -0.5724
  178SOPE   C2320263   2.661   1.009  10.140  0.4149 -0.3513 -0.1595
  178SOPE   H3R20264   2.661   1.069  10.047 -2.8991  0.1381  0.0889
  178SOPE   H3S20265   2.554   0.984  10.157  0.3563  0.2642  0.3676
  178SOPE   C2420266   2.743   0.884  10.113 -0.0088  0.3031  0.1349
  178SOPE   H4R20267   2.850   0.910  10.098 -0.1857 -0.0419 -1.9703
  178SOPE   H4S20268   2.750   0.826  10.207 -2.2092  0.2894  0.3158
  178SOPE   C2520269   2.697   0.796   9.996  0.4391 -0.4815  0.1753
  178SOPE   H5R20270   2.768   0.711  10.001  1.5150  0.3744 -0.4530
  178SOPE   H5S20271   2.596   0.751  10.012 -0.6261  1.8573  0.2913
  178SOPE   C2620272   2.707   0.862   9.853  0.4077 -0.3131  0.2673
  178SOPE   H6R20273   2.653   0.959   9.859 -1.4778 -1.2899 -0.6313
  178SOPE   H6S20274   2.809   0.903   9.835 -0.5961  1.9169 -0.5805
  178SOPE   C2720275   2.632   0.786   9.737 -0.5565 -0.5445  0.1285
  178SOPE   H7R20276   2.533   0.763   9.782 -0.5308  0.2787  0.6019
  178SOPE   H7S20277   2.618   0.851   9.648  1.4259 -0.2329  0.0294
  178SOPE   C2820278   2.702   0.662   9.688 -0.0194  0.0745  0.3024
  178SOPE   H8R20279   2.805   0.681   9.651 -1.1362  1.7408 -2.0055
  178SOPE   H8S20280   2.716   0.609   9.785 -0.6355  0.2138  0.4691
  178SOPE   C2920281   2.631   0.574   9.589 -0.0101 -0.0776 -0.3709
  178SOPE   H9120282   2.565   0.493   9.623 -2.6064  1.6962 -1.0358
  178SOPE  C21020283   2.636   0.605   9.457  0.1784  0.5136  0.0218
  178SOPE  H10120284   2.601   0.527   9.389  1.2495 -1.7399  1.9898
  178SOPE  C21120285   2.702   0.722   9.393  0.2224  0.2398  0.0989
  178SOPE  H11R20286   2.800   0.759   9.430 -0.9103  2.0234  1.3913
  178SOPE  H11S20287   2.632   0.808   9.385 -0.1922  0.0865  1.9705
  178SOPE  C21220288   2.734   0.690   9.240  0.1076  0.1798 -0.5921
  178SOPE  H12R20289   2.771   0.783   9.190 -1.1127  2.1672  2.1141
  178SOPE  H12S20290   2.638   0.659   9.192 -0.7207  0.9623  0.5530
  178SOPE  C21320291   2.835   0.575   9.228  0.2804  0.5053  0.1335
  178SOPE  H13R20292   2.786   0.486   9.271 -0.5150  1.4870  1.2893
  178SOPE  H13S20293   2.920   0.607   9.293  2.3625 -1.1214 -1.6729
  178SOPE  C21420294   2.880   0.531   9.087 -0.2770 -0.3693  0.4154
  178SOPE  H14R20295   2.801   0.463   9.048 -0.4647  0.6936 -1.1009
  178SOPE  H14S20296   2.958   0.452   9.088 -0.8241 -0.9441 -0.9737
  178SOPE  C21520297   2.923   0.648   8.987  0.1716 -0.0869 -0.1966
  178SOPE  H15R20298   3.016   0.697   9.023  0.8164 -0.8789 -0.7768
  178SOPE  H15S20299   2.835   0.714   8.971 -0.9319 -1.7326 -1.0785
  178SOPE  C21620300   2.966   0.586   8.852  0.2340  1.0448 -0.2366
  178SOPE  H16R20301   2.901   0.499   8.831 -1.8266  1.9838  1.9673
  178SOPE  H16S20302   3.071   0.552   8.859 -0.3600 -0.6322  0.7405
  178SOPE  C21720303   2.960   0.676   8.730  0.0117 -0.5410  0.6114
  178SOPE  H17R20304   3.048   0.649   8.668 -0.6689 -1.3011 -0.0250
  178SOPE  H17S20305   2.982   0.779   8.765  0.2125 -1.0690  2.0791
  178SOPE  C21820306   2.824   0.667   8.652 -0.1545 -0.5250 -0.5070
  178SOPE  H18R20307   2.750   0.718   8.717  1.6763 -0.7046  1.8032
  178SOPE  H18S20308   2.789   0.563   8.635  2.2303 -1.5097  0.3057
  178SOPE  H18T20309   2.822   0.716   8.552  1.6860  0.4016 -0.1309
  178SOPE   C3320310   2.693   1.314   9.833 -0.1903 -0.0677  0.3277
  178SOPE   H3X20311   2.762   1.233   9.865 -1.6015 -1.6833 -0.6346
  178SOPE   H3Y20312   2.736   1.416   9.824 -1.1676  0.2150 -1.2372
  178SOPE   C3420313   2.641   1.268   9.698  0.1684  0.1240 -0.9234
  178SOPE   H4X20314   2.554   1.326   9.662 -2.9135 -1.0121  4.2633
  178SOPE   H4Y20315   2.579   1.182   9.729 -1.1279  0.9282 -1.2350
  178SOPE   C3520316   2.738   1.240   9.582 -0.6842 -0.4584  0.2249
  178SOPE   H5X20317   2.808   1.161   9.617 -0.4689 -0.8192 -1.0002
  178SOPE   H5Y20318   2.813   1.319   9.557 -0.9883 -0.2941 -0.1638
  178SOPE   C3620319   2.674   1.199   9.450  0.2102  0.2803  0.5590
  178SOPE   H6X20320   2.620   1.285   9.404 -1.0124 -0.9130 -0.2848
  178SOPE   H6Y20321   2.594   1.125   9.467  0.8457 -0.5190  0.0727
  178SOPE   C3720322   2.771   1.145   9.348  0.7871  0.1230  0.2098
  178SOPE   H7X20323   2.793   1.040   9.377 -2.8128 -0.8242 -0.2975
  178SOPE   H7Y20324   2.867   1.200   9.340  0.1107  1.2161 -0.4592
  178SOPE   C3820325   2.710   1.120   9.202  0.3512 -0.3004  0.3840
  178SOPE   H8X20326   2.652   1.209   9.170 -1.5107 -2.0368 -1.1802
  178SOPE   H8Y20327   2.641   1.034   9.202  0.4324 -0.3701 -0.7311
  178SOPE   C3920328   2.817   1.109   9.092 -0.4897 -0.0165  0.6136
  178SOPE   H9X20329   2.881   1.022   9.117 -0.6057 -1.0657 -2.4982
  178SOPE   H9Y20330   2.884   1.197   9.103  2.0737 -2.1125  2.4571
  178SOPE  C31020331   2.773   1.113   8.940 -0.5215  0.1217 -0.9403
  178SOPE  H10X20332   2.719   1.208   8.914  0.4476  0.7020 -0.8358
  178SOPE  H10Y20333   2.693   1.038   8.922  0.7904 -1.5676  0.1898
  178SOPE  C31120334   2.886   1.089   8.838 -0.4051  0.4691 -0.0701
  178SOPE  H11X20335   2.839   1.068   8.739 -3.0222  1.8462  0.8368
  178SOPE  H11Y20336   2.942   0.998   8.870  0.5450  0.7729 -0.8640
  178SOPE  C31220337   2.982   1.202   8.821 -0.2524 -0.4380 -0.6642
  178SOPE  H12X20338   3.070   1.173   8.759 -1.5242 -1.1197 -2.1753
  178SOPE  H12Y20339   3.033   1.229   8.916  1.6955  1.2062 -2.1419
  178SOPE  C31320340   2.915   1.328   8.758 -0.3036  0.4584  0.2120
  178SOPE  H13X20341   2.829   1.364   8.819 -0.2188  0.4695  0.3233
  178SOPE  H13Y20342   2.867   1.303   8.661  0.5474  1.7204 -0.5346
  178SOPE  C31420343   3.012   1.443   8.744  0.1864 -0.6868 -0.0280
  178SOPE  H14X20344   3.050   1.484   8.840  0.5988  1.5225 -1.1051
  178SOPE  H14Y20345   2.965   1.531   8.697  0.7014  0.4756  1.5944
  178SOPE  C31520346   3.132   1.404   8.663 -0.3032 -0.5139  0.1990
  178SOPE  H15X20347   3.102   1.346   8.573 -0.3317 -0.5179  0.2101
  178SOPE  H15Y20348   3.187   1.340   8.735  0.4400  0.3528  0.4077
  178SOPE  C31620349   3.212   1.527   8.636 -0.2075  0.1340 -0.7014
  178SOPE  H16X20350   3.259   1.567   8.728  1.4097 -2.3980 -0.3622
  178SOPE  H16Y20351   3.144   1.601   8.590 -1.4744 -0.4176  0.2784
  178SOPE  C31720352   3.329   1.513   8.540 -0.5398  0.1110 -0.2348
  178SOPE  H17X20353   3.370   1.610   8.506 -0.0720 -0.1024 -0.2899
  178SOPE  H17Y20354   3.289   1.467   8.447  2.6931 -1.5392 -0.8870
  178SOPE  C31820355   3.441   1.425   8.601 -0.0154  0.2152 -0.2967
  178SOPE  H18X20356   3.479   1.478   8.690 -2.8501 -0.7043  1.5320
  178SOPE  H18Y20357   3.522   1.407   8.526  1.1263 -0.3869  1.0562
  178SOPE  H18Z20358   3.403   1.323   8.623 -0.2792  0.0365 -1.5141
  179SOPE     N20359   1.379   1.983   6.338 -0.1271  0.0843  0.2568
  179SOPE   HN120360   1.451   2.016   6.270 -2.1882  1.4151 -1.3193
  179SOPE   HN220361   1.415   1.897   6.384  0.7281 -0.8200 -2.0014
  179SOPE   HN320362   1.297   1.953   6.282  0.7981 -1.1773 -0.4434
  179SOPE   C1220363   1.326   2.088   6.429  0.2001 -0.0944  0.3031
  179SOPE  H12A20364   1.234   2.134   6.385 -1.1098 -2.1529  0.8026
  179SOPE  H12B20365   1.398   2.172   6.424  1.3267 -1.1179 -0.7676
  179SOPE   C1120366   1.309   2.030   6.568 -0.3030  0.6154 -0.1684
  179SOPE  H11A20367   1.291   2.109   6.645 -1.4030  0.2705 -0.0556
  179SOPE  H11B20368   1.410   1.992   6.592  0.3033  0.9070 -2.1616
  179SOPE     P20369   1.097   1.898   6.651 -0.3114 -0.1499  0.0481
  179SOPE   O1320370   1.008   1.782   6.618 -0.1301  0.3964  0.0907
  179SOPE   O1420371   1.037   2.031   6.647 -0.4279 -0.5062 -0.1189
  179SOPE   O1220372   1.222   1.913   6.555  0.2006  0.0846  0.3220
  179SOPE   O1120373   1.180   1.869   6.789  0.1714  0.4130 -0.2223
  179SOPE    C120374   1.263   1.753   6.795  0.9959  0.6344 -0.1850
  179SOPE    HA20375   1.340   1.756   6.715  2.9268  1.0064  1.6320
  179SOPE    HB20376   1.203   1.661   6.778 -2.3634  2.3172  2.2175
  179SOPE    C220377   1.334   1.739   6.928 -0.5241  0.7840 -0.2552
  179SOPE    HS20378   1.437   1.695   6.925  0.2128  2.6229 -3.2516
  179SOPE   O2120379   1.257   1.653   7.013 -0.0218  0.3016  0.3934
  179SOPE   C2120380   1.287   1.523   7.016 -0.0094  0.2315  1.0088
  179SOPE   O2220381   1.377   1.462   6.962 -0.3979  0.1275  0.1350
  179SOPE   C2220382   1.181   1.451   7.115  0.3174 -0.0860  0.3478
  179SOPE   H2R20383   1.080   1.450   7.068  0.3092  0.2355  0.3582
  179SOPE   H2S20384   1.185   1.506   7.212  1.6675  2.1367 -0.9190
  179SOPE    C320385   1.355   1.869   7.003 -0.3314 -0.2024 -0.1079
  179SOPE    HX20386   1.258   1.923   7.004 -0.6565 -0.7923  0.8198
  179SOPE    HY20387   1.415   1.937   6.939  0.7395 -0.8937  0.1435
  179SOPE   O3120388   1.405   1.861   7.139  0.6476 -0.1055 -0.0996
  179SOPE   C3120389   1.529   1.844   7.157 -0.5561 -0.8026 -0.6508
  179SOPE   O3220390   1.612   1.824   7.070 -0.1122  0.2036  0.9530
  179SOPE   C3220391   1.551   1.860   7.302  0.2942 -0.0346  0.1429
  179SOPE   H2X20392   1.453   1.887   7.347  0.7441 -0.3160  1.3234
  179SOPE   H2Y20393   1.628   1.940   7.307 -0.1196  0.4263 -0.8807
  179SOPE   C2320394   1.221   1.303   7.144 -0.2810 -0.3944  0.3948
  179SOPE   H3R20395   1.256   1.256   7.049 -1.7682  0.1293 -0.4224
  179SOPE   H3S20396   1.138   1.245   7.190 -0.9081  0.4975  0.3836
  179SOPE   C2420397   1.335   1.279   7.244  0.0121  0.0475  0.0286
  179SOPE   H4R20398   1.360   1.171   7.243 -0.2660 -0.0126 -0.6257
  179SOPE   H4S20399   1.430   1.317   7.200  1.0620 -3.3140 -0.7208
  179SOPE   C2520400   1.315   1.334   7.380  0.0537 -0.4845 -0.5858
  179SOPE   H5R20401   1.332   1.444   7.377 -1.9953 -0.0956  0.6345
  179SOPE   H5S20402   1.208   1.344   7.408  0.7397  1.9170  1.3880
  179SOPE   C2620403   1.395   1.276   7.498  0.2203  0.1982 -0.1342
  179SOPE   H6R20404   1.355   1.172   7.506  0.8089 -0.2868 -2.9220
  179SOPE   H6S20405   1.500   1.262   7.466  0.4438 -1.4011  1.2466
  179SOPE   C2720406   1.394   1.349   7.635  0.0683 -0.4602 -0.8094
  179SOPE   H7R20407   1.447   1.446   7.634  3.0561 -1.9984  0.5812
  179SOPE   H7S20408   1.288   1.374   7.657  0.9797  1.0250  2.1701
  179SOPE   C2820409   1.448   1.265   7.757  0.5800 -0.3737  0.5447
  179SOPE   H8R20410   1.421   1.320   7.850  0.7090  1.8630 -0.6948
  179SOPE   H8S20411   1.381   1.177   7.756 -3.1027  2.3175 -0.5917
  179SOPE   C2920412   1.594   1.225   7.758 -0.5940 -0.5220  0.0936
  179SOPE   H9120413   1.664   1.295   7.710  0.5318 -0.3037  1.9903
  179SOPE  C21020414   1.651   1.109   7.802  0.1153 -0.7368 -0.5477
  179SOPE  H10120415   1.759   1.090   7.807  0.4135  1.1919  0.7321
  179SOPE  C21120416   1.578   1.000   7.865 -0.3615  0.0854  0.4077
  179SOPE  H11R20417   1.469   1.020   7.875 -0.4226 -0.3926  0.6609
  179SOPE  H11S20418   1.626   0.977   7.962  2.8211  0.3283 -1.0382
  179SOPE  C21220419   1.571   0.873   7.776 -0.3059  0.6698 -0.6679
  179SOPE  H12R20420   1.521   0.786   7.823 -0.0424  0.6205 -0.4767
  179SOPE  H12S20421   1.678   0.846   7.759 -0.5075 -0.7702  0.2196
  179SOPE  C21320422   1.494   0.900   7.637 -0.0709  0.5740 -0.1749
  179SOPE  H13R20423   1.548   0.978   7.581  1.2307  0.0835  0.3785
  179SOPE  H13S20424   1.392   0.939   7.660 -0.7656  1.0636 -3.8377
  179SOPE  C21420425   1.498   0.778   7.544  0.5857 -0.1552 -0.2759
  179SOPE  H14R20426   1.431   0.702   7.591  0.2950  1.1287  1.4272
  179SOPE  H14S20427   1.597   0.730   7.558 -0.0351 -1.2311  0.6110
  179SOPE  C21520428   1.447   0.819   7.403 -0.0325  0.3675 -0.3341
  179SOPE  H15R20429   1.350   0.873   7.409 -0.5538 -0.6716  0.7790
  179SOPE  H15S20430   1.411   0.723   7.360 -0.4441  0.4848 -0.2529
  179SOPE  C21620431   1.553   0.879   7.307 -0.5405  0.0495 -0.3895
  179SOPE  H16R20432   1.638   0.807   7.302  0.0232  0.7347 -0.8889
  179SOPE  H16S20433   1.588   0.977   7.347 -2.1282 -0.2950  1.9156
  179SOPE  C21720434   1.500   0.903   7.165  0.0961 -0.1258  0.6912
  179SOPE  H17R20435   1.540   0.988   7.105 -1.9963  0.9406  0.7328
  179SOPE  H17S20436   1.390   0.921   7.167  0.1480  0.1217  1.8412
  179SOPE  C21820437   1.527   0.776   7.083 -0.5580 -0.0186 -0.5898
  179SOPE  H18R20438   1.629   0.786   7.041 -0.1674 -0.7230  0.1624
  179SOPE  H18S20439   1.451   0.768   7.002 -1.2841  0.7366  0.0179
  179SOPE  H18T20440   1.512   0.682   7.141  0.7467  0.4307  0.4804
  179SOPE   C3320441   1.616   1.730   7.361 -0.3340 -0.8836 -0.0682
  179SOPE   H3X20442   1.587   1.634   7.313  2.3659 -1.4325 -0.7145
  179SOPE   H3Y20443   1.562   1.710   7.455  0.2095 -0.3837  0.3549
  179SOPE   C3420444   1.765   1.749   7.390  0.2061 -0.6925  0.3390
  179SOPE   H4X20445   1.781   1.850   7.434  1.5945  0.2888 -2.2938
  179SOPE   H4Y20446   1.829   1.743   7.299 -1.6192  1.0882 -1.0972
  179SOPE   C3520447   1.813   1.647   7.488  0.2779  0.2491  0.5378
  179SOPE   H5X20448   1.924   1.655   7.490  0.2532  0.7534 -0.1453
  179SOPE   H5Y20449   1.790   1.548   7.444 -0.7903  1.6690 -2.1834
  179SOPE   C3620450   1.761   1.658   7.632  0.1630  0.2305 -0.0288
  179SOPE   H6X20451   1.657   1.620   7.634  1.2101 -2.8269 -0.8398
  179SOPE   H6Y20452   1.760   1.766   7.660  4.7810  0.3235  0.2901
  179SOPE   C3720453   1.844   1.582   7.730  0.2462 -0.3678  0.0545
  179SOPE   H7X20454   1.949   1.618   7.732  0.3524 -0.7594  2.0434
  179SOPE   H7Y20455   1.843   1.474   7.701 -1.0503  0.1234 -1.8515
  179SOPE   C3820456   1.795   1.593   7.876  0.9715  0.2354  0.1637
  179SOPE   H8X20457   1.684   1.595   7.884  0.9116  0.7501 -0.8317
  179SOPE   H8Y20458   1.834   1.692   7.908 -0.0690  0.4260  0.8789
  179SOPE   C3920459   1.858   1.487   7.976  0.5250 -0.1907 -0.4323
  179SOPE   H9X20460   1.969   1.490   7.976  0.5627 -0.1937  2.6925
  179SOPE   H9Y20461   1.818   1.391   7.939  1.4661  0.1651 -2.4441
  179SOPE  C31020462   1.794   1.494   8.116 -0.4623 -0.5105 -0.6661
  179SOPE  H10X20463   1.823   1.395   8.159 -1.3308 -0.2025  0.6343
  179SOPE  H10Y20464   1.684   1.486   8.116 -0.3590 -2.3300 -0.7486
  179SOPE  C31120465   1.857   1.605   8.202  0.2597  0.0245  0.1864
  179SOPE  H11X20466   1.826   1.704   8.163 -1.4978 -0.5128  0.1935
  179SOPE  H11Y20467   1.967   1.593   8.188  0.3874  0.5470  0.7231
  179SOPE  C31220468   1.816   1.596   8.351  0.0385  0.3930  0.0127
  179SOPE  H12X20469   1.883   1.522   8.400 -0.7712  0.8758  1.8931
  179SOPE  H12Y20470   1.710   1.562   8.353  0.6638 -2.0894 -3.8219
  179SOPE  C31320471   1.821   1.729   8.434  0.7803 -0.2279 -0.1477
  179SOPE  H13X20472   1.759   1.801   8.375 -1.7585 -4.0980 -2.4120
  179SOPE  H13Y20473   1.928   1.759   8.438  0.7424 -0.1544  0.2916
  179SOPE  C31420474   1.770   1.709   8.584 -0.2897 -0.5186  0.0956
  179SOPE  H14X20475   1.845   1.647   8.637  1.2042  2.0669  1.0805
  179SOPE  H14Y20476   1.673   1.656   8.577 -0.3907 -0.4531  0.9880
  179SOPE  C31520477   1.746   1.840   8.659  0.5320 -0.4304 -0.4392
  179SOPE  H15X20478   1.703   1.918   8.593  2.4235  0.8982 -0.1256
  179SOPE  H15Y20479   1.842   1.879   8.698 -0.8538 -1.7622  4.8064
  179SOPE  C31620480   1.670   1.811   8.790 -0.7721 -0.5589  0.2497
  179SOPE  H16X20481   1.696   1.710   8.828  3.0783  0.0637 -0.5577
  179SOPE  H16Y20482   1.562   1.811   8.767 -0.2392  0.4822 -2.3388
  179SOPE  C31720483   1.702   1.911   8.899 -0.0003  0.2972 -0.0154
  179SOPE  H17X20484   1.811   1.906   8.919 -0.1240  0.2429  0.6504
  179SOPE  H17Y20485   1.643   1.883   8.990  0.6521 -0.2180  0.2506
  179SOPE  C31820486   1.679   2.053   8.860  0.2415  0.5757 -0.5943
  179SOPE  H18X20487   1.577   2.067   8.818  0.5429  2.3901 -0.7703
  179SOPE  H18Y20488   1.743   2.083   8.774 -1.3280  4.0575 -0.6332
  179SOPE  H18Z20489   1.706   2.125   8.941 -0.1247  0.7528 -0.6282
  180SOPE     N20490   6.759   1.950   5.969  0.4000 -0.5695  0.2138
  180SOPE   HN120491   6.733   2.018   5.895 -0.2282 -0.8970  0.1365
  180SOPE   HN220492   6.764   1.855   5.927 -0.4386 -0.5155 -0.0017
  180SOPE   HN320493   6.695   1.961   6.050 -1.8058 -0.3869 -1.5250
  180SOPE   C1220494   6.898   1.961   6.028 -0.2461  0.0678  0.7876
  180SOPE  H12A20495   6.916   2.065   6.063  2.1526 -0.0038 -0.1577
  180SOPE  H12B20496   6.973   1.932   5.951 -0.4097  2.4001 -0.2752
  180SOPE   C1120497   6.902   1.881   6.155  0.0167  0.6623  0.4889
  180SOPE  H11A20498   6.821   1.920   6.220 -0.3484  2.0720 -0.7873
  180SOPE  H11B20499   7.001   1.908   6.198 -0.3216  1.7265  0.6174
  180SOPE     P20500   6.995   1.642   6.141 -0.0032 -0.3238  0.0127
  180SOPE   O1320501   7.102   1.690   6.051  0.4194 -0.5150  0.6206
  180SOPE   O1420502   6.949   1.504   6.123  0.4093 -0.0767 -0.2109
  180SOPE   O1220503   6.876   1.740   6.126  0.2081  0.8502  0.4329
  180SOPE   O1120504   7.044   1.668   6.297 -0.5000  0.3070 -0.0170
  180SOPE    C120505   7.095   1.564   6.379 -0.0102  0.9144 -0.6745
  180SOPE    HA20506   7.196   1.581   6.422  0.2207  0.0523 -0.8749
  180SOPE    HB20507   7.109   1.466   6.329  1.4804  0.3381  0.8062
  180SOPE    C220508   6.995   1.534   6.498 -0.0469 -0.5257  0.3325
  180SOPE    HS20509   6.893   1.504   6.467 -0.5539  0.9215  0.5985
  180SOPE   O2120510   6.988   1.645   6.584 -0.2058  0.3770  0.4943
  180SOPE   C2120511   6.898   1.731   6.561  0.5942 -0.2681 -0.3438
  180SOPE   O2220512   6.801   1.730   6.485  0.1901 -0.5514 -0.1830
  180SOPE   C2220513   6.909   1.837   6.667  0.1985 -0.2342 -1.2576
  180SOPE   H2R20514   6.811   1.888   6.678 -0.1710 -0.8942 -1.4874
  180SOPE   H2S20515   6.981   1.914   6.631  0.0544  0.7917  0.6105
  180SOPE    C320516   7.055   1.411   6.581 -0.1348 -0.5665  0.2577
  180SOPE    HX20517   7.157   1.446   6.608 -0.0525 -0.2933 -0.3969
  180SOPE    HY20518   7.057   1.318   6.521  0.1577  0.6713 -1.6943
  180SOPE   O3120519   6.980   1.386   6.704 -0.0442 -0.9016  0.2941
  180SOPE   C3120520   7.040   1.370   6.814  0.1787 -0.0233 -0.1123
  180SOPE   O3220521   7.163   1.362   6.827 -0.4699 -1.0823  0.2201
  180SOPE   C3220522   6.931   1.347   6.921 -0.4520 -0.5803 -0.1528
  180SOPE   H2X20523   6.899   1.243   6.898  0.6130 -1.1894  1.0023
  180SOPE   H2Y20524   6.851   1.422   6.907  1.2743  1.3974  0.3328
  180SOPE   C2320525   6.967   1.793   6.808  0.3081  0.4204 -0.2116
  180SOPE   H3R20526   7.052   1.721   6.796  0.7708  0.9632 -0.2187
  180SOPE   H3S20527   6.884   1.749   6.867 -0.3557  0.8052 -0.8476
  180SOPE   C2420528   7.024   1.917   6.873  0.3126 -0.1162 -0.3381
  180SOPE   H4R20529   7.128   1.935   6.839  0.4475 -1.6027 -0.7470
  180SOPE   H4S20530   6.963   2.008   6.856  1.8917  1.0530  0.1825
  180SOPE   C2520531   7.040   1.890   7.023 -0.0643  0.0471 -0.2209
  180SOPE   H5R20532   7.055   1.782   7.045 -0.7354 -0.2604 -1.2432
  180SOPE   H5S20533   7.133   1.945   7.050 -1.1006  1.7041  0.0154
  180SOPE   C2620534   6.926   1.959   7.099  0.5840 -0.7379  0.0848
  180SOPE   H6R20535   6.924   2.063   7.062  0.8807 -1.3803 -1.7916
  180SOPE   H6S20536   6.824   1.917   7.090 -1.1545  2.7856  2.5013
  180SOPE   C2720537   6.941   1.978   7.258 -0.3621  0.5204  0.3414
  180SOPE   H7R20538   7.050   1.978   7.278 -0.2871  0.7999 -0.0542
  180SOPE   H7S20539   6.897   2.072   7.297 -0.8930  0.5598 -0.3256
  180SOPE   C2820540   6.865   1.883   7.344 -0.4949  0.1180 -0.1379
  180SOPE   H8R20541   6.875   1.928   7.445  1.4236  3.3165 -1.6633
  180SOPE   H8S20542   6.756   1.883   7.320 -0.5834 -1.6616  0.2005
  180SOPE   C2920543   6.914   1.744   7.344 -0.6341  0.1441  0.1255
  180SOPE   H9120544   6.871   1.674   7.271 -0.4690 -1.0437  1.1476
  180SOPE  C21020545   7.020   1.704   7.412 -0.2310  0.5340  0.0190
  180SOPE  H10120546   7.048   1.598   7.412 -2.9362 -0.2487  1.8554
  180SOPE  C21120547   7.097   1.781   7.513 -0.0490  0.3088 -0.2583
  180SOPE  H11R20548   7.123   1.885   7.486 -1.2342  0.1045 -2.2768
  180SOPE  H11S20549   7.192   1.725   7.523  1.6229  2.6730 -2.4159
  180SOPE  C21220550   7.024   1.788   7.646  0.0878 -0.0270 -0.4724
  180SOPE  H12R20551   7.015   1.684   7.685  0.8478 -0.1187 -0.5285
  180SOPE  H12S20552   6.923   1.828   7.626  0.6213  0.4431 -2.3814
  180SOPE  C21320553   7.082   1.889   7.747 -0.7574 -0.2099  0.3549
  180SOPE  H13R20554   7.073   1.996   7.721  2.9867  0.8449  3.1538
  180SOPE  H13S20555   7.189   1.864   7.760 -0.5007  0.8161  0.2013
  180SOPE  C21420556   7.016   1.861   7.883  0.3595  0.2134 -0.2184
  180SOPE  H14R20557   7.053   1.761   7.912 -1.3892 -0.5306 -0.4754
  180SOPE  H14S20558   6.905   1.857   7.879  0.4112 -0.5436 -1.2905
  180SOPE  C21520559   7.073   1.961   7.989  0.1836  0.6411 -0.4007
  180SOPE  H15R20560   7.019   2.056   7.967  0.4400  0.9636  0.3718
  180SOPE  H15S20561   7.180   1.984   7.973  0.0774  0.5949 -1.2092
  180SOPE  C21620562   7.047   1.923   8.132  0.1769 -0.0071  0.5729
  180SOPE  H16R20563   7.108   1.832   8.150 -0.9788 -0.9403 -0.1472
  180SOPE  H16S20564   6.941   1.892   8.147  0.9262 -1.9051  2.2841
  180SOPE  C21720565   7.089   2.022   8.237 -0.2102  0.0920  0.6217
  180SOPE  H17R20566   7.015   2.104   8.235 -0.4261 -0.1143 -0.3079
  180SOPE  H17S20567   7.184   2.062   8.197 -1.9062  0.0592 -3.7106
  180SOPE  C21820568   7.100   1.969   8.379  0.8616 -0.4380 -0.3578
  180SOPE  H18R20569   7.164   2.030   8.446  0.5078 -0.4281 -0.0244
  180SOPE  H18S20570   7.140   1.866   8.386  0.7025 -0.5508 -1.0892
  180SOPE  H18T20571   7.003   1.965   8.433  1.5564  1.5475  1.1157
  180SOPE   C3320572   7.001   1.350   7.062 -0.2954  0.3614  0.6751
  180SOPE   H3X20573   7.089   1.416   7.074  0.3773 -0.5449  0.7548
  180SOPE   H3Y20574   7.030   1.243   7.075  0.1091  0.4760  0.7146
  180SOPE   C3420575   6.899   1.399   7.162  0.1562 -0.2143 -0.5308
  180SOPE   H4X20576   6.800   1.367   7.122 -0.9299  2.0358  0.3066
  180SOPE   H4Y20577   6.901   1.510   7.166  1.2301 -0.2470 -0.0088
  180SOPE   C3520578   6.928   1.340   7.301 -0.2962  0.4130  0.3072
  180SOPE   H5X20579   7.032   1.374   7.319  0.1002  0.8960 -2.5406
  180SOPE   H5Y20580   6.938   1.230   7.303 -1.2599  0.3277  0.9422
  180SOPE   C3620581   6.840   1.395   7.410 -1.1512 -0.1428 -0.1744
  180SOPE   H6X20582   6.737   1.353   7.411 -0.7954 -1.0330  0.0653
  180SOPE   H6Y20583   6.829   1.505   7.398  1.6629  0.3680  1.5105
  180SOPE   C3720584   6.900   1.378   7.552 -0.1483 -0.1119  0.1967
  180SOPE   H7X20585   6.996   1.432   7.563  0.5987 -1.4189  0.2658
  180SOPE   H7Y20586   6.917   1.270   7.576  1.2443 -0.3153 -1.6032
  180SOPE   C3820587   6.813   1.456   7.654 -0.0438  0.2210  0.3508
  180SOPE   H8X20588   6.707   1.438   7.623  0.8423 -1.1831 -1.9876
  180SOPE   H8Y20589   6.825   1.566   7.646  0.8633  0.0334 -0.8907
  180SOPE   C3920590   6.847   1.419   7.801  0.4107  0.5080  0.3871
  180SOPE   H9X20591   6.957   1.424   7.809  0.4183  0.0253  0.5751
  180SOPE   H9Y20592   6.804   1.321   7.829  0.5228  0.1124 -0.8103
  180SOPE  C31020593   6.795   1.538   7.888  0.3185  0.5201 -0.2712
  180SOPE  H10X20594   6.687   1.555   7.868 -0.1374 -1.6335  0.1968
  180SOPE  H10Y20595   6.861   1.624   7.862 -0.3022  1.1691  0.2692
  180SOPE  C31120596   6.813   1.518   8.042 -0.3283 -0.0542  0.1350
  180SOPE  H11X20597   6.923   1.525   8.061 -0.6696  2.2811  1.3583
  180SOPE  H11Y20598   6.768   1.424   8.080 -1.2036 -0.4041 -1.7034
  180SOPE  C31220599   6.761   1.642   8.106  0.2774 -0.1852  0.5408
  180SOPE  H12X20600   6.663   1.689   8.083  1.5117  1.0686 -2.4016
  180SOPE  H12Y20601   6.843   1.716   8.102  2.1264 -2.2419 -0.5110
  180SOPE  C31320602   6.750   1.600   8.249  0.2538 -0.4234 -0.1817
  180SOPE  H13X20603   6.833   1.531   8.276  1.0952  0.7851  0.3685
  180SOPE  H13Y20604   6.655   1.544   8.258 -1.7399  2.9832  0.9185
  180SOPE  C31420605   6.749   1.712   8.355  0.2463 -0.2427 -0.8488
  180SOPE  H14X20606   6.842   1.772   8.350  0.8920 -1.1071  0.5645
  180SOPE  H14Y20607   6.741   1.666   8.456 -3.4210  0.8547 -0.5464
  180SOPE  C31520608   6.628   1.805   8.338 -0.1352 -0.6445  0.3198
  180SOPE  H15X20609   6.534   1.746   8.335 -0.3352 -0.3369  0.5393
  180SOPE  H15Y20610   6.640   1.860   8.242  0.6946 -0.9165  0.2591
  180SOPE  C31620611   6.635   1.917   8.447  0.5970  0.0286 -0.4575
  180SOPE  H16X20612   6.698   2.004   8.420  0.9831  0.4233  1.6428
  180SOPE  H16Y20613   6.682   1.872   8.537  0.8679  2.4123  0.6258
  180SOPE  C31720614   6.492   1.970   8.493 -0.1754  0.7989 -0.1698
  180SOPE  H17X20615   6.427   1.886   8.523  0.5148 -0.0054 -0.8844
  180SOPE  H17Y20616   6.446   2.018   8.403 -0.4944  0.0162 -0.4221
  180SOPE  C31820617   6.503   2.061   8.612  0.4753  0.2926 -0.3530
  180SOPE  H18X20618   6.405   2.065   8.665  0.1507 -1.9228 -0.7343
  180SOPE  H18Y20619   6.539   2.160   8.579  0.6225  0.7604  1.1827
  180SOPE  H18Z20620   6.576   2.034   8.691  1.0315  0.9960 -0.6237
  181SOPE     N20621   0.208   4.803   6.279 -0.5188  0.5259 -0.3034
  181SOPE   HN120622   0.149   4.888   6.292 -1.0311 -0.0666  1.3955
  181SOPE   HN220623   0.164   4.750   6.201 -1.9026 -1.0691  1.5143
  181SOPE   HN320624   0.196   4.747   6.366 -1.8981 -0.4786 -1.1187
  181SOPE   C1220625   0.348   4.848   6.252  0.3017  0.4525 -0.1220
  181SOPE  H12A20626   0.388   4.764   6.192 -0.6835  0.0901 -0.2768
  181SOPE  H12B20627   0.393   4.857   6.353 -0.0524  0.0901  0.0696
  181SOPE   C1120628   0.331   4.976   6.174 -0.8256 -0.6353 -0.4690
  181SOPE  H11A20629   0.294   4.958   6.071 -1.0436 -0.4483 -0.4238
  181SOPE  H11B20630   0.431   5.022   6.160  0.1060 -2.0805  1.2728
  181SOPE     P20631   0.240   5.215   6.179 -0.2918 -0.6150  0.4409
  181SOPE   O1320632   0.218   5.214   6.032 -0.4281 -0.0184  0.3801
  181SOPE   O1420633   0.366   5.281   6.227 -0.1209  0.5687 -0.3627
  181SOPE   O1220634   0.243   5.067   6.243  0.4897 -0.2254  0.1664
  181SOPE   O1120635   0.110   5.281   6.239 -0.4495 -0.0266  0.0311
  181SOPE    C120636  -0.019   5.233   6.209 -0.4920 -1.4820  0.4561
  181SOPE    HA20637  -0.030   5.123   6.199 -0.5955 -1.2672 -2.0793
  181SOPE    HB20638  -0.048   5.291   6.119  0.6220  2.2228  2.3976
  181SOPE    C220639  -0.125   5.259   6.321 -0.2913  0.4621  1.0943
  181SOPE    HS20640  -0.193   5.172   6.327 -1.3679  1.2682  0.6022
  181SOPE   O2120641  -0.206   5.374   6.281 -0.2509 -0.0032  0.6378
  181SOPE   C2120642  -0.330   5.385   6.319 -0.4379  0.2261  0.2877
  181SOPE   O2220643  -0.397   5.301   6.383  0.0598 -0.2832 -0.4224
  181SOPE   C2220644  -0.398   5.511   6.263  0.3116  0.5916 -0.9481
  181SOPE   H2R20645  -0.503   5.480   6.250 -0.4579  2.1125  1.3591
  181SOPE   H2S20646  -0.352   5.531   6.163  0.7285 -2.2722 -1.3670
  181SOPE    C320647  -0.061   5.281   6.460 -0.2212  0.0950  0.2199
  181SOPE    HX20648   0.004   5.369   6.439  0.3193 -0.2740  0.3467
  181SOPE    HY20649   0.014   5.202   6.482  1.8608  0.8598 -3.6509
  181SOPE   O3120650  -0.150   5.317   6.567  0.1481  0.0237  0.0733
  181SOPE   C3120651  -0.080   5.363   6.671  0.7400 -0.0259 -0.3384
  181SOPE   O3220652   0.043   5.367   6.680  0.2584  0.1332  0.2088
  181SOPE   C3220653  -0.183   5.418   6.774 -0.3158 -0.5097  0.1347
  181SOPE   H2X20654  -0.267   5.347   6.788 -2.6178  1.9042 -0.8686
  181SOPE   H2Y20655  -0.226   5.507   6.723  0.7092  0.1860  0.4744
  181SOPE   C2320656  -0.378   5.641   6.342  0.2716 -0.0977  0.2617
  181SOPE   H3R20657  -0.452   5.645   6.425 -0.6976 -1.3481 -0.5388
  181SOPE   H3S20658  -0.407   5.720   6.270 -1.0523 -0.5626  0.2686
  181SOPE   C2420659  -0.235   5.670   6.394  0.5345 -0.8526 -0.0325
  181SOPE   H4R20660  -0.224   5.592   6.473 -3.4237 -2.4863 -0.9666
  181SOPE   H4S20661  -0.162   5.662   6.310  0.3874  1.7474 -0.4377
  181SOPE   C2520662  -0.227   5.804   6.469  0.2557 -0.4609  0.3409
  181SOPE   H5R20663  -0.121   5.836   6.478  1.1189 -3.1877  0.2339
  181SOPE   H5S20664  -0.288   5.877   6.411  1.2583 -1.9192 -2.6610
  181SOPE   C2620665  -0.281   5.787   6.611 -0.0093 -0.0441 -0.5970
  181SOPE   H6R20666  -0.380   5.737   6.607  0.1367 -0.5189  1.3235
  181SOPE   H6S20667  -0.209   5.728   6.672  0.4218 -0.7317 -1.7363
  181SOPE   C2720668  -0.315   5.918   6.692  0.3305 -0.7750  0.3777
  181SOPE   H7R20669  -0.220   5.974   6.707  0.6953 -1.8681  2.3776
  181SOPE   H7S20670  -0.371   5.997   6.637  0.5290  0.7711  2.3304
  181SOPE   C2820671  -0.388   5.891   6.825  0.2660 -0.0038 -0.4529
  181SOPE   H8R20672  -0.400   5.992   6.871  2.3154 -0.9224  2.2134
  181SOPE   H8S20673  -0.482   5.833   6.816  0.8807 -1.4299  1.8613
  181SOPE   C2920674  -0.305   5.812   6.925 -0.7550 -0.8332  0.3195
  181SOPE   H9120675  -0.265   5.724   6.871  0.3959  0.2080 -0.5566
  181SOPE  C21020676  -0.263   5.844   7.050 -0.2172  0.3739  0.3246
  181SOPE  H10120677  -0.202   5.771   7.105  2.5546  1.1993 -1.5469
  181SOPE  C21120678  -0.288   5.971   7.126  0.4298  0.5534 -0.7015
  181SOPE  H11R20679  -0.316   6.060   7.066  0.5754 -0.5619 -2.4334
  181SOPE  H11S20680  -0.195   6.006   7.176  0.3471 -0.5551  0.2327
  181SOPE  C21220681  -0.397   5.943   7.232  0.3081 -0.3941  0.2027
  181SOPE  H12R20682  -0.360   5.864   7.301 -1.0028 -1.0268  0.1895
  181SOPE  H12S20683  -0.493   5.906   7.191 -1.1549  2.3101  1.1070
  181SOPE  C21320684  -0.418   6.064   7.325  0.0699  0.0886  0.6768
  181SOPE  H13R20685  -0.440   6.157   7.267  2.3538 -1.1611 -2.3432
  181SOPE  H13S20686  -0.325   6.084   7.382  0.9291  2.2565 -1.3446
  181SOPE  C21420687  -0.524   6.032   7.437 -0.0744 -0.0399 -1.1570
  181SOPE  H14R20688  -0.479   5.951   7.499  0.5720 -0.9386 -2.7577
  181SOPE  H14S20689  -0.610   5.989   7.381 -1.4106  0.5883  0.3775
  181SOPE  C21520690  -0.556   6.150   7.524  0.8130 -0.1844  0.1919
  181SOPE  H15R20691  -0.607   6.225   7.460  2.1155  0.3824 -0.1875
  181SOPE  H15S20692  -0.475   6.204   7.577  0.1251  1.1456 -0.0913
  181SOPE  C21620693  -0.660   6.112   7.639 -0.2176  0.3614  0.0568
  181SOPE  H16R20694  -0.594   6.058   7.709  1.6601  1.9658 -0.4565
  181SOPE  H16S20695  -0.745   6.052   7.598  0.0172 -0.6524  1.0404
  181SOPE  C21720696  -0.726   6.233   7.704  0.6967 -0.4314 -0.7163
  181SOPE  H17R20697  -0.768   6.300   7.626  1.8645  1.2342  0.0503
  181SOPE  H17S20698  -0.645   6.286   7.759  1.4979 -2.4412  0.1117
  181SOPE  C21820699  -0.827   6.188   7.810 -0.3518 -0.1783 -0.1219
  181SOPE  H18R20700  -0.856   6.272   7.877  0.9844  0.0200  0.2211
  181SOPE  H18S20701  -0.784   6.103   7.868 -1.1458 -0.3321  0.2413
  181SOPE  H18T20702  -0.911   6.153   7.746  1.0013  0.1789 -2.1493
  181SOPE   C3320703  -0.119   5.459   6.905 -0.6764 -0.3140  0.0840
  181SOPE   H3X20704  -0.200   5.511   6.962 -1.4472 -2.2561  0.8199
  181SOPE   H3Y20705  -0.038   5.535   6.906 -0.9782  0.0103  0.6529
  181SOPE   C3420706  -0.075   5.343   6.994 -0.0121 -0.2911  0.2345
  181SOPE   H4X20707   0.009   5.287   6.947  0.7353 -0.4425  1.7308
  181SOPE   H4Y20708  -0.161   5.275   7.008 -2.3280  2.4433 -0.2536
  181SOPE   C3520709  -0.026   5.396   7.131 -0.1520 -0.3541  0.4864
  181SOPE   H5X20710   0.054   5.465   7.098 -0.6482  0.4303  0.9208
  181SOPE   H5Y20711   0.024   5.315   7.189  1.3243  2.4884  3.3259
  181SOPE   C3620712  -0.114   5.475   7.223 -0.4996 -0.1796 -0.1578
  181SOPE   H6X20713  -0.195   5.415   7.269 -2.0713  0.7964 -1.5737
  181SOPE   H6Y20714  -0.166   5.558   7.168 -1.3417 -0.2050  0.5938
  181SOPE   C3720715  -0.039   5.540   7.336 -0.3707 -0.1136  0.0723
  181SOPE   H7X20716   0.016   5.615   7.276 -1.7832  0.3027 -0.7302
  181SOPE   H7Y20717   0.021   5.473   7.400 -0.9572 -1.7449 -1.0502
  181SOPE   C3820718  -0.124   5.618   7.438 -0.4748 -0.1381 -0.1893
  181SOPE   H8X20719  -0.178   5.541   7.498 -0.3794 -1.8114 -2.1962
  181SOPE   H8Y20720  -0.194   5.681   7.379 -0.2533  1.1811  0.9448
  181SOPE   C3920721  -0.036   5.703   7.529  0.1651 -0.1402  0.7485
  181SOPE   H9X20722   0.012   5.774   7.458 -2.7250 -0.2419 -1.4032
  181SOPE   H9Y20723   0.042   5.638   7.574 -0.3822 -0.1064  1.7676
  181SOPE  C31020724  -0.120   5.777   7.639 -0.2225 -0.1864  0.1663
  181SOPE  H10X20725  -0.162   5.694   7.700 -0.1763 -0.9471 -0.8243
  181SOPE  H10Y20726  -0.210   5.824   7.594 -1.4416 -0.8858  1.8232
  181SOPE  C31120727  -0.035   5.863   7.728  0.0611  0.4165 -0.5042
  181SOPE  H11X20728  -0.098   5.935   7.785  0.5926  0.3340  0.1925
  181SOPE  H11Y20729   0.037   5.927   7.673  0.5088 -0.6629 -1.2011
  181SOPE  C31220730   0.037   5.788   7.841 -0.0565 -0.5119 -0.1246
  181SOPE  H12X20731   0.109   5.723   7.787  0.0129  1.7799 -2.9503
  181SOPE  H12Y20732  -0.041   5.730   7.894 -0.4886  0.3849  0.2251
  181SOPE  C31320733   0.134   5.874   7.931  0.2140  0.4054 -0.7343
  181SOPE  H13X20734   0.084   5.970   7.960  1.2226  1.0755 -1.1911
  181SOPE  H13Y20735   0.222   5.918   7.879  0.2918 -0.4003 -1.2915
  181SOPE  C31420736   0.196   5.800   8.049  0.2681 -0.2957 -0.7945
  181SOPE  H14X20737   0.272   5.731   8.007 -1.4944 -2.2327 -0.8695
  181SOPE  H14Y20738   0.117   5.744   8.102  1.8863  1.1088  3.3092
  181SOPE  C31520739   0.270   5.899   8.145 -0.6034  0.5576  0.3478
  181SOPE  H15X20740   0.302   5.988   8.086 -1.4268 -0.7872 -2.1877
  181SOPE  H15Y20741   0.361   5.849   8.183  1.4001  2.6606 -1.5056
  181SOPE  C31620742   0.189   5.927   8.268 -0.0042 -0.2392  0.6867
  181SOPE  H16X20743   0.219   5.840   8.329  1.5876 -0.3072 -0.1640
  181SOPE  H16Y20744   0.081   5.937   8.245  0.1641 -0.4997 -0.2385
  181SOPE  C31720745   0.233   6.060   8.332 -0.9429  0.4596  0.3914
  181SOPE  H17X20746   0.185   6.146   8.282 -2.4542  0.3013  1.5392
  181SOPE  H17Y20747   0.336   6.073   8.293 -0.4510 -0.5031  1.3307
  181SOPE  C31820748   0.213   6.073   8.480 -0.2004  0.3174 -0.8662
  181SOPE  H18X20749   0.107   6.079   8.514  0.5868 -0.2606  1.7895
  181SOPE  H18Y20750   0.268   6.159   8.523 -3.1988  0.9573  1.9432
  181SOPE  H18Z20751   0.258   5.984   8.530  0.1436  2.5299  2.9642
  182SOPE     N20752   0.304   0.633   6.097  0.0894  0.5080 -0.2109
  182SOPE   HN120753   0.345   0.725   6.121  1.1436  0.2402 -0.9525
  182SOPE   HN220754   0.250   0.654   6.011  1.0088  1.0957 -0.6425
  182SOPE   HN320755   0.239   0.604   6.173  2.0870 -1.3695  0.8410
  182SOPE   C1220756   0.424   0.542   6.078 -0.3865 -0.0197  0.4179
  182SOPE  H12A20757   0.477   0.567   5.983 -0.6698  0.4364  0.3795
  182SOPE  H12B20758   0.384   0.439   6.081  1.8115 -0.8989  0.6464
  182SOPE   C1120759   0.527   0.558   6.194 -0.1610 -0.5241 -0.7239
  182SOPE  H11A20760   0.613   0.493   6.167  0.8617  0.4334  0.2079
  182SOPE  H11B20761   0.489   0.516   6.289  1.8596  2.2024  1.3807
  182SOPE     P20762   0.684   0.742   6.281 -0.2786  0.0421  0.2823
  182SOPE   O1320763   0.706   0.884   6.249  0.9588  0.2727 -0.2595
  182SOPE   O1420764   0.793   0.636   6.275 -0.7369  0.7313  0.3210
  182SOPE   O1220765   0.560   0.693   6.194  0.3378 -0.0643 -0.1112
  182SOPE   O1120766   0.625   0.730   6.425 -0.3030  0.1659 -0.3133
  182SOPE    C120767   0.510   0.820   6.448  0.1167  0.1802  0.2418
  182SOPE    HA20768   0.422   0.784   6.390  0.8989  0.3920 -1.1077
  182SOPE    HB20769   0.528   0.928   6.427  1.2017 -0.0631 -0.1504
  182SOPE    C220770   0.466   0.822   6.593  0.0104  0.3197 -0.3351
  182SOPE    HS20771   0.380   0.891   6.604 -0.1301 -0.0278  0.8536
  182SOPE   O2120772   0.587   0.861   6.672 -0.6477  0.2132 -0.4172
  182SOPE   C2120773   0.558   0.926   6.793 -0.9471  0.6001 -0.0285
  182SOPE   O2220774   0.451   0.953   6.836  0.5965 -0.0770 -0.0962
  182SOPE   C2220775   0.682   0.939   6.877  0.0859  0.8024  0.1533
  182SOPE   H2R20776   0.771   0.959   6.814 -0.5910 -0.3063 -1.1652
  182SOPE   H2S20777   0.695   0.854   6.947  1.0104  2.4623  2.0432
  182SOPE    C320778   0.407   0.677   6.628  0.1262 -0.6953 -0.0617
  182SOPE    HX20779   0.481   0.601   6.596 -0.8211 -1.7854  0.3090
  182SOPE    HY20780   0.324   0.666   6.554  0.7955 -0.0742 -0.9249
  182SOPE   O3120781   0.375   0.664   6.767 -0.3398 -0.0821  0.0948
  182SOPE   C3120782   0.247   0.698   6.802 -0.0424  0.0532 -0.6511
  182SOPE   O3220783   0.163   0.742   6.728  0.5687  0.2313 -0.1993
  182SOPE   C3220784   0.237   0.669   6.954  0.0489 -0.2893  0.4005
  182SOPE   H2X20785   0.324   0.609   6.988 -0.4392 -2.8549 -2.6411
  182SOPE   H2Y20786   0.151   0.600   6.965 -2.1933  2.1970 -0.8932
  182SOPE   C2320787   0.673   1.066   6.969  0.2778 -0.1347 -0.0297
  182SOPE   H3R20788   0.610   1.138   6.914  1.0804  0.7983  0.2531
  182SOPE   H3S20789   0.778   1.101   6.974  0.9808 -1.9811 -1.2063
  182SOPE   C2420790   0.617   1.044   7.116  0.0496 -0.0378  0.5948
  182SOPE   H4R20791   0.520   0.991   7.117 -1.2965  2.3743  1.1197
  182SOPE   H4S20792   0.684   0.971   7.166 -0.4301  0.4072  1.9102
  182SOPE   C2520793   0.596   1.177   7.192 -0.2326  0.4818  0.5591
  182SOPE   H5R20794   0.677   1.247   7.161 -1.1800  0.3386 -2.3695
  182SOPE   H5S20795   0.504   1.231   7.160 -1.1882 -1.4681 -0.0370
  182SOPE   C2620796   0.598   1.163   7.344  0.7815 -0.5486 -0.1094
  182SOPE   H6R20797   0.564   1.063   7.379 -0.5318 -0.4837 -1.1515
  182SOPE   H6S20798   0.701   1.174   7.384 -0.0759  2.0994  1.5132
  182SOPE   C2720799   0.515   1.269   7.416  0.5348  0.0231  0.6481
  182SOPE   H7R20800   0.543   1.372   7.387 -1.8369  0.0833 -1.5701
  182SOPE   H7S20801   0.406   1.264   7.401  0.6495 -2.5647  0.3624
  182SOPE   C2820802   0.527   1.256   7.572 -0.0726  0.6648 -0.2342
  182SOPE   H8R20803   0.444   1.310   7.623 -0.3069  0.5435 -0.4869
  182SOPE   H8S20804   0.522   1.151   7.606  1.4728  0.2921 -1.0938
  182SOPE   C2920805   0.653   1.309   7.628  0.0546 -0.7748 -0.7347
  182SOPE   H9120806   0.731   1.232   7.638 -0.5392 -1.4005 -0.8638
  182SOPE  C21020807   0.665   1.429   7.687 -0.1629  1.0003  0.1582
  182SOPE  H10120808   0.769   1.456   7.708  0.4736 -1.0927 -0.2033
  182SOPE  C21120809   0.558   1.536   7.696 -0.4207 -0.6865  0.0392
  182SOPE  H11R20810   0.479   1.512   7.621 -0.1694 -0.0764 -0.4224
  182SOPE  H11S20811   0.599   1.629   7.650 -1.1140 -0.2158  0.3773
  182SOPE  C21220812   0.495   1.556   7.830  0.0822  0.7008 -0.3067
  182SOPE  H12R20813   0.414   1.483   7.851 -0.7169  1.0232 -2.2701
  182SOPE  H12S20814   0.443   1.653   7.820  1.5326  1.3280 -2.1152
  182SOPE  C21320815   0.592   1.567   7.951  0.0800 -0.4098 -0.2916
  182SOPE  H13R20816   0.658   1.654   7.936  1.1586 -1.2321 -0.3700
  182SOPE  H13S20817   0.637   1.466   7.961  2.1070  0.4984  0.0058
  182SOPE  C21420818   0.525   1.596   8.086 -0.5491 -0.1374  1.0956
  182SOPE  H14R20819   0.432   1.657   8.074 -0.4779 -0.5957 -2.3129
  182SOPE  H14S20820   0.600   1.637   8.158 -0.8583  1.6904  0.4183
  182SOPE  C21520821   0.479   1.471   8.157 -0.3106  0.4944  0.8531
  182SOPE  H15R20822   0.548   1.384   8.152 -0.0610  0.7077  0.5924
  182SOPE  H15S20823   0.385   1.440   8.107  0.7228 -1.5194  0.0947
  182SOPE  C21620824   0.461   1.495   8.304 -0.1854  0.6360  0.1791
  182SOPE  H16R20825   0.387   1.574   8.328  1.9546  2.2699  1.5927
  182SOPE  H16S20826   0.563   1.519   8.342 -0.2644 -0.3818  1.0652
  182SOPE  C21720827   0.409   1.372   8.381  0.3017  0.2337 -0.2937
  182SOPE  H17R20828   0.469   1.290   8.336 -0.6223  0.3058 -1.6791
  182SOPE  H17S20829   0.300   1.352   8.369  0.2985  1.3227 -2.2132
  182SOPE  C21820830   0.424   1.371   8.538  0.2582 -0.3044 -0.6946
  182SOPE  H18R20831   0.522   1.410   8.573  0.0112  0.9611 -1.3986
  182SOPE  H18S20832   0.430   1.264   8.569  0.7581 -0.0897 -0.0310
  182SOPE  H18T20833   0.334   1.420   8.580 -0.5494 -1.4099 -1.1108
  182SOPE   C3320834   0.204   0.800   7.032 -0.0296  0.2538  0.1100
  182SOPE   H3X20835   0.096   0.823   7.019 -0.3089  0.5665  2.6917
  182SOPE   H3Y20836   0.266   0.887   6.999  0.7528 -0.8116 -1.2556
  182SOPE   C3420837   0.244   0.782   7.177  0.5576 -0.3917  0.2454
  182SOPE   H4X20838   0.354   0.786   7.194  0.5898  1.0560 -0.2450
  182SOPE   H4Y20839   0.210   0.677   7.195 -1.3816  0.2917  0.6932
  182SOPE   C3520840   0.189   0.879   7.275 -0.1544 -0.5850 -0.7168
  182SOPE   H5X20841   0.086   0.908   7.244  0.1793 -2.1878 -3.5284
  182SOPE   H5Y20842   0.240   0.977   7.259  0.9824 -0.7448  1.7981
  182SOPE   C3620843   0.195   0.829   7.417 -0.2476 -0.0999  0.6442
  182SOPE   H6X20844   0.279   0.758   7.432  0.9354  1.1859  0.2006
  182SOPE   H6Y20845   0.092   0.790   7.435 -0.1770 -0.1132  1.0207
  182SOPE   C3720846   0.221   0.948   7.516 -0.0256 -0.1953  0.4779
  182SOPE   H7X20847   0.146   1.027   7.496  0.6751  0.3587 -0.0305
  182SOPE   H7Y20848   0.322   0.986   7.487 -0.9113  1.4375 -0.5644
  182SOPE   C3820849   0.212   0.905   7.666  0.8643 -0.8764  0.4873
  182SOPE   H8X20850   0.282   0.823   7.692  0.3540 -1.4179  0.1686
  182SOPE   H8Y20851   0.111   0.861   7.681  1.1315 -1.9189 -0.6441
  182SOPE   C3920852   0.238   1.035   7.753  0.7367  0.7834  0.1890
  182SOPE   H9X20853   0.182   1.121   7.710 -1.1281 -0.6466 -0.2832
  182SOPE   H9Y20854   0.347   1.051   7.735  0.4257  1.9388 -0.7051
  182SOPE  C31020855   0.206   1.022   7.910  0.0832  0.2726  0.0114
  182SOPE  H10X20856   0.277   0.943   7.943 -0.5191 -0.4465 -0.4103
  182SOPE  H10Y20857   0.102   0.992   7.933 -0.4887  2.4327  0.3823
  182SOPE  C31120858   0.236   1.147   7.992  0.3847  0.8186 -0.0473
  182SOPE  H11X20859   0.154   1.218   7.968 -0.8990 -0.6622 -0.1175
  182SOPE  H11Y20860   0.334   1.192   7.963  0.2606  1.3507  0.3461
  182SOPE  C31220861   0.243   1.129   8.150 -0.7945  0.6217 -0.3043
  182SOPE  H12X20862   0.281   1.225   8.189 -2.8115  0.8471  1.1762
  182SOPE  H12Y20863   0.319   1.049   8.167 -0.3407  1.3613  1.2876
  182SOPE  C31320864   0.115   1.089   8.209  0.3334  0.0848 -0.8400
  182SOPE  H13X20865   0.090   0.981   8.195 -1.9805  0.3280  0.9762
  182SOPE  H13Y20866   0.034   1.146   8.158 -0.9112  0.6995  1.7178
  182SOPE  C31420867   0.125   1.104   8.360  0.4085 -0.3854  0.3555
  182SOPE  H14X20868   0.032   1.062   8.403 -1.0015  2.9151  0.7052
  182SOPE  H14Y20869   0.123   1.212   8.386 -0.4691 -0.1357 -0.7096
  182SOPE  C31520870   0.240   1.039   8.426 -0.2232 -0.1887 -0.3588
  182SOPE  H15X20871   0.213   1.051   8.533 -2.2431 -2.2500 -0.5953
  182SOPE  H15Y20872   0.334   1.082   8.385  1.0632  2.4823  4.9589
  182SOPE  C31620873   0.245   0.886   8.391  0.5921 -0.9220  0.7985
  182SOPE  H16X20874   0.323   0.842   8.457  0.0789 -1.1151  1.2844
  182SOPE  H16Y20875   0.266   0.869   8.283  1.4078  1.9264  0.4682
  182SOPE  C31720876   0.118   0.805   8.427 -0.5750 -0.0136  0.0881
  182SOPE  H17X20877   0.032   0.861   8.385  0.0461  2.0743  1.5339
  182SOPE  H17Y20878   0.100   0.805   8.537 -3.2354  0.4145 -0.3112
  182SOPE  C31820879   0.127   0.661   8.371 -0.6397  0.2402  0.0989
  182SOPE  H18X20880   0.076   0.585   8.433  0.3328  0.4017  1.1064
  182SOPE  H18Y20881   0.234   0.631   8.372  0.4502  3.8629  1.7162
  182SOPE  H18Z20882   0.094   0.642   8.266 -1.7126 -2.0932  0.8288
  183SOPE     N20883   2.320   5.063   6.492  0.7950  0.1474 -0.1007
  183SOPE   HN120884   2.235   5.003   6.490 -1.2564  2.9156  0.8919
  183SOPE   HN220885   2.397   5.049   6.424  0.4728  1.8678 -0.8362
  183SOPE   HN320886   2.372   5.046   6.580 -1.6725 -0.6718  1.2689
  183SOPE   C1220887   2.273   5.207   6.495  0.1424 -0.1916 -0.6436
  183SOPE  H12A20888   2.301   5.232   6.600  0.2801 -0.9843 -0.4911
  183SOPE  H12B20889   2.165   5.205   6.473 -0.3902  1.4193  1.6411
  183SOPE   C1120890   2.355   5.298   6.397  0.2960  0.1016 -0.4123
  183SOPE  H11A20891   2.338   5.405   6.420 -0.5406 -0.0642 -0.2406
  183SOPE  H11B20892   2.302   5.284   6.301 -0.2140 -0.6516 -0.0292
  183SOPE     P20893   2.598   5.344   6.493 -0.2717 -0.3539  0.1907
  183SOPE   O1320894   2.641   5.466   6.423 -0.1387  0.5890 -0.2694
  183SOPE   O1420895   2.706   5.248   6.535  0.0278  0.1496  0.4010
  183SOPE   O1220896   2.498   5.269   6.390  0.0573 -0.5382  0.2054
  183SOPE   O1120897   2.510   5.382   6.618 -0.5271 -0.5643  0.3727
  183SOPE    C120898   2.515   5.503   6.692 -0.2752 -0.4255 -0.4101
  183SOPE    HA20899   2.416   5.539   6.726  1.0076  2.4367  0.4941
  183SOPE    HB20900   2.578   5.578   6.640  1.0386 -0.4904  1.0414
  183SOPE    C220901   2.591   5.469   6.824  0.0943 -0.0269  0.1567
  183SOPE    HS20902   2.574   5.553   6.894 -0.9450  0.0503 -0.1901
  183SOPE   O2120903   2.732   5.454   6.800 -0.3019  0.3372  0.7447
  183SOPE   C2120904   2.803   5.569   6.798 -0.9735  0.5587 -0.4955
  183SOPE   O2220905   2.764   5.684   6.822  0.1682  0.2399  0.1156
  183SOPE   C2220906   2.943   5.540   6.765  0.0659 -0.5926  0.0709
  183SOPE   H2R20907   3.002   5.633   6.761 -0.0940 -0.5450 -1.3268
  183SOPE   H2S20908   2.946   5.494   6.664  0.1146 -1.9058  0.6456
  183SOPE    C320909   2.535   5.339   6.890  0.3560  0.2835 -0.6159
  183SOPE    HX20910   2.592   5.256   6.844 -0.6301 -1.3644  1.0779
  183SOPE    HY20911   2.425   5.329   6.875  0.1686  2.4918 -0.8657
  183SOPE   O3120912   2.558   5.349   7.038 -0.0532  0.0514 -0.9001
  183SOPE   C3120913   2.676   5.314   7.084  0.0591  0.4541 -0.7673
  183SOPE   O3220914   2.769   5.262   7.029 -0.3560  0.4330 -0.0730
  183SOPE   C3220915   2.669   5.329   7.239 -0.4405 -0.1828 -0.1631
  183SOPE   H2X20916   2.639   5.238   7.296  0.6561 -0.3434  0.1710
  183SOPE   H2Y20917   2.585   5.400   7.259 -0.5571 -0.5547  0.7004
  183SOPE   C2320918   3.004   5.434   6.860  0.2264  0.1025  0.0096
  183SOPE   H3R20919   3.093   5.384   6.815 -0.7629 -1.9697  0.3178
  183SOPE   H3S20920   2.940   5.344   6.871  0.4131 -0.1768 -1.1195
  183SOPE   C2420921   3.055   5.501   6.990  0.1395 -0.1755 -0.0866
  183SOPE   H4R20922   3.124   5.584   6.962 -1.4862  2.0964  2.4053
  183SOPE   H4S20923   2.972   5.556   7.040  3.1191  3.1709  1.3433
  183SOPE   C2520924   3.121   5.407   7.083 -0.6461  0.9693 -0.4455
  183SOPE   H5R20925   3.048   5.330   7.117 -1.2965  0.7567 -2.2729
  183SOPE   H5S20926   3.206   5.360   7.028  0.3973  0.6935  1.3607
  183SOPE   C2620927   3.182   5.483   7.201 -0.5355  0.0720 -0.8821
  183SOPE   H6R20928   3.251   5.554   7.151  0.9957  0.8236  2.1703
  183SOPE   H6S20929   3.102   5.546   7.247  0.7932  1.3564 -0.2975
  183SOPE   C2720930   3.263   5.390   7.290  0.6571 -0.2205  0.4034
  183SOPE   H7R20931   3.190   5.319   7.335 -0.6186  0.7795 -0.0616
  183SOPE   H7S20932   3.341   5.333   7.234  0.2967  0.5327 -0.8719
  183SOPE   C2820933   3.337   5.463   7.410  0.9284  0.7295 -0.4219
  183SOPE   H8R20934   3.267   5.539   7.451 -0.3378 -0.4419 -0.3636
  183SOPE   H8S20935   3.351   5.382   7.485  0.7950  0.8898 -0.2227
  183SOPE   C2920936   3.459   5.528   7.357  0.2818 -0.5683  0.0223
  183SOPE   H9120937   3.450   5.554   7.250 -0.2665  0.3463  0.2840
  183SOPE  C21020938   3.581   5.566   7.407 -0.0656 -0.2895 -0.5099
  183SOPE  H10120939   3.658   5.613   7.344  3.0435 -0.6778  2.8435
  183SOPE  C21120940   3.619   5.552   7.548  0.2070  0.0360  0.0925
  183SOPE  H11R20941   3.631   5.653   7.592 -0.7735  0.4453 -0.5696
  183SOPE  H11S20942   3.725   5.519   7.551 -0.0800 -1.2635 -2.3789
  183SOPE  C21220943   3.537   5.471   7.654  0.2437  0.5391  0.0773
  183SOPE  H12R20944   3.549   5.362   7.633 -1.3477  0.3917 -0.1117
  183SOPE  H12S20945   3.430   5.499   7.647 -0.2602 -0.8662  1.7299
  183SOPE  C21320946   3.564   5.493   7.805 -0.2149  0.1822 -0.2101
  183SOPE  H13R20947   3.476   5.446   7.854  1.3347 -0.8505  1.6753
  183SOPE  H13S20948   3.563   5.601   7.831 -1.3847 -0.0595  0.7797
  183SOPE  C21420949   3.695   5.432   7.855  0.0583 -0.3121  0.0214
  183SOPE  H14R20950   3.786   5.486   7.820 -1.0086  0.3003 -1.8687
  183SOPE  H14S20951   3.710   5.325   7.828 -1.4134 -0.3374 -0.7374
  183SOPE  C21520952   3.704   5.447   8.011  1.0994 -0.2650 -0.6513
  183SOPE  H15R20953   3.618   5.394   8.057  0.9815 -1.1689 -1.8789
  183SOPE  H15S20954   3.684   5.555   8.026  1.6758  0.1089 -2.3701
  183SOPE  C21620955   3.840   5.403   8.071  0.1804 -0.4259  0.6225
  183SOPE  H16R20956   3.924   5.444   8.011 -0.0485 -0.0010  0.5889
  183SOPE  H16S20957   3.846   5.292   8.065 -1.0524 -0.4574  0.0626
  183SOPE  C21720958   3.856   5.433   8.217  0.2151  0.4067 -0.0063
  183SOPE  H17R20959   3.949   5.382   8.248 -2.0354 -3.9708 -0.0190
  183SOPE  H17S20960   3.781   5.372   8.272  0.7005  0.1795  0.4014
  183SOPE  C21820961   3.847   5.577   8.266  0.3512 -0.8115 -0.5040
  183SOPE  H18R20962   3.853   5.581   8.377  1.6089 -3.2007 -0.4621
  183SOPE  H18S20963   3.747   5.624   8.256 -0.9054 -3.0972  0.9910
  183SOPE  H18T20964   3.936   5.631   8.228  1.0625 -2.1130 -0.7108
  183SOPE   C3320965   2.800   5.379   7.300 -0.1343 -0.0286 -0.0801
  183SOPE   H3X20966   2.845   5.454   7.231 -1.6414 -1.4520 -2.6496
  183SOPE   H3Y20967   2.874   5.297   7.311  1.3121  1.6291  3.6112
  183SOPE   C3420968   2.774   5.443   7.435  0.1007 -0.8674 -0.0611
  183SOPE   H4X20969   2.719   5.382   7.509 -1.7045  1.9791  1.0358
  183SOPE   H4Y20970   2.709   5.531   7.417  2.4343  0.2423 -3.4801
  183SOPE   C3520971   2.898   5.498   7.499  0.2259  0.2543 -0.0567
  183SOPE   H5X20972   2.940   5.583   7.441  0.1271  0.8823  0.7759
  183SOPE   H5Y20973   2.957   5.404   7.493  0.8589  0.5680  1.0829
  183SOPE   C3620974   2.886   5.532   7.646 -0.5700 -0.7523  0.4198
  183SOPE   H6X20975   2.827   5.444   7.678 -1.9315  0.1371  0.4023
  183SOPE   H6Y20976   2.838   5.631   7.662 -0.8879 -0.4044 -2.3739
  183SOPE   C3720977   3.022   5.534   7.712  0.4591 -0.0417 -0.5879
  183SOPE   H7X20978   3.069   5.633   7.694  1.4374 -0.4726 -0.4244
  183SOPE   H7Y20979   3.077   5.447   7.671 -1.0552 -1.4131  0.2028
  183SOPE   C3820980   3.003   5.513   7.860 -0.2566 -0.6006 -0.1172
  183SOPE   H8X20981   2.937   5.425   7.872 -0.9520  0.0304  0.7025
  183SOPE   H8Y20982   2.956   5.599   7.911 -0.9871 -0.2868 -1.2950
  183SOPE   C3920983   3.137   5.499   7.942  0.0566 -0.5837  0.1813
  183SOPE   H9X20984   3.205   5.583   7.913 -1.1648 -0.2563 -1.8209
  183SOPE   H9Y20985   3.180   5.398   7.926  2.2823  0.4383 -0.4949
  183SOPE  C31020986   3.115   5.507   8.095  0.0311 -0.2818  0.6182
  183SOPE  H10X20987   3.028   5.445   8.124 -2.0395  1.9962 -0.5567
  183SOPE  H10Y20988   3.094   5.612   8.122  0.5258  0.2739 -1.1009
  183SOPE  C31120989   3.228   5.470   8.183 -0.6166  0.0328  0.0082
  183SOPE  H11X20990   3.314   5.531   8.148  0.8232 -2.8537 -1.6978
  183SOPE  H11Y20991   3.266   5.372   8.147  0.9665  0.7440 -0.2895
  183SOPE  C31220992   3.205   5.474   8.336 -1.0213  0.0520 -0.1971
  183SOPE  H12X20993   3.137   5.392   8.365  1.0605 -0.9863  1.9229
  183SOPE  H12Y20994   3.162   5.570   8.372  1.1555  1.8636 -2.1921
  183SOPE  C31320995   3.340   5.451   8.416  0.1982 -0.5017 -0.5728
  183SOPE  H13X20996   3.419   5.527   8.399  0.3808 -0.2112  1.4756
  183SOPE  H13Y20997   3.384   5.359   8.371 -1.2958 -1.5831  0.1473
  183SOPE  C31420998   3.321   5.431   8.573 -0.2685 -0.9669 -0.2873
  183SOPE  H14X20999   3.247   5.349   8.582 -4.1162  2.1619 -2.1731
  183SOPE  H14Y21000   3.280   5.521   8.622  0.3232 -2.1930  2.5873
  183SOPE  C31521001   3.458   5.403   8.637  0.1186  0.3726  0.5090
  183SOPE  H15X21002   3.517   5.338   8.570 -1.3546  0.9996 -1.4476
  183SOPE  H15Y21003   3.428   5.351   8.731  2.3780  0.0760  1.1052
  183SOPE  C31621004   3.534   5.531   8.687 -0.5371 -0.4156  0.1099
  183SOPE  H16X21005   3.574   5.490   8.782 -2.7386 -1.2693  0.7018
  183SOPE  H16Y21006   3.466   5.618   8.700 -0.7533 -0.4809 -0.5776
  183SOPE  C31721007   3.660   5.555   8.603 -0.4742 -1.3570 -0.3538
  183SOPE  H17X21008   3.621   5.576   8.502  2.1916  3.6560 -0.4979
  183SOPE  H17Y21009   3.739   5.477   8.601  0.8554 -0.0452 -0.0510
  183SOPE  C31821010   3.721   5.692   8.646  0.5058 -0.2875 -0.0331
  183SOPE  H18X21011   3.780   5.686   8.740 -0.2342 -1.7675  0.3507
  183SOPE  H18Y21012   3.648   5.773   8.663  0.9104 -0.1002  0.8142
  183SOPE  H18Z21013   3.799   5.727   8.575 -0.8308  0.0122 -1.3879
  184SOPE     N21014   2.323   5.811   6.229  0.2556  0.6081 -0.3866
  184SOPE   HN121015   2.414   5.769   6.201  0.3748  0.0240  0.8543
  184SOPE   HN221016   2.291   5.871   6.151 -1.1691 -1.1662 -1.1907
  184SOPE   HN321017   2.335   5.867   6.316  3.7508 -0.7660  0.1300
  184SOPE   C1221018   2.205   5.704   6.248 -0.5671  0.0274  0.0510
  184SOPE  H12A21019   2.241   5.643   6.334  1.3031 -0.3632 -0.9948
  184SOPE  H12B21020   2.212   5.645   6.154  0.6554 -1.3225  0.9646
  184SOPE   C1121021   2.072   5.768   6.281  0.5349  0.4615 -0.1128
  184SOPE  H11A21022   2.087   5.822   6.378 -2.1511  0.2021  0.4959
  184SOPE  H11B21023   1.997   5.690   6.307 -2.9954  3.9188  0.5540
  184SOPE     P21024   1.904   5.956   6.189 -0.1422  0.1760 -0.4387
  184SOPE   O1321025   1.782   5.882   6.144  0.4093  0.7454 -0.7173
  184SOPE   O1421026   1.934   6.085   6.123  0.2229  0.3269 -0.0945
  184SOPE   O1221027   2.027   5.860   6.179 -0.2605  0.4303  0.4897
  184SOPE   O1121028   1.898   5.976   6.352 -0.3092  0.2736 -0.3762
  184SOPE    C121029   1.777   6.011   6.414  0.1816  0.2987  0.4164
  184SOPE    HA21030   1.696   6.023   6.339 -0.1096  0.8973  0.8216
  184SOPE    HB21031   1.793   6.102   6.475  0.3876 -0.2615  1.2018
  184SOPE    C221032   1.745   5.899   6.522  0.5016  0.5092  0.7231
  184SOPE    HS21033   1.651   5.921   6.577 -0.8351 -1.3555 -0.7531
  184SOPE   O2121034   1.851   5.876   6.605 -0.5350  0.6765 -0.0104
  184SOPE   C2121035   1.887   5.976   6.688  0.7254 -0.2046 -0.6549
  184SOPE   O2221036   1.824   6.075   6.708  0.5053 -0.3012  0.1313
  184SOPE   C2221037   2.024   5.953   6.760  0.2493 -0.1678 -0.6351
  184SOPE   H2R21038   2.075   6.042   6.802 -0.1523 -0.7582  1.1445
  184SOPE   H2S21039   2.078   5.897   6.680 -0.7780  2.1697 -3.0520
  184SOPE    C321040   1.704   5.776   6.441  0.6060  0.6612 -0.0508
  184SOPE    HX21041   1.795   5.744   6.386  1.0852 -1.0241  1.6669
  184SOPE    HY21042   1.628   5.808   6.366  0.8233 -0.3612 -0.7180
  184SOPE   O3121043   1.654   5.670   6.519 -0.2634 -1.1040  0.1295
  184SOPE   C3121044   1.742   5.573   6.550  0.2214  0.5011 -0.6502
  184SOPE   O3221045   1.854   5.559   6.502 -0.1259 -0.1012 -0.0055
  184SOPE   C3221046   1.679   5.495   6.666  0.3167  0.2522  0.4607
  184SOPE   H2X21047   1.734   5.398   6.666  0.3265  0.2409 -1.0912
  184SOPE   H2Y21048   1.572   5.474   6.644 -0.0090 -0.9261  2.9833
  184SOPE   C2321049   2.023   5.843   6.865  0.2838  0.6332 -0.4813
  184SOPE   H3R21050   1.937   5.777   6.844  2.4035 -2.0363 -1.0187
  184SOPE   H3S21051   2.000   5.908   6.952 -0.0124  0.8094 -0.6885
  184SOPE   C2421052   2.147   5.764   6.899 -0.3848  0.6521 -0.2887
  184SOPE   H4R21053   2.169   5.701   6.810 -0.2623  0.5695 -0.2002
  184SOPE   H4S21054   2.224   5.844   6.902 -1.4412  1.7083 -1.1021
  184SOPE   C2521055   2.129   5.680   7.027  0.2942  0.6671 -0.1053
  184SOPE   H5R21056   2.099   5.747   7.111  1.2555  0.5764  0.3140
  184SOPE   H5S21057   2.041   5.613   7.014  1.5207 -1.2116  1.0254
  184SOPE   C2621058   2.252   5.598   7.061 -0.4864  0.6894 -0.5731
  184SOPE   H6R21059   2.214   5.510   7.117  1.1607  0.3654  0.0544
  184SOPE   H6S21060   2.309   5.561   6.974  0.6417 -0.1046  0.4903
  184SOPE   C2721061   2.353   5.654   7.162 -0.5483  1.0081  0.4996
  184SOPE   H7R21062   2.451   5.601   7.158 -0.2898  1.5488 -1.0691
  184SOPE   H7S21063   2.371   5.759   7.129  1.2558  0.6024  0.0920
  184SOPE   C2821064   2.296   5.668   7.301  0.4432 -0.0610  0.3084
  184SOPE   H8R21065   2.350   5.750   7.353 -1.2629  2.1141 -1.2471
  184SOPE   H8S21066   2.188   5.692   7.289 -0.4359 -3.8637  0.1059
  184SOPE   C2921067   2.321   5.537   7.376 -0.7165  0.1842  0.0887
  184SOPE   H9121068   2.294   5.449   7.316  0.9212  0.4748 -1.0910
  184SOPE  C21021069   2.384   5.515   7.495  0.0795 -0.1709 -0.5747
  184SOPE  H10121070   2.405   5.414   7.532  0.3250 -0.0870 -0.4840
  184SOPE  C21121071   2.448   5.621   7.578  0.2119 -0.0611 -1.0643
  184SOPE  H11R21072   2.441   5.724   7.536 -1.1518  0.5760  0.6810
  184SOPE  H11S21073   2.556   5.599   7.591 -0.4293 -1.8877  1.4324
  184SOPE  C21221074   2.391   5.651   7.721  0.2416  0.4482  0.9011
  184SOPE  H12R21075   2.294   5.706   7.716  1.5015  2.5346 -1.6504
  184SOPE  H12S21076   2.463   5.721   7.768  1.0278  0.6966 -0.6573
  184SOPE  C21321077   2.349   5.517   7.793 -1.0998 -0.6723 -0.2898
  184SOPE  H13R21078   2.438   5.451   7.787 -1.1732 -0.6752 -1.4156
  184SOPE  H13S21079   2.272   5.474   7.726 -1.5461  0.2160 -0.3524
  184SOPE  C21421080   2.304   5.532   7.941  0.2141  0.6064 -0.2208
  184SOPE  H14R21081   2.193   5.530   7.947  0.2914 -0.6531  0.8691
  184SOPE  H14S21082   2.353   5.626   7.975  1.5927 -1.2643  3.1964
  184SOPE  C21521083   2.359   5.421   8.040  0.0506 -0.1857  0.3723
  184SOPE  H15R21084   2.470   5.421   8.043  0.1344 -4.3896 -0.2657
  184SOPE  H15S21085   2.329   5.319   8.008 -0.4390 -0.8693  2.9022
  184SOPE  C21621086   2.314   5.453   8.178 -0.6097 -0.5043 -0.1063
  184SOPE  H16R21087   2.330   5.562   8.195  1.5223 -0.8717  0.4641
  184SOPE  H16S21088   2.380   5.402   8.251 -0.3863  1.3746  1.0444
  184SOPE  C21721089   2.175   5.408   8.207 -0.8380 -0.2355 -0.1926
  184SOPE  H17R21090   2.156   5.307   8.165 -1.0501 -0.5515  0.6433
  184SOPE  H17S21091   2.102   5.470   8.150 -0.5383 -0.2589 -0.6017
  184SOPE  C21821092   2.135   5.404   8.356 -0.3433  0.0780 -0.2986
  184SOPE  H18R21093   2.156   5.504   8.398  4.1715 -0.0823 -2.0211
  184SOPE  H18S21094   2.204   5.344   8.420 -0.1651  0.6408  0.0362
  184SOPE  H18T21095   2.028   5.373   8.361  0.0382 -1.4157 -1.0383
  184SOPE   C3321096   1.681   5.568   6.797 -0.8312  0.7812  0.2214
  184SOPE   H3X21097   1.645   5.673   6.796 -2.5242  0.2223  0.3523
  184SOPE   H3Y21098   1.791   5.567   6.813 -0.8277 -1.2452  0.1311
  184SOPE   C3421099   1.618   5.502   6.916  0.0966 -0.0696 -0.3498
  184SOPE   H4X21100   1.672   5.405   6.910 -0.1802 -0.2307 -0.2633
  184SOPE   H4Y21101   1.508   5.488   6.915  0.2074 -1.3686  1.9060
  184SOPE   C3521102   1.662   5.587   7.036  0.6601 -0.4248 -0.4576
  184SOPE   H5X21103   1.607   5.682   7.024 -2.4891 -1.9428  1.3006
  184SOPE   H5Y21104   1.773   5.594   7.037  0.6461 -0.1712  1.2672
  184SOPE   C3621105   1.625   5.521   7.167 -0.2245 -0.2914 -0.1388
  184SOPE   H6X21106   1.624   5.412   7.150  0.2737 -0.4735  0.9527
  184SOPE   H6Y21107   1.518   5.540   7.191 -0.8103 -2.9202 -0.5898
  184SOPE   C3721108   1.702   5.572   7.297 -0.2590 -0.3645 -0.1082
  184SOPE   H7X21109   1.730   5.678   7.277 -0.8283 -0.0606  0.6713
  184SOPE   H7Y21110   1.796   5.517   7.316 -0.0360 -1.0784 -3.1115
  184SOPE   C3821111   1.614   5.554   7.428 -0.1195 -0.2263  0.4568
  184SOPE   H8X21112   1.608   5.444   7.440  0.8086 -0.3631 -0.3680
  184SOPE   H8Y21113   1.512   5.597   7.416  1.1347  2.4726 -0.7668
  184SOPE   C3921114   1.669   5.613   7.557 -0.3262  0.1138 -0.7789
  184SOPE   H9X21115   1.640   5.720   7.566 -1.8484 -0.1164 -2.5323
  184SOPE   H9Y21116   1.774   5.608   7.593 -0.5539  3.8880  0.5347
  184SOPE  C31021117   1.593   5.534   7.668  0.6397  0.5860 -0.7614
  184SOPE  H10X21118   1.638   5.433   7.657 -1.4365 -0.6514  1.6460
  184SOPE  H10Y21119   1.483   5.530   7.653  0.5714  1.3777 -0.5224
  184SOPE  C31121120   1.625   5.592   7.804 -0.0932  0.3421  0.5094
  184SOPE  H11X21121   1.604   5.700   7.790 -1.9977 -0.2310 -1.4827
  184SOPE  H11Y21122   1.732   5.573   7.825  0.8565  3.7877 -0.8322
  184SOPE  C31221123   1.526   5.542   7.916  0.3728  0.6835 -0.2668
  184SOPE  H12X21124   1.517   5.431   7.915 -1.2969  0.8009 -1.5289
  184SOPE  H12Y21125   1.432   5.595   7.889  0.1940  0.7274  0.4326
  184SOPE  C31321126   1.578   5.585   8.059 -0.1208 -0.0396  0.7781
  184SOPE  H13X21127   1.605   5.693   8.054  0.6445 -0.1808  1.7339
  184SOPE  H13Y21128   1.672   5.528   8.073  0.6699  0.5972 -1.6985
  184SOPE  C31421129   1.472   5.554   8.166 -0.3358  0.8434 -0.0570
  184SOPE  H14X21130   1.457   5.444   8.161  2.8148  0.4538 -2.2687
  184SOPE  H14Y21131   1.380   5.613   8.145 -2.1978 -2.5752 -1.9580
  184SOPE  C31521132   1.517   5.583   8.312  0.6118  0.6377  0.1178
  184SOPE  H15X21133   1.536   5.689   8.339 -1.3752  1.1947 -0.5677
  184SOPE  H15Y21134   1.613   5.528   8.321  0.5063  0.2632 -0.9601
  184SOPE  C31621135   1.431   5.537   8.427  0.3239  0.2045 -0.0720
  184SOPE  H16X21136   1.395   5.434   8.406  2.5356 -1.0339  2.0080
  184SOPE  H16Y21137   1.340   5.601   8.432  1.7381  2.2409  0.4785
  184SOPE  C31721138   1.512   5.542   8.555 -0.4175  0.0513  0.2120
  184SOPE  H17X21139   1.535   5.645   8.590 -0.9708  0.2088  0.1142
  184SOPE  H17Y21140   1.612   5.503   8.525 -0.2665 -0.1164  0.9149
  184SOPE  C31821141   1.462   5.465   8.676  0.7763 -0.2601  0.3810
  184SOPE  H18X21142   1.372   5.504   8.727 -0.2227 -1.1199 -0.7046
  184SOPE  H18Y21143   1.545   5.452   8.748  1.6837 -1.4738 -0.8538
  184SOPE  H18Z21144   1.441   5.363   8.640  0.4110  1.1690 -3.7444
  185SAPI   C1221145   4.669   3.693  11.219  0.2980 -1.0098  0.3587
  185SAPI    H221146   4.765   3.749  11.219  1.2646 -2.6414  0.9210
  185SAPI    O221147   4.681   3.596  11.319 -0.5989  0.0112  0.4441
  185SAPI   HO221148   4.697   3.514  11.272  3.4481  0.7885  0.2909
  185SAPI   C1321149   4.558   3.795  11.247 -0.6805  0.1685 -0.2163
  185SAPI    H321150   4.564   3.851  11.152 -0.1277 -0.8980 -0.8241
  185SAPI    O321151   4.589   3.888  11.353  0.1368  0.3036  0.0234
  185SAPI   HO321152   4.589   3.845  11.439  0.0121 -0.0424 -0.1472
  185SAPI   C1421153   4.419   3.726  11.256 -0.6337  0.5420 -0.3796
  185SAPI    H421154   4.418   3.657  11.344 -1.8942  2.8326  1.4772
  185SAPI    O421155   4.324   3.823  11.276  0.1607 -0.1940  0.1871
  185SAPI   HO421156   4.344   3.858  11.363 -3.6322 -0.5898  1.3329
  185SAPI   C1521157   4.384   3.646  11.134  0.3891  0.6100  0.1593
  185SAPI    H521158   4.374   3.719  11.050  1.2203  0.1674 -0.3281
  185SAPI    O521159   4.263   3.579  11.148  0.3517  0.2441 -0.5880
  185SAPI   HO521160   4.200   3.646  11.176  0.1928 -0.2759  0.3326
  185SAPI   C1621161   4.501   3.551  11.104 -0.2214 -0.6079  0.1150
  185SAPI    H621162   4.508   3.472  11.182  2.6569  0.3240  0.8752
  185SAPI    O621163   4.481   3.482  10.982  0.2541  0.5193 -0.5076
  185SAPI   HO621164   4.562   3.433  10.965  0.6601  0.6691  0.9493
  185SAPI   C1121165   4.632   3.629  11.084 -0.4502  0.4890  0.3499
  185SAPI    H121166   4.621   3.712  11.011  0.7890 -1.1566 -1.8096
  185SAPI     P21167   4.853   3.587  10.932  0.5179  0.0803  0.3315
  185SAPI   O1321168   4.944   3.471  10.927 -0.3026 -0.0599  0.0983
  185SAPI   O1421169   4.910   3.723  10.965 -0.3094 -0.1661  0.6296
  185SAPI   O1221170   4.741   3.543  11.048 -0.5441  0.1023 -0.1450
  185SAPI   O1121171   4.769   3.594  10.800 -0.3604  0.4239 -0.0062
  185SAPI    C121172   4.709   3.486  10.731  0.2195  0.0722 -0.5631
  185SAPI    HA21173   4.742   3.384  10.762  1.3798  0.6749  0.2255
  185SAPI    HB21174   4.600   3.494  10.750  0.1928 -0.0582 -0.6658
  185SAPI    C221175   4.741   3.500  10.577  0.5570  0.1598  0.1119
  185SAPI    HS21176   4.684   3.422  10.523 -1.3482  1.9325 -0.5067
  185SAPI   O2121177   4.883   3.493  10.553  0.7479 -0.0220 -0.3175
  185SAPI   C2121178   4.932   3.367  10.558 -0.1847  0.6674 -0.2710
  185SAPI   O2221179   4.864   3.267  10.551  0.2653 -0.2809  0.2567
  185SAPI   C2221180   5.080   3.380  10.550 -0.3569  0.4235 -0.8082
  185SAPI   H2R21181   5.100   3.469  10.487 -0.5740  1.5740  0.7165
  185SAPI   H2S21182   5.119   3.394  10.653  0.1982 -0.1399 -0.9383
  185SAPI    C321183   4.691   3.636  10.534 -0.4970  0.0484  0.3925
  185SAPI    HX21184   4.752   3.723  10.565  1.5014 -1.2633  0.1899
  185SAPI    HY21185   4.592   3.658  10.580  0.0830  0.4376  1.4457
  185SAPI   O3121186   4.683   3.628  10.388  0.2478 -0.2361 -0.8259
  185SAPI   C3121187   4.596   3.708  10.336 -0.5816  0.2840  0.0029
  185SAPI   O3221188   4.538   3.795  10.392  0.2798 -0.2439  0.2313
  185SAPI   C3221189   4.604   3.690  10.181  0.2351 -1.2044  0.4069
  185SAPI   H2X21190   4.712   3.681  10.154  0.4120  1.2475  0.2575
  185SAPI   H2Y21191   4.565   3.781  10.131  0.7546 -0.8185  0.6939
  185SAPI   C2321192   5.155   3.263  10.484  0.1982  0.2674  0.5777
  185SAPI   H3R21193   5.131   3.251  10.376  0.7279  2.1023  0.2379
  185SAPI   H3S21194   5.123   3.166  10.529 -2.1533 -0.3633 -2.2637
  185SAPI   C2421195   5.305   3.276  10.510 -0.5389  0.0583  0.0751
  185SAPI   H4R21196   5.316   3.266  10.620  2.6692  1.0998 -0.0985
  185SAPI   H4S21197   5.349   3.376  10.493 -0.6055 -0.0711 -0.8584
  185SAPI   C2521198   5.385   3.171  10.439  0.0954 -0.3494 -0.5527
  185SAPI   H5R21199   5.425   3.089  10.501  0.7997 -0.3199 -0.9608
  185SAPI   C2621200   5.419   3.176  10.313  0.4050  0.2051  0.4884
  185SAPI   H6R21201   5.482   3.098  10.268 -1.2071  0.3111 -2.0236
  185SAPI   C2721202   5.389   3.283  10.209  0.3343 -0.1459  0.6388
  185SAPI   H7R21203   5.308   3.351  10.241  0.5286 -1.1456  3.3459
  185SAPI   H7S21204   5.353   3.229  10.119  0.8752 -0.7474  0.7796
  185SAPI   C2821205   5.508   3.367  10.167  0.3345 -0.8129  0.3122
  185SAPI   H8R21206   5.556   3.419  10.251  1.0435  0.2088 -0.7126
  185SAPI   C2921207   5.555   3.377  10.036 -0.6032 -0.1721 -0.8984
  185SAPI   H9R21208   5.639   3.446  10.016  0.0735 -0.1187  1.8873
  185SAPI  C21021209   5.500   3.307   9.920  0.8271 -0.3093  0.1241
  185SAPI  H10R21210   5.494   3.394   9.851 -0.5447 -0.8155 -0.4146
  185SAPI  H10S21211   5.396   3.276   9.942  0.8613 -0.4799  0.0463
  185SAPI  C21121212   5.585   3.201   9.853 -0.3756 -0.3277  0.3934
  185SAPI  H11R21213   5.639   3.142   9.928  0.0905  1.9807  1.9178
  185SAPI  C21221214   5.594   3.173   9.720 -0.2467  0.2825 -0.4527
  185SAPI  H12R21215   5.666   3.099   9.682  1.7587  2.2177 -0.4662
  185SAPI  C21321216   5.527   3.231   9.600  0.0393  0.6376  0.1293
  185SAPI  H13R21217   5.568   3.193   9.504  0.4777  2.6952 -0.5262
  185SAPI  H13S21218   5.537   3.342   9.596 -0.3324  0.6478 -0.6395
  185SAPI  C21421219   5.377   3.199   9.596 -1.1338  0.1983  0.2653
  185SAPI  H14R21220   5.331   3.187   9.695  0.9975 -2.2942  0.9742
  185SAPI  C21521221   5.303   3.216   9.484 -0.0449  0.2048  0.2421
  185SAPI  H15R21222   5.197   3.186   9.482  0.2951 -1.1211  1.0472
  185SAPI  C21621223   5.355   3.247   9.348 -0.4794  0.4833  0.9218
  185SAPI  H16R21224   5.451   3.304   9.350 -0.4008  0.4167 -0.3349
  185SAPI  H16S21225   5.271   3.304   9.304  0.3134  0.2812 -0.9003
  185SAPI  C21721226   5.375   3.126   9.258 -0.6073 -0.3587  0.4562
  185SAPI  H17R21227   5.289   3.060   9.233 -2.4586  2.4843 -0.8335
  185SAPI  H17S21228   5.450   3.056   9.301 -0.4013  1.7644  3.7590
  185SAPI  C21821229   5.435   3.166   9.128 -0.3243 -0.3337  0.2928
  185SAPI  H18R21230   5.504   3.090   9.087 -1.3394 -1.6171  0.9496
  185SAPI  H18S21231   5.489   3.264   9.128  0.4207 -0.7429  0.0175
  185SAPI  C21921232   5.332   3.174   9.019 -0.5639  0.4474  0.2735
  185SAPI  H19R21233   5.259   3.257   9.034  0.6310  1.3502  1.1866
  185SAPI  H19S21234   5.269   3.084   9.004 -1.1639  0.7584  0.8665
  185SAPI  C22021235   5.402   3.205   8.877  0.7571  0.1128  0.8985
  185SAPI  H20R21236   5.464   3.297   8.886  1.5362 -0.3584  0.3779
  185SAPI  H20S21237   5.316   3.230   8.812 -2.1530  0.1534  4.5651
  185SAPI  H20T21238   5.467   3.124   8.839  0.6551 -1.2321  3.4623
  185SAPI   C3321239   4.529   3.576  10.112 -0.4819  0.6687  0.6079
  185SAPI   H3X21240   4.421   3.579  10.136 -0.7924  0.6564 -0.7955
  185SAPI   H3Y21241   4.569   3.478  10.149 -0.8141  0.4716  0.4385
  185SAPI   C3421242   4.538   3.607   9.961 -0.1742  0.1236 -0.4612
  185SAPI   H4X21243   4.645   3.604   9.934  0.0683 -2.1363  0.6303
  185SAPI   H4Y21244   4.487   3.704   9.942 -0.2470  0.2208  0.2277
  185SAPI   C3521245   4.470   3.504   9.872  0.7678  0.4726 -1.0024
  185SAPI   H5X21246   4.367   3.536   9.846  0.3026  0.3331  0.5850
  185SAPI   H5Y21247   4.496   3.400   9.901  1.9597  1.0576  0.0828
  185SAPI   C3621248   4.511   3.522   9.721 -0.6863 -0.4813  0.9356
  185SAPI   H6X21249   4.622   3.526   9.719 -0.7411  1.7057 -0.5507
  185SAPI   H6Y21250   4.488   3.626   9.690  2.7626  0.0560 -0.0928
  185SAPI   C3721251   4.446   3.423   9.618 -1.0653 -0.3544 -0.1030
  185SAPI   H7X21252   4.338   3.449   9.618 -1.1331 -0.6316  0.1123
  185SAPI   H7Y21253   4.458   3.319   9.654 -1.0334 -0.6754 -1.0364
  185SAPI   C3821254   4.486   3.455   9.472 -0.0261 -0.0105  0.7753
  185SAPI   H8X21255   4.594   3.428   9.473 -0.1921 -0.7897 -0.8219
  185SAPI   H8Y21256   4.481   3.565   9.457  0.2839 -0.1274 -0.2077
  185SAPI   C3921257   4.397   3.381   9.366 -0.4222 -0.3421  0.6417
  185SAPI   H9X21258   4.292   3.410   9.388 -0.8258 -0.8194 -0.5923
  185SAPI   H9Y21259   4.403   3.271   9.380  2.3776  0.1423  3.8325
  185SAPI  C31021260   4.440   3.411   9.222 -0.1286 -0.2169  0.7349
  185SAPI  H10X21261   4.550   3.402   9.208 -0.1908 -1.6577  1.0597
  185SAPI  H10Y21262   4.406   3.514   9.200  0.0163 -0.4201 -0.4826
  185SAPI  C31121263   4.364   3.325   9.119  0.0686  0.7733  0.7168
  185SAPI  H11X21264   4.356   3.376   9.021 -0.9891 -0.4388  0.1418
  185SAPI  H11Y21265   4.257   3.303   9.144  0.2803 -1.4428 -0.1391
  185SAPI  C31221266   4.428   3.187   9.098 -0.0570  0.1586 -0.8596
  185SAPI  H12X21267   4.409   3.138   9.195 -0.2347  2.7022  0.4473
  185SAPI  H12Y21268   4.536   3.191   9.073 -0.5026 -0.2252 -3.0169
  185SAPI  C31321269   4.354   3.101   8.989  0.4748 -0.2636 -0.4778
  185SAPI  H13X21270   4.425   3.016   8.975 -0.5566 -1.0224 -1.2433
  185SAPI  H13Y21271   4.359   3.163   8.897  2.4758  0.7064  0.2516
  185SAPI  C31421272   4.215   3.043   9.019 -0.4639  0.3914  0.1225
  185SAPI  H14X21273   4.210   2.960   8.945 -1.1573  1.6050 -1.2158
  185SAPI  H14Y21274   4.137   3.121   9.007 -1.0763 -0.4272 -1.3523
  185SAPI  C31521275   4.213   2.962   9.148 -0.3576 -0.4483  0.4477
  185SAPI  H15X21276   4.204   3.036   9.231 -1.3012  2.1711 -1.9106
  185SAPI  H15Y21277   4.309   2.910   9.169 -0.4201  0.0463  2.0032
  185SAPI  C31621278   4.104   2.853   9.149  0.1258 -0.4581 -0.3030
  185SAPI  H16X21279   4.143   2.767   9.091 -0.9979 -0.3429 -1.2451
  185SAPI  H16Y21280   4.010   2.897   9.109  0.3325 -0.3257 -0.6362
  185SAPI  C31721281   4.071   2.805   9.287  0.2360  0.1509 -0.0216
  185SAPI  H17X21282   3.993   2.729   9.265 -0.8099  2.0678 -3.2951
  185SAPI  H17Y21283   4.021   2.882   9.349 -1.0494 -0.5262 -0.1919
  185SAPI  C31821284   4.194   2.744   9.365  0.3928 -0.5142  0.2096
  185SAPI  H18X21285   4.167   2.736   9.473  1.1959 -3.5926  0.2325
  185SAPI  H18Y21286   4.283   2.808   9.353  0.7344 -1.4726 -2.9067
  185SAPI  H18Z21287   4.219   2.643   9.328 -0.4178 -0.5344 -0.3048
  186SAPI   C1221288   5.566   1.529  11.011  0.5756 -0.2376 -0.1508
  186SAPI    H221289   5.495   1.592  10.954 -0.2444 -1.2230 -0.2382
  186SAPI    O221290   5.672   1.607  11.070 -0.0062  0.4486  0.0889
  186SAPI   HO221291   5.715   1.647  10.994 -1.0372 -0.0478 -0.7769
  186SAPI   C1321292   5.475   1.468  11.120 -0.4703 -0.2585  0.5313
  186SAPI    H321293   5.395   1.408  11.071 -0.4670  0.5400 -0.4596
  186SAPI    O321294   5.404   1.570  11.196 -0.6862 -0.0659  0.4059
  186SAPI   HO321295   5.477   1.606  11.247 -0.0737  0.9716 -1.1646
  186SAPI   C1421296   5.555   1.383  11.207 -0.3245 -0.3233 -0.0484
  186SAPI    H421297   5.646   1.437  11.240  0.1225  0.8758 -3.1359
  186SAPI    O421298   5.478   1.336  11.320 -0.4542 -0.3734 -0.2170
  186SAPI   HO421299   5.483   1.240  11.325  1.8593 -0.2002  2.0521
  186SAPI   C1521300   5.606   1.264  11.122  0.0733  0.3946 -0.5006
  186SAPI    H521301   5.514   1.213  11.086 -0.8213  2.0050 -0.5538
  186SAPI    O521302   5.684   1.174  11.207  0.3841  0.2898  0.7793
  186SAPI   HO521303   5.706   1.088  11.170  0.6255  1.3856 -1.7418
  186SAPI   C1621304   5.684   1.315  10.996  0.2652  0.5969 -0.7264
  186SAPI    H621305   5.777   1.368  11.025  0.5767 -0.2184 -0.2072
  186SAPI    O621306   5.705   1.206  10.919  0.5088  0.0643  0.9442
  186SAPI   HO621307   5.786   1.161  10.941 -0.3742 -1.9372  0.1888
  186SAPI   C1121308   5.605   1.414  10.916 -0.4396 -0.5794  0.4947
  186SAPI    H121309   5.513   1.362  10.883 -0.0017 -2.1076  1.6089
  186SAPI     P21310   5.635   1.527  10.667 -0.2447 -0.0042 -0.0894
  186SAPI   O1321311   5.740   1.608  10.609 -0.2099 -0.0372  0.5680
  186SAPI   O1421312   5.496   1.582  10.668  0.3128  0.4579  0.4492
  186SAPI   O1221313   5.683   1.476  10.812 -0.7287 -0.2071  0.4183
  186SAPI   O1121314   5.631   1.395  10.580 -0.3185  0.3377 -0.1069
  186SAPI    C121315   5.738   1.306  10.586  0.6563  0.3978  0.7362
  186SAPI    HA21316   5.798   1.293  10.678 -0.5129 -2.0950  1.1938
  186SAPI    HB21317   5.699   1.208  10.550 -0.2709  1.2074 -0.4867
  186SAPI    C221318   5.844   1.344  10.480 -0.1884 -0.0892  0.8665
  186SAPI    HS21319   5.901   1.434  10.512 -0.3672  0.4690 -0.3379
  186SAPI   O2121320   5.775   1.385  10.361  0.0821  0.3315  0.0983
  186SAPI   C2121321   5.854   1.444  10.273 -0.3138 -0.1528 -0.1957
  186SAPI   O2221322   5.976   1.459  10.290 -0.3172 -0.2345  0.2175
  186SAPI   C2221323   5.771   1.453  10.142 -0.4906 -0.1322  1.1748
  186SAPI   H2R21324   5.795   1.359  10.087  2.2560  0.2999  1.5948
  186SAPI   H2S21325   5.666   1.464  10.175  0.0189  3.6600  1.6959
  186SAPI    C321326   5.951   1.225  10.466  0.3118  0.1674 -0.3439
  186SAPI    HX21327   6.012   1.212  10.558 -3.2243  1.5482  2.3311
  186SAPI    HY21328   6.034   1.263  10.403  1.1166  1.5640  1.4931
  186SAPI   O3121329   5.900   1.100  10.433 -0.6421 -0.0741 -0.1659
  186SAPI   C3121330   5.894   1.069  10.302  0.1406 -0.5830  0.7951
  186SAPI   O3221331   5.904   1.147  10.209  0.3474 -0.9304  0.1654
  186SAPI   C3221332   5.860   0.923  10.282 -0.2830 -0.4683  0.8342
  186SAPI   H2X21333   5.749   0.917  10.281 -0.4428  1.8563  1.6272
  186SAPI   H2Y21334   5.887   0.868  10.375  3.0436  2.3003  1.6208
  186SAPI   C2321335   5.814   1.574  10.061 -0.1678  0.2680  0.4952
  186SAPI   H3R21336   5.924   1.589  10.067 -0.1414 -0.1435  1.0640
  186SAPI   H3S21337   5.786   1.660  10.126 -2.5914 -0.2359  0.1639
  186SAPI   C2421338   5.754   1.584   9.918 -0.5048 -0.6070 -0.2286
  186SAPI   H4R21339   5.643   1.581   9.920 -0.6907  0.8086 -4.4492
  186SAPI   H4S21340   5.799   1.499   9.864  1.6550 -0.4278  1.2278
  186SAPI   C2521341   5.802   1.706   9.848 -0.4851  0.5166 -0.4152
  186SAPI   H5R21342   5.838   1.788   9.912 -2.5051  1.1228 -0.0000
  186SAPI   C2621343   5.783   1.729   9.720 -0.4741  0.3611  0.6135
  186SAPI   H6R21344   5.802   1.831   9.685 -1.8417  0.7024  0.8551
  186SAPI   C2721345   5.714   1.635   9.622 -0.2914  0.5406 -0.1100
  186SAPI   H7R21346   5.682   1.703   9.540  1.4465  1.4873 -0.0300
  186SAPI   H7S21347   5.618   1.608   9.671 -0.9624  1.7001 -0.7648
  186SAPI   C2821348   5.808   1.520   9.573  0.8331 -0.6311  0.3031
  186SAPI   H8R21349   5.869   1.464   9.645 -0.5553 -2.0927  0.3656
  186SAPI   C2921350   5.827   1.502   9.439  0.5109 -0.2065  0.8771
  186SAPI   H9R21351   5.904   1.429   9.410 -0.8074 -1.0289 -0.6180
  186SAPI  C21021352   5.770   1.567   9.323  0.1306 -0.5687 -0.0472
  186SAPI  H10R21353   5.729   1.668   9.340 -1.4973 -1.0611 -0.8928
  186SAPI  H10S21354   5.674   1.512   9.311 -0.3697  0.0632  0.9804
  186SAPI  C21121355   5.864   1.574   9.204 -0.0141 -0.5342 -1.0290
  186SAPI  H11R21356   5.943   1.648   9.219  0.5664 -0.7230 -3.0215
  186SAPI  C21221357   5.883   1.477   9.105 -0.2243 -0.3127  0.5369
  186SAPI  H12R21358   5.972   1.486   9.040 -0.8429 -1.4058 -0.4611
  186SAPI  C21321359   5.794   1.351   9.097  0.1726  0.1585 -0.2547
  186SAPI  H13R21360   5.687   1.369   9.074 -0.1675  1.1973  1.9865
  186SAPI  H13S21361   5.791   1.296   9.194 -0.8908  2.2907  0.9479
  186SAPI  C21421362   5.834   1.265   8.985  0.0217  0.0896 -0.5196
  186SAPI  H14R21363   5.917   1.200   9.020  0.9497  0.1325 -2.5439
  186SAPI  C21521364   5.778   1.253   8.864  0.3475 -0.6096  0.9349
  186SAPI  H15R21365   5.831   1.191   8.790  0.2348 -0.7208  0.9471
  186SAPI  C21621366   5.660   1.326   8.811 -0.4122 -0.6819 -0.1114
  186SAPI  H16R21367   5.562   1.308   8.861 -0.1717 -0.6808  0.3607
  186SAPI  H16S21368   5.637   1.293   8.707 -1.2480 -3.7337  0.9790
  186SAPI  C21721369   5.692   1.474   8.798  0.7625 -0.0705  0.4131
  186SAPI  H17R21370   5.710   1.519   8.898  0.3428  0.1379  0.3998
  186SAPI  H17S21371   5.597   1.518   8.760  0.8429 -0.2453  0.0121
  186SAPI  C21821372   5.798   1.524   8.691 -0.0773 -0.2687  0.4960
  186SAPI  H18R21373   5.789   1.455   8.605 -0.5506 -0.6057  0.8081
  186SAPI  H18S21374   5.901   1.508   8.729  0.8447  1.9908 -0.9552
  186SAPI  C21921375   5.790   1.678   8.655  0.5338  0.1447  0.1492
  186SAPI  H19R21376   5.696   1.703   8.603  2.1120  0.5221 -2.6290
  186SAPI  H19S21377   5.870   1.711   8.585  0.2157 -1.0765 -0.7898
  186SAPI  C22021378   5.801   1.765   8.779 -0.2236 -0.8444  0.5945
  186SAPI  H20R21379   5.902   1.761   8.826  0.8068  2.4250 -1.2253
  186SAPI  H20S21380   5.724   1.737   8.853 -0.7246  1.8072  1.1104
  186SAPI  H20T21381   5.776   1.867   8.743  0.9744 -1.4804 -2.1547
  186SAPI   C3321382   5.940   0.851  10.167 -0.2856 -0.8747  0.3475
  186SAPI   H3X21383   6.044   0.835  10.201  0.7742 -0.6573 -2.6490
  186SAPI   H3Y21384   5.939   0.902  10.068 -0.8372  0.1903  0.8891
  186SAPI   C3421385   5.879   0.712  10.139  0.0429 -0.5727 -0.2573
  186SAPI   H4X21386   5.773   0.721  10.106  0.1258  0.5059 -0.2539
  186SAPI   H4Y21387   5.874   0.651  10.231 -1.7287 -0.7708 -0.4676
  186SAPI   C3521388   5.966   0.632  10.031 -0.1514  0.2995  0.2191
  186SAPI   H5X21389   5.917   0.536  10.003  0.0330  0.4274 -0.5222
  186SAPI   H5Y21390   6.056   0.607  10.090  0.5551  0.8849 -0.6055
  186SAPI   C3621391   6.000   0.702   9.899 -0.3233  0.4557  0.1538
  186SAPI   H6X21392   6.071   0.788   9.904 -1.3219  1.2531  0.9235
  186SAPI   H6Y21393   5.908   0.758   9.871 -1.1219 -0.3800  1.1049
  186SAPI   C3721394   6.063   0.601   9.797 -0.1530 -0.4435 -0.3165
  186SAPI   H7X21395   5.989   0.519   9.785 -1.4562  0.8544 -1.2976
  186SAPI   H7Y21396   6.161   0.560   9.830 -0.4020  0.2814  1.3855
  186SAPI   C3821397   6.091   0.660   9.663 -0.0010 -0.1708 -0.4664
  186SAPI   H8X21398   6.170   0.602   9.612 -0.8358 -2.6972  1.0150
  186SAPI   H8Y21399   6.114   0.769   9.668  1.4499 -0.4948 -0.1643
  186SAPI   C3921400   5.972   0.665   9.563 -0.0128 -0.0256  0.2872
  186SAPI   H9X21401   5.875   0.706   9.597 -1.7953 -2.5262 -1.5812
  186SAPI   H9Y21402   5.946   0.564   9.526  3.6860 -1.0397  0.2294
  186SAPI  C31021403   6.004   0.732   9.419  1.2299  0.3967 -0.6228
  186SAPI  H10X21404   6.100   0.686   9.387  0.3633 -1.7828 -0.1775
  186SAPI  H10Y21405   6.012   0.843   9.420 -0.0405  0.5000 -1.1505
  186SAPI  C31121406   5.905   0.700   9.307  0.4007 -0.7169  0.1792
  186SAPI  H11X21407   5.801   0.735   9.320  0.3301  0.5409 -3.4396
  186SAPI  H11Y21408   5.905   0.591   9.285  0.6305 -0.4720 -1.0329
  186SAPI  C31221409   5.942   0.768   9.168 -0.7269 -0.4078  0.3143
  186SAPI  H12X21410   6.019   0.701   9.125  0.1144  0.1915  0.8640
  186SAPI  H12Y21411   5.983   0.863   9.210 -1.0749 -0.4874  0.8441
  186SAPI  C31321412   5.822   0.777   9.073  0.1315 -0.2647 -0.4281
  186SAPI  H13X21413   5.740   0.840   9.114  0.6848  1.8918 -2.5236
  186SAPI  H13Y21414   5.789   0.672   9.062  3.7036 -1.4642 -0.3789
  186SAPI  C31421415   5.859   0.838   8.937 -0.1906  0.7323  0.2730
  186SAPI  H14X21416   5.886   0.945   8.949  2.1817  0.3801 -1.4005
  186SAPI  H14Y21417   5.762   0.829   8.884  0.1094  2.0744 -0.5201
  186SAPI  C31521418   5.972   0.764   8.859 -0.0645 -0.8685  0.5073
  186SAPI  H15X21419   5.942   0.658   8.867  0.6081 -1.0125  1.1952
  186SAPI  H15Y21420   6.070   0.766   8.913 -0.4325  1.6911  1.1799
  186SAPI  C31621421   5.979   0.792   8.702  0.2475  0.2878  0.2510
  186SAPI  H16X21422   5.876   0.808   8.665 -0.5260  0.4574  2.4200
  186SAPI  H16Y21423   6.017   0.703   8.648 -1.7406 -0.9798  0.9274
  186SAPI  C31721424   6.081   0.906   8.666  0.7624  0.1418 -0.0385
  186SAPI  H17X21425   6.170   0.878   8.726  1.2611  0.0262 -0.8351
  186SAPI  H17Y21426   6.032   0.995   8.711  2.1841  0.7415  0.3580
  186SAPI  C31821427   6.107   0.942   8.523  0.3932  0.1908  0.3487
  186SAPI  H18X21428   6.154   1.042   8.524  0.7132  0.0440  0.2189
  186SAPI  H18Y21429   6.012   0.953   8.466  1.2916 -1.9363 -1.6671
  186SAPI  H18Z21430   6.175   0.867   8.476 -1.8844  0.0392 -2.9324
  187SAPI   C1221431   3.153   1.754   6.341 -0.5763  0.1336  0.6868
  187SAPI    H221432   3.185   1.838   6.276  1.5345 -1.8894 -0.9514
  187SAPI    O221433   3.168   1.644   6.253 -0.3181 -0.5134 -0.1097
  187SAPI   HO221434   3.140   1.673   6.167  0.5649 -0.1378 -0.2732
  187SAPI   C1321435   3.241   1.745   6.462 -0.5199 -0.0222  0.3959
  187SAPI    H321436   3.224   1.841   6.517  0.6096  1.1455 -1.2410
  187SAPI    O321437   3.376   1.721   6.425 -0.2082 -0.1850 -0.3630
  187SAPI   HO321438   3.425   1.724   6.508 -1.2756  1.8502  0.2329
  187SAPI   C1421439   3.188   1.622   6.534  0.0347 -0.6858 -0.2955
  187SAPI    H421440   3.194   1.530   6.472 -0.3595 -0.7762 -0.1971
  187SAPI    O421441   3.262   1.587   6.655 -0.3585  0.3652 -0.0109
  187SAPI   HO421442   3.210   1.517   6.696  1.5207 -0.6129  0.7912
  187SAPI   C1521443   3.044   1.636   6.576 -0.1969  0.3766 -0.4898
  187SAPI    H521444   3.036   1.728   6.638  1.7332  1.9546 -2.4979
  187SAPI    O521445   3.000   1.526   6.655 -0.0406  0.7947  0.4220
  187SAPI   HO521446   2.906   1.515   6.635  0.7369 -2.1568 -2.0079
  187SAPI   C1621447   2.958   1.664   6.453  0.0618  0.0997 -0.3185
  187SAPI    H621448   2.968   1.576   6.386  1.9023  0.6577 -0.8031
  187SAPI    O621449   2.821   1.677   6.482 -0.4872  0.7248 -0.8517
  187SAPI   HO621450   2.778   1.753   6.443 -0.0832  1.6486  0.4779
  187SAPI   C1121451   3.014   1.789   6.387  0.5974  0.2195  0.6251
  187SAPI    H121452   3.013   1.873   6.460 -1.7500  0.0647  0.8107
  187SAPI     P21453   2.826   1.946   6.278 -0.1598  0.0343  0.0986
  187SAPI   O1321454   2.769   1.977   6.146  0.0482  0.8606 -0.0788
  187SAPI   O1421455   2.907   2.061   6.332 -0.3472  0.2538  0.5772
  187SAPI   O1221456   2.934   1.819   6.269  0.1012 -0.5225  0.1017
  187SAPI   O1121457   2.717   1.892   6.372  0.0196  0.1424 -0.5221
  187SAPI    C121458   2.624   1.970   6.432  0.0720  0.2766 -0.0266
  187SAPI    HA21459   2.593   2.061   6.377  0.9305 -0.5615 -1.9137
  187SAPI    HB21460   2.539   1.899   6.444 -0.3529  0.9683  1.1562
  187SAPI    C221461   2.663   2.001   6.574 -0.0900 -0.2509 -0.7669
  187SAPI    HS21462   2.752   2.068   6.576 -0.6697  0.5505 -1.4510
  187SAPI   O2121463   2.680   1.871   6.643  0.5273 -0.0977  0.1102
  187SAPI   C2121464   2.775   1.861   6.736 -0.0633  0.0100 -0.9849
  187SAPI   O2221465   2.873   1.939   6.743  0.6938  0.4186 -0.5003
  187SAPI   C2221466   2.737   1.744   6.829  0.8274 -0.6084  0.3600
  187SAPI   H2R21467   2.636   1.769   6.866  0.9313  2.5212 -1.2627
  187SAPI   H2S21468   2.743   1.649   6.772  0.5060  0.3999 -1.3985
  187SAPI    C321469   2.543   2.066   6.636 -0.6613 -0.2095  0.2882
  187SAPI    HX21470   2.457   1.996   6.627 -0.6544  0.0303 -1.9736
  187SAPI    HY21471   2.501   2.148   6.574 -1.8300 -1.2118 -0.2658
  187SAPI   O3121472   2.560   2.111   6.775 -0.0826  0.7046  0.5698
  187SAPI   C3121473   2.494   2.230   6.802 -0.1929  0.4601  0.9986
  187SAPI   O3221474   2.397   2.270   6.747 -0.5540 -0.3280 -0.1610
  187SAPI   C3221475   2.541   2.279   6.940 -0.0464 -0.3605  0.0616
  187SAPI   H2X21476   2.651   2.268   6.944  0.0776  1.0265  0.8013
  187SAPI   H2Y21477   2.495   2.209   7.013 -3.1600  0.5412 -0.9153
  187SAPI   C2321478   2.830   1.726   6.949  0.1026 -0.0484 -0.2236
  187SAPI   H3R21479   2.935   1.709   6.918 -0.4684 -3.2526 -0.5462
  187SAPI   H3S21480   2.797   1.629   6.994 -0.8621  0.1537 -0.4929
  187SAPI   C2421481   2.816   1.836   7.060 -0.3979 -0.5350  0.1435
  187SAPI   H4R21482   2.838   1.932   7.009 -0.3451 -0.7706 -0.2787
  187SAPI   H4S21483   2.894   1.821   7.138 -0.5808 -0.8986  0.2607
  187SAPI   C2521484   2.681   1.856   7.125  0.1555 -0.1323 -0.1123
  187SAPI   H5R21485   2.613   1.773   7.099  1.1174 -1.8655  2.6390
  187SAPI   C2621486   2.635   1.952   7.205  0.1145 -0.3082 -0.3425
  187SAPI   H6R21487   2.534   1.942   7.248  0.9209 -1.2057  1.3730
  187SAPI   C2721488   2.723   2.076   7.243  0.2501  0.1415  0.4012
  187SAPI   H7R21489   2.763   2.121   7.149  0.4365 -1.8936 -0.5138
  187SAPI   H7S21490   2.812   2.031   7.292  0.2381 -1.6881 -1.2073
  187SAPI   C2821491   2.640   2.173   7.320  0.4514 -0.3072  0.4296
  187SAPI   H8R21492   2.538   2.200   7.291  0.8019 -0.3229 -0.8510
  187SAPI   C2921493   2.680   2.243   7.424 -0.6311  0.9874  0.9711
  187SAPI   H9R21494   2.605   2.306   7.473 -0.3211  2.0821  0.0587
  187SAPI  C21021495   2.813   2.234   7.498  0.1187 -0.5373 -0.0813
  187SAPI  H10R21496   2.894   2.257   7.426 -0.6411 -1.3361 -1.2177
  187SAPI  H10S21497   2.829   2.134   7.544 -0.2847 -1.0696 -1.0795
  187SAPI  C21121498   2.834   2.341   7.604  0.3553 -0.3933 -0.6309
  187SAPI  H11R21499   2.824   2.445   7.569 -1.3042  0.1371  1.2952
  187SAPI  C21221500   2.852   2.321   7.732 -0.6411 -0.5499 -0.2531
  187SAPI  H12R21501   2.869   2.414   7.789 -2.3842 -0.4177  0.0908
  187SAPI  C21321502   2.853   2.194   7.804  0.5039  0.4444 -0.1900
  187SAPI  H13R21503   2.953   2.166   7.845  0.1724  0.8519  0.9270
  187SAPI  H13S21504   2.825   2.107   7.740 -2.7873  2.3293 -1.3947
  187SAPI  C21421505   2.747   2.203   7.923 -0.5719  0.5621  0.2350
  187SAPI  H14R21506   2.638   2.200   7.910 -0.5862  2.9269 -0.4876
  187SAPI  C21521507   2.775   2.205   8.058  0.0007 -0.3805  0.0883
  187SAPI  H15R21508   2.691   2.208   8.127  0.3023  0.2307  0.4402
  187SAPI  C21621509   2.911   2.206   8.120  0.6342 -0.1093  0.7450
  187SAPI  H16R21510   2.986   2.251   8.052 -3.3479  2.6746 -2.0739
  187SAPI  H16S21511   2.936   2.103   8.153 -0.1755 -0.8546 -0.8846
  187SAPI  C21721512   2.920   2.297   8.250  0.4655  0.4283  0.0886
  187SAPI  H17R21513   2.876   2.397   8.232 -0.4663  0.1545  0.7606
  187SAPI  H17S21514   3.028   2.314   8.267  0.0594  3.3306  0.0307
  187SAPI  C21821515   2.867   2.230   8.377  0.2652 -0.1016 -0.5520
  187SAPI  H18R21516   2.918   2.139   8.415 -0.7821  0.0701  1.3742
  187SAPI  H18S21517   2.758   2.208   8.368  0.2087 -0.6591  1.2957
  187SAPI  C21921518   2.862   2.327   8.492 -0.0378 -0.1146 -0.3780
  187SAPI  H19R21519   2.814   2.269   8.574 -1.1378  1.3202  0.0297
  187SAPI  H19S21520   2.791   2.411   8.474 -2.0273 -1.7060 -0.2393
  187SAPI  C22021521   3.008   2.368   8.536  0.4030  0.7119  0.0048
  187SAPI  H20R21522   3.043   2.458   8.481  0.6113  0.0660 -0.9283
  187SAPI  H20S21523   3.079   2.283   8.524  0.8964  0.1635  5.6040
  187SAPI  H20T21524   3.008   2.398   8.643 -1.6443  0.5412  0.0622
  187SAPI   C3321525   2.516   2.431   6.968  0.0215 -0.2057 -0.1921
  187SAPI   H3X21526   2.408   2.459   6.966 -0.3792 -1.7177 -0.3510
  187SAPI   H3Y21527   2.560   2.471   6.874 -0.1382 -0.3919 -0.3458
  187SAPI   C3421528   2.588   2.483   7.085  0.6591  0.1838 -0.0680
  187SAPI   H4X21529   2.695   2.477   7.056  0.3444 -1.2924 -0.9588
  187SAPI   H4Y21530   2.574   2.426   7.179 -0.8789 -0.3160 -0.5998
  187SAPI   C3521531   2.543   2.627   7.119 -0.0637  0.9446  0.1296
  187SAPI   H5X21532   2.434   2.616   7.133 -0.1840 -0.7695 -1.9303
  187SAPI   H5Y21533   2.562   2.692   7.031  0.7572 -1.1373 -1.2536
  187SAPI   C3621534   2.615   2.682   7.245  0.0553  0.1545 -0.0536
  187SAPI   H6X21535   2.596   2.791   7.252 -0.2476  0.1504 -0.7931
  187SAPI   H6Y21536   2.726   2.683   7.237 -0.1084  0.0268 -2.9650
  187SAPI   C3721537   2.564   2.616   7.376 -0.2311  0.0755 -0.2500
  187SAPI   H7X21538   2.600   2.511   7.375  1.4240  0.6114 -1.5991
  187SAPI   H7Y21539   2.454   2.621   7.386 -0.2728 -1.4756  0.1465
  187SAPI   C3821540   2.616   2.689   7.498  0.4922  0.5410 -0.7230
  187SAPI   H8X21541   2.603   2.799   7.506 -0.5508  0.4567 -1.2341
  187SAPI   H8Y21542   2.727   2.682   7.495  0.4500 -0.4267 -0.1964
  187SAPI   C3921543   2.559   2.635   7.632 -0.1965  0.1109 -0.3097
  187SAPI   H9X21544   2.556   2.524   7.625 -0.9964  0.2636 -2.4560
  187SAPI   H9Y21545   2.454   2.670   7.637  0.4049  1.8242  1.1030
  187SAPI  C31021546   2.637   2.672   7.759 -0.0836  0.1515 -0.2231
  187SAPI  H10X21547   2.634   2.783   7.764 -3.1788  0.0781  0.6495
  187SAPI  H10Y21548   2.741   2.634   7.749 -0.8205 -2.3919  1.5069
  187SAPI  C31121549   2.585   2.616   7.888 -0.0224  0.1602  0.5224
  187SAPI  H11X21550   2.579   2.506   7.899 -1.5161  0.0051 -1.5108
  187SAPI  H11Y21551   2.481   2.656   7.886  0.8185  2.5382  2.2659
  187SAPI  C31221552   2.651   2.688   8.016 -0.7151  0.6090 -0.1792
  187SAPI  H12X21553   2.661   2.797   7.997 -0.0840  0.2063 -2.3408
  187SAPI  H12Y21554   2.757   2.656   8.030 -0.3811  0.9438 -1.7704
  187SAPI  C31321555   2.584   2.662   8.147  0.2237  0.1915  0.1124
  187SAPI  H13X21556   2.536   2.562   8.149  0.0894  0.2198 -1.2660
  187SAPI  H13Y21557   2.497   2.732   8.158  0.5814  0.6944 -0.2142
  187SAPI  C31421558   2.687   2.655   8.261 -0.5190 -0.3125 -0.8654
  187SAPI  H14X21559   2.761   2.576   8.235  0.6117  0.7377 -0.8943
  187SAPI  H14Y21560   2.621   2.625   8.345 -0.8766 -2.9460 -2.0374
  187SAPI  C31521561   2.764   2.779   8.296 -0.2018 -0.4962  0.8534
  187SAPI  H15X21562   2.700   2.865   8.325 -0.9613 -0.8121  0.1374
  187SAPI  H15Y21563   2.824   2.828   8.217 -0.7965 -0.5516  0.3620
  187SAPI  C31621564   2.862   2.740   8.408 -0.5089 -0.0251  0.1912
  187SAPI  H16X21565   2.944   2.815   8.401 -0.4470 -0.1533 -0.5148
  187SAPI  H16Y21566   2.912   2.642   8.391 -0.7614 -0.4705  1.9660
  187SAPI  C31721567   2.811   2.753   8.554  0.3316 -0.1151  1.3229
  187SAPI  H17X21568   2.719   2.692   8.563 -1.3364  1.9756 -0.8980
  187SAPI  H17Y21569   2.787   2.861   8.563  1.9691  0.3390  0.4880
  187SAPI  C31821570   2.917   2.723   8.660 -0.6145  0.1361 -0.0885
  187SAPI  H18X21571   2.872   2.740   8.760  1.7027 -0.9441  1.1679
  187SAPI  H18Y21572   3.009   2.786   8.660 -0.5702  0.0840 -0.9227
  187SAPI  H18Z21573   2.944   2.617   8.674  0.2126  0.3197 -0.2485
  188SAPI   C1221574   3.671   5.435   6.483 -0.4061 -0.7167  0.3596
  188SAPI    H221575   3.651   5.413   6.591 -2.0873 -0.2722  0.1599
  188SAPI    O221576   3.560   5.386   6.409 -0.9014  0.2851  0.3831
  188SAPI   HO221577   3.578   5.292   6.399 -1.1371  0.1575  1.1114
  188SAPI   C1321578   3.684   5.587   6.462  0.3842 -0.5678 -0.6370
  188SAPI    H321579   3.771   5.612   6.527 -0.8910 -0.1568  0.9401
  188SAPI    O321580   3.573   5.667   6.514 -0.4272  0.7445 -0.3959
  188SAPI   HO321581   3.593   5.760   6.501  1.5584  0.2634 -0.9399
  188SAPI   C1421582   3.720   5.612   6.312 -0.3366 -0.2601  0.3504
  188SAPI    H421583   3.637   5.574   6.248  1.8863 -2.4635 -1.3734
  188SAPI    O421584   3.743   5.754   6.290 -0.6414  0.2502 -0.4129
  188SAPI   HO421585   3.660   5.794   6.260  0.7175  2.1896 -1.7187
  188SAPI   C1521586   3.840   5.536   6.265 -0.2713 -0.0166  0.4543
  188SAPI    H521587   3.927   5.569   6.326 -0.8084 -1.3584  2.0009
  188SAPI    O521588   3.862   5.556   6.129 -0.5785  0.1330  0.3092
  188SAPI   HO521589   3.927   5.626   6.114  0.4049 -1.0766 -1.3279
  188SAPI   C1621590   3.829   5.383   6.302 -0.2486  0.0732 -0.7347
  188SAPI    H621591   3.747   5.343   6.239 -1.0754  1.4907 -0.5986
  188SAPI    O621592   3.953   5.308   6.269  0.3999 -0.0234 -0.0569
  188SAPI   HO621593   4.030   5.350   6.308  0.2748 -0.0282  0.1985
  188SAPI   C1121594   3.803   5.363   6.449  0.4781  0.3117 -0.4642
  188SAPI    H121595   3.882   5.399   6.518 -1.8616 -0.7379  2.8845
  188SAPI     P21596   3.847   5.124   6.568  0.2388 -0.1304  0.0086
  188SAPI   O1321597   3.979   5.185   6.606 -0.2814 -0.3800  0.2906
  188SAPI   O1421598   3.858   4.985   6.512  0.1393  0.2320  0.1800
  188SAPI   O1221599   3.768   5.221   6.464  0.2884  0.0729 -0.0562
  188SAPI   O1121600   3.749   5.110   6.681  0.1735  0.1288  0.2503
  188SAPI    C121601   3.782   5.137   6.818 -0.1809  0.0041 -0.8239
  188SAPI    HA21602   3.889   5.157   6.838  0.1630  0.9352 -3.4631
  188SAPI    HB21603   3.717   5.220   6.853  2.8780  2.9776 -1.9540
  188SAPI    C221604   3.750   5.016   6.906 -0.6586 -0.2377 -0.1368
  188SAPI    HS21605   3.642   4.990   6.899 -0.5339 -0.1580 -3.0919
  188SAPI   O2121606   3.797   5.053   7.030  0.3035  0.6017 -0.2231
  188SAPI   C2121607   3.707   5.104   7.116 -0.0512  0.1502  0.1486
  188SAPI   O2221608   3.601   5.147   7.088 -0.3267  0.0545  0.6506
  188SAPI   C2221609   3.759   5.093   7.258  0.3462  0.1769 -0.5111
  188SAPI   H2R21610   3.855   5.148   7.261 -0.9363  2.4547 -0.5508
  188SAPI   H2S21611   3.689   5.146   7.326  0.5860  1.4828 -1.2692
  188SAPI    C321612   3.834   4.890   6.856  0.4003  0.3691  0.5100
  188SAPI    HX21613   3.931   4.920   6.810 -0.4834  1.1154 -0.9271
  188SAPI    HY21614   3.761   4.846   6.785  0.4621  0.2151  0.5421
  188SAPI   O3121615   3.860   4.792   6.965  0.4228  0.6422 -0.4281
  188SAPI   C3121616   3.753   4.726   7.021 -0.1868  0.1382 -0.2294
  188SAPI   O3221617   3.631   4.746   6.990 -0.2364  0.1046  0.0929
  188SAPI   C3221618   3.804   4.615   7.106 -0.1425  0.7342  0.2855
  188SAPI   H2X21619   3.864   4.648   7.194  1.5919 -1.1104 -0.1564
  188SAPI   H2Y21620   3.870   4.565   7.032 -1.7697  1.7326 -1.8545
  188SAPI   C2321621   3.773   4.949   7.307  0.0128  0.4475  0.2521
  188SAPI   H3R21622   3.838   4.900   7.232  1.6610  0.8787  1.3499
  188SAPI   H3S21623   3.672   4.906   7.293  0.6932 -0.9698 -0.3717
  188SAPI   C2421624   3.833   4.922   7.447  0.7264 -0.3425 -0.2885
  188SAPI   H4R21625   3.909   5.001   7.467 -0.4450  0.3445  1.5873
  188SAPI   H4S21626   3.889   4.826   7.445  1.4902 -0.0108  2.7339
  188SAPI   C2521627   3.728   4.915   7.553 -0.2400  0.2503  0.4157
  188SAPI   H5R21628   3.664   5.005   7.560 -0.0682  0.6631 -2.7128
  188SAPI   C2621629   3.716   4.812   7.639  0.1950 -0.2449 -0.0771
  188SAPI   H6R21630   3.637   4.823   7.715 -1.1137  3.1490 -1.7646
  188SAPI   C2721631   3.795   4.682   7.637  0.2934  0.0016 -0.2458
  188SAPI   H7R21632   3.831   4.651   7.536 -0.4696 -0.1208 -0.4847
  188SAPI   H7S21633   3.728   4.596   7.659 -1.8143  1.4342 -0.9569
  188SAPI   C2821634   3.906   4.679   7.729 -0.4400 -0.1558 -0.2015
  188SAPI   H8R21635   3.996   4.729   7.689  2.2025 -4.1192  0.5191
  188SAPI   C2921636   3.914   4.623   7.851 -0.3906 -0.8758 -0.1171
  188SAPI   H9R21637   4.002   4.640   7.915 -1.2944  1.0714  0.6687
  188SAPI  C21021638   3.798   4.558   7.924 -0.3331  0.1880  0.6454
  188SAPI  H10R21639   3.840   4.456   7.939 -1.8230 -0.3702  1.1924
  188SAPI  H10S21640   3.703   4.556   7.867  0.9319 -1.6837 -1.4676
  188SAPI  C21121641   3.774   4.621   8.053 -0.5360  0.2270  0.8713
  188SAPI  H11R21642   3.801   4.727   8.068 -0.2158 -0.1974  3.5281
  188SAPI  C21221643   3.735   4.548   8.156 -0.5161  0.2073 -0.7831
  188SAPI  H12R21644   3.709   4.599   8.250  1.0346  1.2758 -0.9031
  188SAPI  C21321645   3.719   4.397   8.151  0.8473  0.5919 -0.0168
  188SAPI  H13R21646   3.801   4.343   8.099 -0.2445  0.1233 -1.2858
  188SAPI  H13S21647   3.622   4.383   8.099  1.5392  1.5283 -1.5881
  188SAPI  C21421648   3.702   4.349   8.294  0.2136  0.4880  0.1364
  188SAPI  H14R21649   3.780   4.285   8.338  0.0300  0.0667 -0.1511
  188SAPI  C21521650   3.597   4.371   8.379  0.4225 -0.0433 -0.5469
  188SAPI  H15R21651   3.598   4.321   8.477  2.3507 -0.0191 -0.5333
  188SAPI  C21621652   3.473   4.449   8.344 -0.0418  0.1638  1.0571
  188SAPI  H16R21653   3.379   4.391   8.349  0.4187 -0.3537  4.3300
  188SAPI  H16S21654   3.479   4.486   8.239 -0.5080 -1.4132  0.4652
  188SAPI  C21721655   3.453   4.576   8.436 -0.2070 -0.7029  0.1415
  188SAPI  H17R21656   3.357   4.622   8.405 -0.0321 -1.2312 -1.1902
  188SAPI  H17S21657   3.535   4.651   8.426 -0.0543 -1.0240 -1.1054
  188SAPI  C21821658   3.432   4.538   8.585  0.8077 -0.3627 -0.1357
  188SAPI  H18R21659   3.522   4.496   8.634 -0.3302  0.1239  2.4603
  188SAPI  H18S21660   3.348   4.466   8.587  2.1686 -1.9456  2.2997
  188SAPI  C21921661   3.386   4.659   8.664  0.2204 -0.5240 -0.2557
  188SAPI  H19R21662   3.387   4.632   8.772  0.9192 -0.5866 -0.2731
  188SAPI  H19S21663   3.280   4.678   8.638  0.1909 -2.2304 -1.4697
  188SAPI  C22021664   3.470   4.797   8.655 -0.1476  0.3939  0.0807
  188SAPI  H20R21665   3.465   4.824   8.547  1.4869  1.5108  0.2695
  188SAPI  H20S21666   3.577   4.780   8.680  0.4841 -0.3400 -2.9145
  188SAPI  H20T21667   3.433   4.886   8.709 -0.5903  0.3922 -0.2103
  188SAPI   C3321668   3.689   4.519   7.150 -0.4420  0.2456  0.1968
  188SAPI   H3X21669   3.661   4.448   7.069 -0.3073 -1.9773  2.0220
  188SAPI   H3Y21670   3.598   4.574   7.182 -0.2135  1.3496 -1.0109
  188SAPI   C3421671   3.720   4.438   7.266  0.3885  0.1496  0.5992
  188SAPI   H4X21672   3.641   4.380   7.319  2.2671 -1.9852  1.1529
  188SAPI   H4Y21673   3.764   4.502   7.346  1.3018 -0.0926  0.3036
  188SAPI   C3521674   3.829   4.340   7.253 -1.0112  0.1722  0.8172
  188SAPI   H5X21675   3.922   4.400   7.240 -0.4082 -0.8621  0.3533
  188SAPI   H5Y21676   3.814   4.279   7.162 -1.8559  0.1711  0.9565
  188SAPI   C3621677   3.860   4.256   7.374 -0.1221  0.0982 -0.2411
  188SAPI   H6X21678   3.906   4.161   7.340 -1.1628 -0.1178 -1.0717
  188SAPI   H6Y21679   3.767   4.229   7.427  0.5270  0.3652  1.0517
  188SAPI   C3721680   3.965   4.312   7.484  0.3822  0.3146 -0.2581
  188SAPI   H7X21681   3.899   4.397   7.512  0.0260  0.0506 -0.2971
  188SAPI   H7Y21682   4.066   4.337   7.445  1.3034 -1.5977  0.8064
  188SAPI   C3821683   3.971   4.233   7.616 -0.7749 -0.1040 -0.3018
  188SAPI   H8X21684   4.028   4.143   7.586  4.4352  2.8060  0.2021
  188SAPI   H8Y21685   3.874   4.201   7.659 -0.5516  0.7557  0.8827
  188SAPI   C3921686   4.045   4.302   7.724  0.5185  0.4838 -0.3584
  188SAPI   H9X21687   3.984   4.388   7.760 -1.4747 -1.0386  0.0055
  188SAPI   H9Y21688   4.142   4.345   7.690  0.1483  1.8379  0.2495
  188SAPI  C31021689   4.087   4.207   7.842 -0.0172  0.0937  0.4079
  188SAPI  H10X21690   4.132   4.112   7.808  1.4830  0.1614  2.1351
  188SAPI  H10Y21691   3.989   4.183   7.888  0.0248 -1.5596 -0.3392
  188SAPI  C31121692   4.189   4.269   7.936  0.6015 -0.0520 -0.4178
  188SAPI  H11X21693   4.260   4.331   7.878 -1.1503  3.1550  0.7586
  188SAPI  H11Y21694   4.253   4.198   7.993 -0.0867  1.1581  1.9145
  188SAPI  C31221695   4.127   4.355   8.052 -0.4946  0.3856 -0.0998
  188SAPI  H12X21696   4.047   4.297   8.103  0.2876 -2.6483 -2.1277
  188SAPI  H12Y21697   4.073   4.440   8.005 -1.3516 -1.2969 -2.2960
  188SAPI  C31321698   4.243   4.410   8.145 -0.5185 -0.5490 -0.6595
  188SAPI  H13X21699   4.316   4.460   8.078 -0.1241  1.5626  1.3095
  188SAPI  H13Y21700   4.286   4.319   8.192 -0.5086 -1.6373 -2.7331
  188SAPI  C31421701   4.190   4.512   8.246  0.1063  0.0697 -0.3586
  188SAPI  H14X21702   4.259   4.513   8.333  0.3283 -1.0671 -0.5097
  188SAPI  H14Y21703   4.087   4.480   8.274  1.0195 -1.4039  1.4385
  188SAPI  C31521704   4.185   4.649   8.180 -0.0215 -0.3267  0.1370
  188SAPI  H15X21705   4.107   4.646   8.101  0.0671 -0.2472  0.0452
  188SAPI  H15Y21706   4.283   4.690   8.148 -0.7604  0.5720 -1.0455
  188SAPI  C31621707   4.122   4.753   8.281  0.2320  0.1914 -0.1332
  188SAPI  H16X21708   4.040   4.701   8.335  1.0099 -1.1597 -0.2249
  188SAPI  H16Y21709   4.093   4.839   8.217  0.2058 -1.0616 -1.8390
  188SAPI  C31721710   4.220   4.811   8.390  0.3315  0.1020 -0.0855
  188SAPI  H17X21711   4.301   4.736   8.407 -1.4515 -1.2852  2.5194
  188SAPI  H17Y21712   4.149   4.836   8.471  1.0610 -0.2265  0.6598
  188SAPI  C31821713   4.287   4.932   8.331  0.2253  0.0363 -0.2857
  188SAPI  H18X21714   4.355   4.974   8.408  0.0519 -0.0515 -0.0824
  188SAPI  H18Y21715   4.206   5.005   8.307  0.3484 -0.3138 -1.7950
  188SAPI  H18Z21716   4.348   4.910   8.241  0.0490 -0.5457 -0.2614
  189POPC     N21717   4.073   6.614  11.113  0.4375  0.1097 -0.2525
  189POPC   C1221718   4.104   6.720  11.006 -0.1601  0.4564 -0.0191
  189POPC  H12A21719   4.010   6.733  10.954  1.4148  1.1386 -2.7622
  189POPC  H12B21720   4.172   6.675  10.936 -0.4047  0.9136 -0.5562
  189POPC   C1321721   4.198   6.572  11.188 -0.2657  1.0372 -0.3261
  189POPC  H13A21722   4.270   6.514  11.133 -1.2714 -0.6246  0.0781
  189POPC  H13B21723   4.251   6.664  11.210 -0.6922  1.6308 -1.7258
  189POPC  H13C21724   4.175   6.518  11.278  0.8765  1.8311  0.4533
  189POPC   C1421725   3.967   6.661  11.208 -0.0794  0.4564 -0.1891
  189POPC  H14A21726   3.944   6.580  11.275 -4.3166  2.4822  0.9924
  189POPC  H14B21727   3.999   6.744  11.269 -1.5192  0.7262  0.2228
  189POPC  H14C21728   3.883   6.680  11.144 -0.1643 -0.7433 -0.4454
  189POPC   C1521729   4.020   6.488  11.049 -0.7786 -0.0200  0.0312
  189POPC  H15A21730   4.098   6.448  10.987 -1.4599 -0.5142 -0.5130
  189POPC  H15B21731   3.940   6.495  10.977  1.3114  0.8690 -2.2417
  189POPC  H15C21732   3.998   6.414  11.125 -1.0423  0.6823  0.6505
  189POPC   C1121733   4.140   6.860  11.051 -0.8661 -0.2487 -0.3323
  189POPC  H11A21734   4.202   6.917  10.978  0.0057 -1.9484 -0.9463
  189POPC  H11B21735   4.209   6.861  11.138 -2.5561  1.7170  1.0320
  189POPC     P21736   3.927   7.000  11.008 -0.2383  0.1210  0.1403
  189POPC   O1321737   3.836   7.076  11.095  0.3117  0.5927  0.0784
  189POPC   O1421738   3.867   6.899  10.921 -0.5192  0.4317  0.0369
  189POPC   O1221739   4.027   6.933  11.102 -0.1493  0.8192  0.4639
  189POPC   O1121740   4.013   7.101  10.925  0.3262  0.1718 -0.0570
  189POPC    C121741   4.045   7.076  10.786 -0.3215 -0.2802  0.2374
  189POPC    HA21742   3.999   6.984  10.746  1.7808 -2.5050  2.7522
  189POPC    HB21743   4.150   7.043  10.773 -0.3960 -1.2961  2.0483
  189POPC    C221744   4.021   7.206  10.695  0.6446  0.9940  0.2339
  189POPC    HS21745   4.018   7.288  10.770  1.4946  0.3149  1.0236
  189POPC   O2121746   3.888   7.191  10.632 -0.4245  0.6551  0.4368
  189POPC   C2121747   3.780   7.220  10.705  0.0988 -0.7602 -0.5597
  189POPC   O2221748   3.781   7.286  10.808  0.2289 -0.5145  0.3763
  189POPC   C2221749   3.666   7.140  10.641 -0.1273 -0.1978 -0.6035
  189POPC   H2R21750   3.642   7.190  10.545 -1.6374 -1.6594 -1.0166
  189POPC   H2S21751   3.574   7.159  10.700 -0.6627 -2.2806 -0.7364
  189POPC    C321752   4.130   7.214  10.586 -0.7008 -0.3250 -0.6490
  189POPC    HX21753   4.229   7.211  10.636 -0.6132 -0.8656 -0.8479
  189POPC    HY21754   4.128   7.305  10.522  1.1884  0.6150  0.5672
  189POPC   O3121755   4.123   7.095  10.508 -0.3845  0.6285 -0.2269
  189POPC   C3121756   4.029   7.102  10.405  0.5644  1.2272  0.3115
  189POPC   O3221757   3.965   7.200  10.379 -0.3551 -0.3429 -0.0676
  189POPC   C3221758   4.026   6.964  10.321  0.5078 -0.1696 -0.1240
  189POPC   H2X21759   3.982   6.881  10.382  2.8566 -2.0735 -0.9544
  189POPC   H2Y21760   4.132   6.939  10.297  1.3353  2.1494  0.9635
  189POPC   C2321761   3.695   6.988  10.626 -0.1859 -0.6799 -0.0440
  189POPC   H3R21762   3.699   6.929  10.720  0.9261  0.7459  0.8381
  189POPC   H3S21763   3.797   6.983  10.580  0.0349 -1.4779  0.5102
  189POPC   C2421764   3.597   6.915  10.538  0.0323  0.2252  0.0986
  189POPC   H4R21765   3.580   6.971  10.443  1.2652  0.2379 -0.1269
  189POPC   H4S21766   3.499   6.907  10.589 -1.0839 -1.1019 -2.1502
  189POPC   C2521767   3.638   6.769  10.501 -0.7874 -0.4032 -0.6268
  189POPC   H5R21768   3.667   6.706  10.588 -0.1176  2.9759  1.6880
  189POPC   H5S21769   3.733   6.784  10.445 -0.4441  2.3063  0.5965
  189POPC   C2621770   3.540   6.685  10.418 -0.9214 -0.0502  0.5254
  189POPC   H6R21771   3.527   6.732  10.318  0.1781 -2.0971 -0.6123
  189POPC   H6S21772   3.444   6.696  10.474 -1.1264  1.1244 -0.0437
  189POPC   C2721773   3.583   6.542  10.395 -0.4086 -0.2983  0.1453
  189POPC   H7R21774   3.566   6.478  10.484  0.2914 -1.3771 -0.4853
  189POPC   H7S21775   3.691   6.540  10.370 -0.7226 -0.1927 -1.2227
  189POPC   C2821776   3.521   6.468  10.275 -0.3202 -0.9971 -0.9312
  189POPC   H8R21777   3.573   6.371  10.260 -0.9422 -1.1457 -2.2024
  189POPC   H8S21778   3.536   6.524  10.180  0.5325  0.2820 -0.0548
  189POPC   C2921779   3.377   6.446  10.295  0.1495 -0.2677  0.2531
  189POPC   H9121780   3.350   6.371  10.371 -1.1598 -2.2185 -2.0683
  189POPC  C21021781   3.278   6.496  10.220  0.2584 -0.0978 -0.2871
  189POPC  H10121782   3.176   6.465  10.244  0.2091  0.0264 -0.3363
  189POPC  C21121783   3.294   6.596  10.111 -0.5595 -0.8899  0.4130
  189POPC  H11R21784   3.377   6.668  10.129  0.3508 -2.1120  1.1759
  189POPC  H11S21785   3.203   6.659  10.112 -0.0720 -0.1431 -0.6748
  189POPC  C21221786   3.324   6.550   9.973 -0.1487 -0.2231 -0.1738
  189POPC  H12R21787   3.238   6.482   9.956  0.9440 -1.3471 -1.3541
  189POPC  H12S21788   3.405   6.474   9.971 -0.1927 -0.2601 -0.7131
  189POPC  C21321789   3.328   6.658   9.879  0.1047 -0.1948 -0.2520
  189POPC  H13R21790   3.425   6.712   9.893 -1.1063  2.4036 -1.5088
  189POPC  H13S21791   3.245   6.729   9.901  1.0933  0.4519  1.4931
  189POPC  C21421792   3.335   6.613   9.740  0.3873 -0.0236 -0.1821
  189POPC  H14R21793   3.244   6.554   9.717  0.5168 -0.6213  0.8044
  189POPC  H14S21794   3.417   6.544   9.710  0.0358  0.6943 -2.9019
  189POPC  C21521795   3.347   6.735   9.640 -0.8145 -0.3456 -1.1430
  189POPC  H15R21796   3.441   6.788   9.667 -1.2214 -0.1166 -0.1781
  189POPC  H15S21797   3.268   6.806   9.672 -1.3465 -1.3501 -0.2106
  189POPC  C21621798   3.352   6.700   9.496 -0.1406  0.1144  0.1586
  189POPC  H16R21799   3.446   6.659   9.453 -0.6308  0.0231 -0.8451
  189POPC  H16S21800   3.349   6.796   9.439 -0.7017  0.6357  1.0533
  189POPC  C21721801   3.240   6.608   9.451  0.1880 -0.0264 -0.3837
  189POPC  H17R21802   3.146   6.653   9.491 -0.0147 -1.3214  0.6506
  189POPC  H17S21803   3.252   6.505   9.492 -1.0296 -0.2495 -0.5491
  189POPC  C21821804   3.243   6.596   9.297 -0.2286  0.2009  0.0134
  189POPC  H18R21805   3.217   6.689   9.242 -0.9108 -2.0691 -3.6331
  189POPC  H18S21806   3.167   6.525   9.257  0.4993 -0.8345  0.4472
  189POPC  H18T21807   3.340   6.551   9.269 -0.3731 -0.0248 -0.1272
  189POPC   C3321808   3.942   6.978  10.196  0.1104  0.2722 -0.4100
  189POPC   H3X21809   3.998   7.052  10.135  0.5576  0.6466  0.4433
  189POPC   H3Y21810   3.835   6.997  10.218  0.5935 -0.8711  3.2581
  189POPC   C3421811   3.940   6.840  10.122  0.2694 -0.2062 -0.3528
  189POPC   H4X21812   3.864   6.779  10.176 -1.9932  0.5200 -2.6051
  189POPC   H4Y21813   4.041   6.798  10.137  0.0932 -0.2847  0.6635
  189POPC   C3521814   3.889   6.855   9.978 -0.2710  0.4803 -0.1919
  189POPC   H5X21815   3.980   6.878   9.919 -0.6512  0.2328 -0.8776
  189POPC   H5Y21816   3.817   6.939   9.967  1.9629  2.4007 -0.5030
  189POPC   C3621817   3.837   6.716   9.925 -0.3443  0.2742 -0.6332
  189POPC   H6X21818   3.760   6.683   9.998 -0.4863  0.8026 -0.5420
  189POPC   H6Y21819   3.918   6.639   9.921  0.4724  1.1657 -1.3034
  189POPC   C3721820   3.775   6.724   9.779 -0.0169  0.6184 -0.7631
  189POPC   H7X21821   3.702   6.806   9.792 -0.7280 -0.5297  3.5479
  189POPC   H7Y21822   3.717   6.632   9.755  0.9656  0.0390 -0.9451
  189POPC   C3821823   3.886   6.751   9.671  0.6557  0.8499 -0.4078
  189POPC   H8X21824   3.963   6.673   9.685  0.6269  0.9551  0.3652
  189POPC   H8Y21825   3.924   6.852   9.698  0.8441  0.9535 -1.0551
  189POPC   C3921826   3.828   6.753   9.528 -0.8327  0.8671  0.1940
  189POPC   H9X21827   3.768   6.843   9.504  1.0929  2.0527 -0.2659
  189POPC   H9Y21828   3.770   6.658   9.517 -0.0929  0.3600  0.6546
  189POPC  C31021829   3.939   6.753   9.415 -0.4888  0.5390 -0.1549
  189POPC  H10X21830   4.019   6.680   9.439 -2.1183 -0.5460  2.1442
  189POPC  H10Y21831   3.987   6.852   9.404  0.3628  0.2467  0.8749
  189POPC  C31121832   3.870   6.709   9.284  0.4879  0.0055 -0.0012
  189POPC  H11X21833   3.796   6.789   9.262 -1.2046 -1.4423  0.4216
  189POPC  H11Y21834   3.818   6.613   9.301 -1.6640  1.2785  0.8105
  189POPC  C31221835   3.974   6.714   9.167  0.0478  0.3598 -0.8370
  189POPC  H12X21836   4.053   6.637   9.177 -0.4222 -0.3427 -2.3745
  189POPC  H12Y21837   4.031   6.807   9.189 -0.0762 -0.2991  2.5098
  189POPC  C31321838   3.911   6.709   9.025 -0.0335  0.8313  0.0929
  189POPC  H13X21839   3.823   6.777   9.024 -0.6427  0.0659  1.6664
  189POPC  H13Y21840   3.880   6.604   9.012  1.8233  0.4499 -1.4606
  189POPC  C31421841   4.013   6.750   8.914 -0.1205  0.0993 -0.0247
  189POPC  H14X21842   4.085   6.666   8.911 -0.0710  0.1557 -0.5268
  189POPC  H14Y21843   4.048   6.854   8.935  1.8667  0.0845 -2.9493
  189POPC  C31521844   3.948   6.771   8.775 -0.4156  0.1137 -1.6072
  189POPC  H15X21845   3.872   6.851   8.793 -0.7608 -0.3649 -0.9335
  189POPC  H15Y21846   3.903   6.681   8.729 -0.6831  0.1786 -1.4741
  189POPC  C31621847   4.036   6.833   8.666 -0.1012 -0.6809 -0.1239
  189POPC  H16X21848   3.993   6.849   8.565  0.5815  0.6266 -0.2096
  189POPC  H16Y21849   4.128   6.771   8.656  1.3668  1.2854  0.8933
  189POPC  H16Z21850   4.053   6.940   8.691 -2.4321  0.3234 -2.6608
  190POPC     N21851   5.580   4.025  10.893  0.2630  0.0876  0.1807
  190POPC   C1221852   5.469   3.923  10.916  0.7038  0.6368 -0.4909
  190POPC  H12A21853   5.397   3.937  10.837  1.2110  3.5253 -0.4918
  190POPC  H12B21854   5.417   3.936  11.010 -0.6879 -0.9415 -1.0295
  190POPC   C1321855   5.505   4.145  10.856 -0.5890 -0.3762  0.3262
  190POPC  H13A21856   5.457   4.130  10.761  0.4110  0.9502 -0.3918
  190POPC  H13B21857   5.446   4.182  10.939 -0.2003  0.3908  0.2545
  190POPC  H13C21858   5.563   4.234  10.840 -0.9132 -0.3604 -0.7503
  190POPC   C1421859   5.663   4.063  11.020 -0.0156 -0.2706 -0.7925
  190POPC  H14A21860   5.717   3.972  11.043  0.6103 -0.3459 -2.4481
  190POPC  H14B21861   5.729   4.147  11.010  0.1191 -0.4381 -1.3358
  190POPC  H14C21862   5.600   4.087  11.105  0.0589  1.9103 -1.3451
  190POPC   C1521863   5.669   3.996  10.779  0.3952  0.1028  0.1904
  190POPC  H15A21864   5.730   3.911  10.805  0.8988  0.7472  1.1427
  190POPC  H15B21865   5.746   4.066  10.749 -0.7731  0.6515 -1.6529
  190POPC  H15C21866   5.611   3.982  10.688 -1.4318 -1.4056  1.5413
  190POPC   C1121867   5.510   3.770  10.911  0.1291  0.7562 -0.2387
  190POPC  H11A21868   5.532   3.736  10.807  2.4239  1.9910 -0.1881
  190POPC  H11B21869   5.413   3.727  10.943 -0.0728  1.0828 -0.3992
  190POPC     P21870   5.670   3.590  11.018 -0.2693  0.0586 -0.0720
  190POPC   O1321871   5.607   3.533  11.140 -0.0502 -0.0571  0.1579
  190POPC   O1421872   5.818   3.591  11.013 -0.0699  0.3384  0.3568
  190POPC   O1221873   5.616   3.737  11.000 -0.5456 -0.4668  0.5306
  190POPC   O1121874   5.613   3.513  10.893 -0.2953 -0.3418  0.0712
  190POPC    C121875   5.704   3.464  10.795 -0.4932  0.0430 -0.3905
  190POPC    HA21876   5.668   3.367  10.753 -0.0098  0.9191 -2.9035
  190POPC    HB21877   5.807   3.440  10.828 -0.5578 -1.8534 -1.4486
  190POPC    C221878   5.724   3.575  10.688 -0.1200 -0.0986 -1.5148
  190POPC    HS21879   5.754   3.666  10.743  0.8340  0.2750 -2.6213
  190POPC   O2121880   5.617   3.581  10.590  0.1770 -0.2373 -0.2501
  190POPC   C2121881   5.604   3.703  10.529 -0.0157  0.4540 -0.2726
  190POPC   O2221882   5.652   3.806  10.574  0.2587 -0.2284 -0.1104
  190POPC   C2221883   5.512   3.692  10.411 -0.1835  0.2699  0.6148
  190POPC   H2R21884   5.417   3.649  10.448  1.4435 -0.9417  3.5199
  190POPC   H2S21885   5.560   3.627  10.333 -2.1131 -0.6806  0.1978
  190POPC    C321886   5.845   3.545  10.591  0.0567 -0.2878  0.0413
  190POPC    HX21887   5.939   3.547  10.649 -1.3401 -0.4067  2.3640
  190POPC    HY21888   5.853   3.623  10.512 -0.3518 -1.1265 -0.8437
  190POPC   O3121889   5.834   3.412  10.541  0.6257 -0.0929 -0.0105
  190POPC   C3121890   5.805   3.396  10.412  0.6655  0.1406  0.4954
  190POPC   O3221891   5.777   3.489  10.338 -0.2863  0.1482 -0.2383
  190POPC   C3221892   5.829   3.251  10.381  0.6744  0.1230  0.1996
  190POPC   H2X21893   5.746   3.193  10.425  0.6867  1.9416  2.7314
  190POPC   H2Y21894   5.923   3.226  10.436  0.1207 -2.6692 -0.0566
  190POPC   C2321895   5.479   3.827  10.345 -0.0137 -0.0182 -0.6127
  190POPC   H3R21896   5.569   3.890  10.327 -1.1393  1.9396  0.5042
  190POPC   H3S21897   5.419   3.892  10.412  0.8930  1.0660 -0.8325
  190POPC   C2421898   5.397   3.819  10.213 -0.3105 -0.2947 -0.5109
  190POPC   H4R21899   5.337   3.910  10.194 -0.3997  0.4650  3.2065
  190POPC   H4S21900   5.317   3.743  10.226  0.0968 -0.4091  1.3903
  190POPC   C2521901   5.483   3.784  10.087 -0.4551  0.4828  0.4508
  190POPC   H5R21902   5.542   3.693  10.109 -1.3544  0.0705  1.2128
  190POPC   H5S21903   5.544   3.873  10.061 -1.8936  1.1894 -0.5756
  190POPC   C2621904   5.393   3.736   9.970 -0.5663  0.3767  0.1840
  190POPC   H6R21905   5.310   3.810   9.965 -1.2778 -0.4614 -0.7108
  190POPC   H6S21906   5.358   3.632   9.991 -1.3040  0.5863 -0.0023
  190POPC   C2721907   5.455   3.733   9.827 -0.0771 -0.7970  0.6064
  190POPC   H7R21908   5.504   3.633   9.817  0.4167 -0.6825  1.7848
  190POPC   H7S21909   5.548   3.793   9.825  0.5750 -1.6949  2.6401
  190POPC   C2821910   5.372   3.773   9.712  0.1977  0.4207 -0.3411
  190POPC   H8R21911   5.430   3.810   9.625  0.7216  0.8653  0.1953
  190POPC   H8S21912   5.310   3.862   9.738 -1.3414 -0.1843 -1.8040
  190POPC   C2921913   5.280   3.656   9.685 -0.6551  0.2689  0.5805
  190POPC   H9121914   5.201   3.651   9.762 -1.2829 -2.0741 -0.1737
  190POPC  C21021915   5.270   3.583   9.573  0.2282 -0.4087  0.1330
  190POPC  H10121916   5.186   3.512   9.564  0.0626 -0.2009  0.0489
  190POPC  C21121917   5.364   3.597   9.452 -0.1475  0.1128 -0.3391
  190POPC  H11R21918   5.420   3.502   9.438 -3.0013 -1.3308 -2.5233
  190POPC  H11S21919   5.441   3.677   9.455 -1.5501  1.4357  2.4841
  190POPC  C21221920   5.292   3.609   9.318 -0.4961  0.3052 -0.6348
  190POPC  H12R21921   5.233   3.703   9.322 -1.5225 -0.2467 -2.5116
  190POPC  H12S21922   5.223   3.522   9.316  0.1209 -0.2250  0.5239
  190POPC  C21321923   5.394   3.623   9.203  0.1739  0.3945  0.1409
  190POPC  H13R21924   5.492   3.578   9.229 -0.0448 -0.0622  0.1856
  190POPC  H13S21925   5.427   3.724   9.174 -0.1291 -0.1429 -2.1870
  190POPC  C21421926   5.336   3.560   9.083 -0.1882 -0.4645  0.1406
  190POPC  H14R21927   5.296   3.462   9.113  2.2452 -1.3917  0.5020
  190POPC  H14S21928   5.410   3.534   9.004 -2.0929  0.5503 -2.0370
  190POPC  C21521929   5.235   3.642   9.002 -0.0928 -0.5443 -0.0774
  190POPC  H15R21930   5.154   3.659   9.076  1.0745  0.5924  0.9660
  190POPC  H15S21931   5.204   3.595   8.906  0.1300 -1.3742  0.2575
  190POPC  C21621932   5.285   3.787   8.973  0.3707  0.0953 -0.2013
  190POPC  H16R21933   5.378   3.777   8.913 -0.7112 -1.6034 -1.6506
  190POPC  H16S21934   5.319   3.838   9.066 -0.2102  2.4731 -1.2649
  190POPC  C21721935   5.186   3.883   8.902  0.1882  0.7868 -0.1135
  190POPC  H17R21936   5.158   3.833   8.806  0.0162  0.6955 -0.0153
  190POPC  H17S21937   5.231   3.970   8.850 -0.2552  0.0204 -1.8406
  190POPC  C21821938   5.080   3.931   8.992 -0.4853 -0.3789  0.1713
  190POPC  H18R21939   5.120   3.997   9.072  0.9167  0.2130 -1.0205
  190POPC  H18S21940   5.021   3.851   9.042  0.0128 -1.2195 -0.5790
  190POPC  H18T21941   5.005   3.986   8.931  1.4887 -0.8776 -2.7502
  190POPC   C3321942   5.865   3.226  10.236  0.2967  0.4587  0.1956
  190POPC   H3X21943   5.924   3.311  10.194  1.3207 -0.5581 -0.4510
  190POPC   H3Y21944   5.780   3.217  10.166  1.2615  1.4599 -1.1287
  190POPC   C3421945   5.954   3.100  10.212 -0.5080 -0.8190 -0.3689
  190POPC   H4X21946   5.912   3.004  10.249 -1.6953 -0.6159 -1.1681
  190POPC   H4Y21947   6.051   3.123  10.262 -2.0212  0.9684  1.8951
  190POPC   C3521948   5.993   3.088  10.062 -1.2152 -0.5682 -0.5274
  190POPC   H5X21949   5.904   3.046  10.011 -1.9709  0.8930 -0.4310
  190POPC   H5Y21950   6.072   3.010  10.064  0.8886  1.5089  0.5102
  190POPC   C3621951   6.056   3.208  10.002  1.4756 -0.2786  0.3215
  190POPC   H6X21952   6.147   3.248  10.052  0.6000 -0.0709  1.7749
  190POPC   H6Y21953   5.981   3.289   9.988  0.9306 -0.7609  0.3894
  190POPC   C3721954   6.108   3.171   9.859  0.5375 -0.2775 -0.0880
  190POPC   H7X21955   6.189   3.095   9.857 -0.2924 -1.1592 -0.5247
  190POPC   H7Y21956   6.157   3.253   9.802 -0.8064 -1.1555 -2.5960
  190POPC   C3821957   6.001   3.111   9.759  0.4682  0.0507 -0.1002
  190POPC   H8X21958   5.907   3.169   9.765 -1.3115 -2.9298  2.6817
  190POPC   H8Y21959   5.978   3.011   9.802 -1.1149  1.1260  1.6003
  190POPC   C3921960   6.049   3.097   9.612  0.5458 -0.1720  0.1164
  190POPC   H9X21961   6.120   3.014   9.596 -0.0750 -0.1473 -2.9343
  190POPC   H9Y21962   6.089   3.187   9.561  0.3492  0.5705  1.2466
  190POPC  C31021963   5.927   3.070   9.529  0.0194 -0.2684 -0.2422
  190POPC  H10X21964   5.863   3.160   9.518  0.9467  0.4228 -0.0562
  190POPC  H10Y21965   5.869   2.983   9.567  1.0488 -0.5535  0.6991
  190POPC  C31121966   5.971   3.019   9.389  0.6376  0.2873  0.1640
  190POPC  H11X21967   6.042   2.937   9.415  0.5583 -0.1779 -1.0492
  190POPC  H11Y21968   6.028   3.098   9.334  4.2692 -0.4488  2.6677
  190POPC  C31221969   5.857   2.973   9.304 -0.6219 -0.0394  0.2947
  190POPC  H12X21970   5.799   3.060   9.266  0.4727  0.3145 -0.5840
  190POPC  H12Y21971   5.787   2.903   9.355 -0.2202 -1.5321 -1.1441
  190POPC  C31321972   5.903   2.886   9.185 -0.0756  1.3428  0.4366
  190POPC  H13X21973   5.825   2.832   9.126 -1.1051  2.6723  0.5548
  190POPC  H13Y21974   5.955   2.803   9.239  2.3282  2.8994  0.5729
  190POPC  C31421975   6.004   2.942   9.085  0.6612 -0.5492 -0.4370
  190POPC  H14X21976   6.075   3.007   9.141  1.0052 -0.0836 -1.4148
  190POPC  H14Y21977   5.945   2.994   9.007  0.9143 -1.4155 -1.2100
  190POPC  C31521978   6.083   2.839   9.016 -0.0095 -0.1092  0.2701
  190POPC  H15X21979   6.000   2.773   8.982 -0.9099  1.7152 -1.1521
  190POPC  H15Y21980   6.147   2.774   9.080 -0.6825 -0.1737  0.8856
  190POPC  C31621981   6.165   2.887   8.900  0.0969 -0.3348  0.7556
  190POPC  H16X21982   6.100   2.943   8.829  2.3113 -0.0461 -1.1088
  190POPC  H16Y21983   6.221   2.809   8.844  0.8640 -0.5313  1.7732
  190POPC  H16Z21984   6.249   2.951   8.937  0.3248 -1.6177  2.5167
  191POPC     N21985   6.003   3.215   6.397  0.0131 -0.2613 -0.0020
  191POPC   C1221986   6.132   3.256   6.332  0.7892  0.6904  0.2880
  191POPC  H12A21987   6.098   3.325   6.256  1.2636 -2.6971 -3.2113
  191POPC  H12B21988   6.178   3.176   6.275  2.5838  1.5469  0.5077
  191POPC   C1321989   5.890   3.238   6.300  0.0522 -0.2311 -0.0521
  191POPC  H13A21990   5.806   3.175   6.323 -0.6178  0.6991  0.1122
  191POPC  H13B21991   5.862   3.342   6.292 -0.3928 -0.3291  0.2349
  191POPC  H13C21992   5.913   3.200   6.201  2.5997  0.9357  0.0370
  191POPC   C1421993   5.994   3.072   6.432 -0.5819  0.5636  0.2904
  191POPC  H14A21994   5.914   3.055   6.504  0.9518 -0.3489  1.8142
  191POPC  H14B21995   5.971   3.011   6.346  1.1989  1.1834 -0.6438
  191POPC  H14C21996   6.076   3.023   6.481 -0.3549 -2.4824 -2.9209
  191POPC   C1521997   5.989   3.291   6.527  0.8557 -0.1346  0.2523
  191POPC  H15A21998   5.904   3.255   6.583  1.6070  2.1536  2.9855
  191POPC  H15B21999   5.990   3.398   6.508 -1.1873 -0.3327 -1.1080
  191POPC  H15C22000   6.075   3.274   6.591  0.5613 -1.6095  0.2579
  191POPC   C1122001   6.236   3.321   6.422  0.9114  0.6767 -0.1576
  191POPC  H11A22002   6.328   3.331   6.361  0.5971  1.2826 -0.5328
  191POPC  H11B22003   6.258   3.255   6.509 -3.4167 -0.9588 -0.2004
  191POPC     P22004   6.166   3.573   6.379 -0.1252 -0.3700  0.2820
  191POPC   O1322005   6.026   3.568   6.330 -0.3653 -0.1381 -0.3285
  191POPC   O1422006   6.279   3.587   6.282 -0.1503  0.4881 -0.6718
  191POPC   O1222007   6.197   3.449   6.469 -0.2253  0.1244  0.0804
  191POPC   O1122008   6.173   3.686   6.487 -0.0659  0.3488  0.4814
  191POPC    C122009   6.094   3.658   6.604 -0.2203  0.4210  0.5268
  191POPC    HA22010   6.002   3.599   6.585  0.1557 -0.0057  0.0148
  191POPC    HB22011   6.056   3.757   6.638 -0.8189  1.7429 -3.7285
  191POPC    C222012   6.175   3.586   6.716  0.7039  0.3537 -0.5518
  191POPC    HS22013   6.198   3.478   6.703 -0.6930 -0.2644  1.7915
  191POPC   O2122014   6.113   3.606   6.850  0.5442  0.4007  0.2405
  191POPC   C2122015   6.005   3.527   6.869 -0.0584 -0.4244 -0.4104
  191POPC   O2222016   5.956   3.460   6.783  0.2314  0.3262 -0.1295
  191POPC   C2222017   5.963   3.534   7.016 -0.1430 -0.2294  0.1688
  191POPC   H2R22018   6.041   3.475   7.067 -0.2632 -0.8249 -0.3322
  191POPC   H2S22019   5.870   3.475   7.031  0.0866 -0.0829  2.3580
  191POPC    C322020   6.322   3.646   6.708 -0.5569  0.3876 -0.1837
  191POPC    HX22021   6.322   3.756   6.694  1.0835  0.2033 -1.8831
  191POPC    HY22022   6.366   3.606   6.614 -0.0035  0.5410  0.0103
  191POPC   O3122023   6.387   3.607   6.828  0.3864  0.4530 -0.1846
  191POPC   C3122024   6.523   3.609   6.821  0.4440 -0.1793  0.2557
  191POPC   O3222025   6.588   3.634   6.721 -0.1210 -0.1763  0.0016
  191POPC   C3222026   6.579   3.579   6.957  0.6471 -0.4852  0.0899
  191POPC   H2X22027   6.670   3.520   6.937  0.9481 -0.0702  0.2208
  191POPC   H2Y22028   6.508   3.514   7.013  0.1463 -1.0350 -1.1642
  191POPC   C2322029   5.950   3.675   7.073 -0.6610 -0.9886 -0.1827
  191POPC   H3R22030   5.865   3.722   7.018  0.6077  2.0493  0.3777
  191POPC   H3S22031   6.035   3.742   7.047 -2.4224  2.0866  1.6549
  191POPC   C2422032   5.925   3.672   7.217 -0.0818 -0.0637 -0.9572
  191POPC   H4R22033   6.013   3.623   7.262 -0.0154  1.9517  1.1696
  191POPC   H4S22034   5.839   3.608   7.247 -0.2329  1.3306  1.6806
  191POPC   C2522035   5.877   3.804   7.278  0.2260  0.2170  0.3740
  191POPC   H5R22036   5.799   3.863   7.226 -1.0563  1.0355  3.1748
  191POPC   H5S22037   5.964   3.871   7.297  0.5274 -0.4118  1.2624
  191POPC   C2622038   5.813   3.782   7.420 -0.3143 -0.0489  0.3948
  191POPC   H6R22039   5.728   3.716   7.394 -0.3780 -0.2178  1.0185
  191POPC   H6S22040   5.792   3.878   7.472 -3.0882 -0.5835  0.3315
  191POPC   C2722041   5.904   3.698   7.518 -0.4327 -0.3152 -0.3490
  191POPC   H7R22042   6.001   3.750   7.533 -1.1356  0.9133 -0.0180
  191POPC   H7S22043   5.933   3.603   7.467 -2.9588 -0.1524 -2.1773
  191POPC   C2822044   5.857   3.669   7.660  0.0090  0.2558  0.1059
  191POPC   H8R22045   5.936   3.606   7.707 -0.6903  0.6837  1.9062
  191POPC   H8S22046   5.764   3.609   7.659 -0.1766  0.5600 -2.2747
  191POPC   C2922047   5.817   3.800   7.735  0.0214  0.5501  0.4801
  191POPC   H9122048   5.736   3.861   7.692 -2.1498 -2.4809  0.1109
  191POPC  C21022049   5.860   3.833   7.857  0.4502 -0.1433 -0.0402
  191POPC  H10122050   5.830   3.931   7.898 -1.1168  0.5308 -2.6630
  191POPC  C21122051   5.958   3.757   7.947  0.0371 -0.2760  0.1887
  191POPC  H11R22052   6.013   3.685   7.883 -1.5362 -0.0436 -1.4748
  191POPC  H11S22053   5.906   3.706   8.031  0.8299 -0.9243  0.2877
  191POPC  C21222054   6.056   3.852   8.012 -0.9957 -0.4940 -0.0222
  191POPC  H12R22055   6.092   3.922   7.933  0.5568  0.0760  1.1607
  191POPC  H12S22056   6.145   3.797   8.050 -1.7769  0.5434  3.4375
  191POPC  C21322057   6.002   3.918   8.136  0.3219 -0.8160  0.4405
  191POPC  H13R22058   5.899   3.957   8.120  0.9001 -0.0628 -1.6633
  191POPC  H13S22059   6.065   4.006   8.164  0.2534 -1.0372  1.2960
  191POPC  C21422060   6.005   3.829   8.261  0.2635  0.5554 -0.0816
  191POPC  H14R22061   6.111   3.801   8.277 -0.2473 -1.5853 -0.2330
  191POPC  H14S22062   5.952   3.737   8.227 -0.8294  1.3783 -0.6391
  191POPC  C21522063   5.934   3.888   8.378  0.5930 -0.0199 -0.6999
  191POPC  H15R22064   5.824   3.875   8.368  0.4589 -0.7812  1.3259
  191POPC  H15S22065   5.969   3.991   8.398 -1.8477  0.7449 -0.2184
  191POPC  C21622066   5.984   3.802   8.503 -0.5923  0.0343 -0.4062
  191POPC  H16R22067   5.984   3.696   8.471  1.9023 -0.2107  0.2780
  191POPC  H16S22068   5.908   3.810   8.583 -0.3913 -0.4660 -0.1629
  191POPC  C21722069   6.124   3.846   8.564  0.3952  0.2651  0.5549
  191POPC  H17R22070   6.103   3.947   8.605  0.2925 -0.0791  1.3678
  191POPC  H17S22071   6.184   3.841   8.471 -1.2028 -0.2974 -0.4729
  191POPC  C21822072   6.196   3.740   8.658 -1.0049  0.0190 -0.5521
  191POPC  H18R22073   6.187   3.641   8.609 -2.2309  0.8521 -2.0663
  191POPC  H18S22074   6.144   3.728   8.755  3.7140  0.6976  2.1918
  191POPC  H18T22075   6.301   3.763   8.683 -1.5325  1.9749 -0.0366
  191POPC   C3322076   6.612   3.716   7.031  0.1778 -0.3061  0.2101
  191POPC   H3X22077   6.533   3.794   7.040 -0.7199 -0.9177 -2.1152
  191POPC   H3Y22078   6.703   3.749   6.978  0.8432 -1.3060  0.7335
  191POPC   C3422079   6.643   3.686   7.180 -0.7157  0.2290  0.0561
  191POPC   H4X22080   6.718   3.604   7.186 -2.1862 -1.0185  2.0006
  191POPC   H4Y22081   6.553   3.651   7.234  0.1487 -1.7589  0.2416
  191POPC   C3522082   6.696   3.808   7.250 -0.4581 -0.0265 -0.0428
  191POPC   H5X22083   6.627   3.892   7.230  1.3863  1.4144 -0.5052
  191POPC   H5Y22084   6.794   3.829   7.202 -1.0020  0.5246 -0.9224
  191POPC   C3622085   6.712   3.780   7.405  0.5741 -0.5645 -0.0523
  191POPC   H6X22086   6.762   3.681   7.407 -2.0707 -1.9797 -1.3000
  191POPC   H6Y22087   6.613   3.770   7.454  1.7455  1.9263  2.9394
  191POPC   C3722088   6.794   3.883   7.475  0.3001  0.7829 -0.4014
  191POPC   H7X22089   6.755   3.987   7.477  0.8819  0.9869  1.5172
  191POPC   H7Y22090   6.898   3.893   7.439 -0.1438  4.5258 -0.8093
  191POPC   C3822091   6.799   3.843   7.622 -0.0522 -0.1229 -0.2467
  191POPC   H8X22092   6.836   3.738   7.622 -0.0587 -0.1252 -0.3245
  191POPC   H8Y22093   6.697   3.838   7.665 -0.1304 -1.9363 -0.6132
  191POPC   C3922094   6.886   3.942   7.700 -0.0348 -0.1373 -0.3573
  191POPC   H9X22095   6.966   3.976   7.631 -0.2167 -1.2310 -1.1304
  191POPC   H9Y22096   6.943   3.890   7.780  1.3788 -0.1778 -1.3623
  191POPC  C31022097   6.823   4.069   7.768  0.6790  1.4514  0.1939
  191POPC  H10X22098   6.740   4.046   7.837  0.2989  0.0037 -0.7161
  191POPC  H10Y22099   6.778   4.132   7.687  0.8283  1.5763  0.2066
  191POPC  C31122100   6.915   4.150   7.860 -0.0848 -0.6055  0.0843
  191POPC  H11X22101   6.909   4.257   7.830 -0.1619 -0.6337 -0.0023
  191POPC  H11Y22102   7.022   4.125   7.843  0.1903 -1.5783  3.0576
  191POPC  C31222103   6.885   4.123   8.008  0.0020  0.1353  0.1599
  191POPC  H12X22104   6.783   4.163   8.023  0.4511  0.9098  1.3101
  191POPC  H12Y22105   6.961   4.181   8.065  2.9378 -1.2389 -2.1784
  191POPC  C31322106   6.868   3.979   8.052  0.6450 -1.1923 -0.1261
  191POPC  H13X22107   6.953   3.916   8.018  0.6192 -0.1326 -2.2252
  191POPC  H13Y22108   6.777   3.939   8.002  0.9817 -1.3877 -0.5846
  191POPC  C31422109   6.832   3.978   8.205  0.4827  0.2241 -0.2346
  191POPC  H14X22110   6.763   4.064   8.219 -0.8889 -0.3977 -2.8173
  191POPC  H14Y22111   6.926   4.001   8.259  0.2618  0.1771  0.1770
  191POPC  C31522112   6.760   3.850   8.238  0.2825 -0.1342  0.4184
  191POPC  H15X22113   6.692   3.815   8.158  0.2642 -3.1703  1.7164
  191POPC  H15Y22114   6.705   3.875   8.331  0.9780  1.2843  0.4701
  191POPC  C31622115   6.860   3.737   8.261  0.2299 -0.1969  0.2355
  191POPC  H16X22116   6.915   3.752   8.356 -0.5220 -0.7434  0.7673
  191POPC  H16Y22117   6.925   3.736   8.172 -0.1537 -0.9846 -0.0390
  191POPC  H16Z22118   6.802   3.642   8.266  2.1764 -1.4788 -1.2084
  192POPC     N22119   5.150   5.920   6.253  0.2777 -0.4844 -0.3375
  192POPC   C1222120   5.218   5.960   6.378  0.3410 -0.0828  0.5976
  192POPC  H12A22121   5.240   5.877   6.443  1.4160 -2.1100 -2.2974
  192POPC  H12B22122   5.158   6.032   6.433 -0.3533 -0.5859  0.5011
  192POPC   C1322123   5.044   5.826   6.292 -0.6372 -0.6336  0.1086
  192POPC  H13A22124   5.060   5.752   6.369  0.0449  1.0840  1.6630
  192POPC  H13B22125   4.963   5.889   6.326  0.1191 -0.1130  0.9885
  192POPC  H13C22126   4.999   5.793   6.200 -3.0736  1.8266  0.3721
  192POPC   C1422127   5.100   6.043   6.175 -0.2836  0.2323 -0.2532
  192POPC  H14A22128   5.177   6.116   6.156  0.5850 -0.4602  0.5470
  192POPC  H14B22129   5.059   6.006   6.082  0.4720 -1.2379 -0.0133
  192POPC  H14C22130   5.023   6.085   6.239 -0.6073 -0.5115 -0.1402
  192POPC   C1522131   5.232   5.836   6.162  0.3314 -0.4967 -0.5609
  192POPC  H15A22132   5.279   5.760   6.223 -0.3907  1.2745  2.2961
  192POPC  H15B22133   5.302   5.893   6.103  0.0856 -0.2228 -0.5871
  192POPC  H15C22134   5.164   5.786   6.095 -0.6100 -1.3345  0.9817
  192POPC   C1122135   5.340   6.054   6.373 -0.0582 -0.1299  0.0278
  192POPC  H11A22136   5.412   6.003   6.305  1.5574 -1.4320  2.6640
  192POPC  H11B22137   5.385   6.063   6.474  0.0877  3.7218 -0.3003
  192POPC     P22138   5.237   6.294   6.377  0.2585  0.1399 -0.3353
  192POPC   O1322139   5.157   6.363   6.267 -0.1785 -0.0975  0.0331
  192POPC   O1422140   5.314   6.378   6.465 -0.8843  0.4258  0.2330
  192POPC   O1222141   5.323   6.177   6.308 -0.2332 -0.4131 -0.1187
  192POPC   O1122142   5.135   6.209   6.462 -0.2487 -0.1359  1.0009
  192POPC    C122143   5.003   6.258   6.495 -0.0029  1.0834 -0.7705
  192POPC    HA22144   4.931   6.174   6.506  1.3917 -0.2661 -1.7153
  192POPC    HB22145   4.966   6.333   6.422  0.5865  1.7588 -0.3797
  192POPC    C222146   5.010   6.346   6.629 -1.1379  0.0385  0.5363
  192POPC    HS22147   5.088   6.420   6.601 -0.0556 -1.4614 -0.5306
  192POPC   O2122148   5.073   6.261   6.728 -0.2720 -0.0774  0.5141
  192POPC   C2122149   5.118   6.324   6.835  0.1579  0.6165 -0.1072
  192POPC   O2222150   5.145   6.443   6.835  0.4275  0.4223 -0.1362
  192POPC   C2222151   5.156   6.222   6.944  0.6728 -0.4904 -0.5242
  192POPC   H2R22152   5.234   6.152   6.906  0.8451 -1.3084  1.3053
  192POPC   H2S22153   5.076   6.150   6.971  0.2285 -0.2553 -1.2048
  192POPC    C322154   4.876   6.408   6.675  0.2556 -0.8907 -0.5628
  192POPC    HX22155   4.821   6.453   6.589  0.3719  1.3603  0.5076
  192POPC    HY22156   4.888   6.492   6.747 -4.2233 -1.8065  1.4671
  192POPC   O3122157   4.797   6.313   6.750 -0.2356  0.1769  0.2828
  192POPC   C3122158   4.665   6.327   6.744  0.1419  0.5344  1.4095
  192POPC   O3222159   4.612   6.421   6.694 -0.7303 -0.3005 -0.1750
  192POPC   C3222160   4.599   6.198   6.802  0.1836  0.4573  0.0742
  192POPC   H2X22161   4.673   6.122   6.835 -0.1685 -0.1895 -0.5985
  192POPC   H2Y22162   4.530   6.159   6.724 -0.3755 -1.1721  1.3567
  192POPC   C2322163   5.204   6.296   7.069 -0.5000  1.0071 -0.0551
  192POPC   H3R22164   5.130   6.371   7.105  0.0188  0.9495  1.1556
  192POPC   H3S22165   5.300   6.350   7.054  1.1273 -0.8743  3.0859
  192POPC   C2422166   5.225   6.190   7.174 -0.4539 -0.7463 -0.3755
  192POPC   H4R22167   5.305   6.122   7.138 -0.6231 -1.1736  0.0539
  192POPC   H4S22168   5.133   6.130   7.187 -0.7020 -1.2707 -4.0149
  192POPC   C2522169   5.273   6.249   7.305  0.7844  0.0350 -0.5432
  192POPC   H5R22170   5.195   6.325   7.331  0.1479 -1.7019  2.9103
  192POPC   H5S22171   5.370   6.300   7.289  0.9713  0.3998  1.6433
  192POPC   C2622172   5.293   6.161   7.428 -0.7322 -0.2310 -0.1603
  192POPC   H6R22173   5.357   6.075   7.398  0.2514  0.8498 -1.2321
  192POPC   H6S22174   5.187   6.126   7.433 -0.9203  0.1863 -1.0810
  192POPC   C2722175   5.328   6.247   7.552 -0.0404  0.1521  0.5861
  192POPC   H7R22176   5.258   6.333   7.553 -1.4461 -0.9576  1.3527
  192POPC   H7S22177   5.429   6.291   7.549  0.7995 -1.7762 -4.8891
  192POPC   C2822178   5.279   6.175   7.673 -0.0162  0.4096  0.3530
  192POPC   H8R22179   5.310   6.069   7.660  1.8502  1.1565 -1.6397
  192POPC   H8S22180   5.168   6.177   7.673 -0.0275  0.1899 -1.1519
  192POPC   C2922181   5.328   6.238   7.805  0.1378  0.3048  0.0643
  192POPC   H9122182   5.436   6.258   7.797 -0.0121  1.2240  0.3626
  192POPC  C21022183   5.263   6.242   7.924  0.6201 -0.4542  0.3921
  192POPC  H10122184   5.318   6.290   8.006 -0.9352 -0.8021  1.6486
  192POPC  C21122185   5.136   6.172   7.949 -0.6536 -0.1614 -0.6333
  192POPC  H11R22186   5.111   6.093   7.875  0.5342 -1.4821  0.3668
  192POPC  H11S22187   5.063   6.252   7.924  0.3146 -0.1073 -3.4742
  192POPC  C21222188   5.133   6.133   8.095 -0.1621  0.0571 -0.5081
  192POPC  H12R22189   5.030   6.099   8.121 -0.3592  0.6363 -0.5427
  192POPC  H12S22190   5.160   6.227   8.147 -1.2009  0.0400  0.0928
  192POPC  C21322191   5.220   6.011   8.135 -0.3191 -0.5331  0.3200
  192POPC  H13R22192   5.205   5.998   8.244 -1.9243 -1.1883  0.0335
  192POPC  H13S22193   5.326   6.038   8.118 -0.0087 -1.1591  1.2266
  192POPC  C21422194   5.186   5.876   8.071 -0.2368  0.1991  0.6610
  192POPC  H14R22195   5.225   5.867   7.967  1.3326 -0.8582  1.3215
  192POPC  H14S22196   5.076   5.861   8.065 -0.3001  0.7291  0.5121
  192POPC  C21522197   5.257   5.764   8.150  0.5786 -0.3174  0.5511
  192POPC  H15R22198   5.212   5.663   8.144 -0.0197 -0.0595  0.6238
  192POPC  H15S22199   5.254   5.797   8.256 -3.6088  1.1093  0.0632
  192POPC  C21622200   5.398   5.746   8.097 -0.4512  0.8184  0.4427
  192POPC  H16R22201   5.463   5.835   8.113  4.9743 -2.8759  0.4617
  192POPC  H16S22202   5.402   5.744   7.986 -2.5597 -0.4962  0.3725
  192POPC  C21722203   5.471   5.623   8.156  0.3852  0.4582  0.2280
  192POPC  H17R22204   5.568   5.618   8.102 -0.5995  0.0182 -1.5239
  192POPC  H17S22205   5.423   5.525   8.134  0.6514  0.0494  1.4464
  192POPC  C21822206   5.494   5.632   8.307  0.8176  0.1795 -0.4503
  192POPC  H18R22207   5.496   5.741   8.328  1.7006 -0.1680  1.3270
  192POPC  H18S22208   5.587   5.577   8.334  0.8785  2.1572  3.7314
  192POPC  H18T22209   5.405   5.591   8.361  0.9247 -0.4281 -0.7299
  192POPC   C3322210   4.508   6.241   6.920 -0.5410 -0.5844  0.1606
  192POPC   H3X22211   4.450   6.153   6.957  0.8657 -0.7812  1.9703
  192POPC   H3Y22212   4.441   6.325   6.894 -1.0259 -0.9137  0.3522
  192POPC   C3422213   4.608   6.282   7.035  0.6539 -0.1338  0.0313
  192POPC   H4X22214   4.661   6.371   6.995 -0.3143 -0.0423 -1.0928
  192POPC   H4Y22215   4.679   6.200   7.060 -0.4594 -1.3857 -0.8467
  192POPC   C3522216   4.521   6.308   7.161  0.3217 -0.6633  0.0397
  192POPC   H5X22217   4.462   6.216   7.183 -1.8567  0.4393 -1.1619
  192POPC   H5Y22218   4.453   6.388   7.128  0.0284 -1.3007 -0.9216
  192POPC   C3622219   4.607   6.341   7.283 -0.0449 -0.5546  0.6234
  192POPC   H6X22220   4.702   6.396   7.264  0.1968 -1.0970  0.2513
  192POPC   H6Y22221   4.640   6.240   7.319  0.4762 -1.6283 -2.7174
  192POPC   C3722222   4.524   6.409   7.388 -0.8213  0.1555  0.2270
  192POPC   H7X22223   4.442   6.340   7.416  0.4938 -1.7414 -0.5348
  192POPC   H7Y22224   4.471   6.501   7.354 -0.8405  0.0250 -0.1032
  192POPC   C3822225   4.593   6.456   7.519 -0.3320  0.4694  0.3599
  192POPC   H8X22226   4.634   6.556   7.494  0.3440  0.6324  2.0456
  192POPC   H8Y22227   4.676   6.387   7.543  0.6654  1.8267  0.8209
  192POPC   C3922228   4.491   6.486   7.632  0.9920 -0.1405 -0.6046
  192POPC   H9X22229   4.452   6.393   7.679 -0.4660  0.2723 -0.9707
  192POPC   H9Y22230   4.420   6.558   7.585  0.2401 -0.5358 -0.0971
  192POPC  C31022231   4.559   6.560   7.748 -0.7291  0.2827 -0.2818
  192POPC  H10X22232   4.603   6.651   7.702  1.9296 -1.4350 -1.2883
  192POPC  H10Y22233   4.644   6.502   7.790  2.2477  4.2120 -0.5473
  192POPC  C31122234   4.456   6.590   7.855 -0.2469  0.2385  0.1046
  192POPC  H11X22235   4.390   6.508   7.889  0.5269 -0.8556 -0.9674
  192POPC  H11Y22236   4.394   6.671   7.813 -0.6455 -0.4781 -0.7150
  192POPC  C31222237   4.515   6.646   7.988 -0.7823 -0.0378  0.2764
  192POPC  H12X22238   4.604   6.698   7.947 -0.9496  2.2240  2.7080
  192POPC  H12Y22239   4.552   6.559   8.045  1.0229  1.0043  0.7348
  192POPC  C31322240   4.410   6.730   8.060 -0.0305  0.5710  0.2552
  192POPC  H13X22241   4.316   6.675   8.083  0.0181 -0.6779 -2.3079
  192POPC  H13Y22242   4.372   6.808   7.991  0.4420 -1.6841 -2.6792
  192POPC  C31422243   4.461   6.801   8.180  0.0210 -0.3278  0.0247
  192POPC  H14X22244   4.542   6.873   8.155 -0.3121  0.5571  1.3970
  192POPC  H14Y22245   4.523   6.728   8.237 -0.1470 -0.2023  0.3690
  192POPC  C31522246   4.358   6.867   8.275  0.5364 -0.3789 -0.1598
  192POPC  H15X22247   4.266   6.807   8.292 -0.7076  1.1988 -1.1473
  192POPC  H15Y22248   4.334   6.962   8.223  2.2281 -0.8335 -1.8398
  192POPC  C31622249   4.424   6.904   8.408  0.0714 -0.2819  0.3019
  192POPC  H16X22250   4.477   6.826   8.467  2.3503  1.6793  0.9270
  192POPC  H16Y22251   4.338   6.937   8.469  1.1265  2.1495  0.5426
  192POPC  H16Z22252   4.488   6.995   8.400 -2.2225  1.3126 -0.4398
  193SOD    SOD22253   4.775   0.826   5.401 -0.1451  0.1762  0.0682
  194SOD    SOD22254   3.380   5.509   6.499  0.3871 -0.4958  0.0723
  195SOD    SOD22255   0.402   2.844  12.780  0.0924  0.0296 -0.1069
  196SOD    SOD22256   3.766   3.750  11.546  0.3058 -0.0370  0.3086
  197SOD    SOD22257   2.618   1.004   5.730  0.4310  0.2290 -0.2951
  198SOD    SOD22258   2.191   5.716  14.154  0.3545  0.2094  0.0420
  199SOD    SOD22259   3.824   0.766   0.307 -0.1079  0.2794  0.0947
  200SOD    SOD22260   0.901   1.999  16.333 -0.7761 -0.0652  0.1109
  201SOD    SOD22261   3.163   6.395  10.710 -0.1562 -0.0881  0.0601
  202SOD    SOD22262   5.702   0.730  13.313 -0.5706 -0.2591  0.2397
  203SOD    SOD22263   3.088   3.206   4.279  0.0553  0.1613  0.0464
  204SOD    SOD22264   3.836   6.439   5.892 -0.0960 -0.1303  0.3585
  205SOD    SOD22265   3.247   5.962  14.044 -0.7237  0.2302 -0.2722
  206SOD    SOD22266   4.485   3.237   2.911 -0.9674 -0.5989 -0.1674
  207SOD    SOD22267   4.379   4.108  17.175 -0.2607 -0.1907  0.0643
  208SOD    SOD22268   3.361   0.403  12.694 -0.7701 -0.0879  0.1256
  209SOD    SOD22269   2.748   6.013  16.539  0.8024  0.4868  0.9070
  210SOD    SOD22270   4.940   6.640  13.148 -0.7202  0.0146 -0.0058
  211SOD    SOD22271   1.029   5.048  15.642 -0.8373  0.1692  0.1591
  212SOD    SOD22272   6.274   5.276  16.660 -0.2789  0.4823  0.4133
  213SOD    SOD22273   0.227   0.514  11.794 -0.4349  0.2364  0.6367
  214SOD    SOD22274   5.419   1.126   1.483 -0.2333  0.4090  0.1117
  215SOD    SOD22275   0.224   6.161  11.220  0.4426  0.2331  0.2832
  216SOD    SOD22276   3.426   4.401  14.628 -0.5049  0.2774 -0.3018
  217SOD    SOD22277   6.516   0.911   2.701  0.1829 -0.1338 -0.1383
  218SOD    SOD22278   0.675   5.060  14.276  0.2803  0.0919 -0.2007
  219SOD    SOD22279   3.224   5.503  11.591 -0.0650  0.1660  0.2425
  220SOD    SOD22280   0.114   1.934  11.936  0.4614 -0.2761  0.1410
  221SOD    SOD22281   3.564   3.695  14.073 -0.0129 -0.2594  0.6196
  222SOD    SOD22282   6.115   1.797  13.226 -0.3094  0.0251  0.1116
  223SOD    SOD22283   1.036   5.559   5.610 -0.4309 -0.0078  0.8284
  224SOD    SOD22284   0.211   3.162   3.333  0.0089  0.1930 -0.0948
  225SOD    SOD22285   3.754   0.886  10.875  0.6427  0.2907 -0.6151
  226SOD    SOD22286   6.730   2.576  11.278 -0.0772 -0.1758  0.1092
  227SOD    SOD22287   3.902   3.286   2.616  0.0026 -0.3569  0.1080
  228SOD    SOD22288   6.050   6.082  13.556 -0.5710  0.5420 -0.3891
  229SOD    SOD22289   0.325   3.811   6.598 -0.1050  0.1933  0.4584
  230SOD    SOD22290   3.428   1.425  10.693  0.0622  0.0580  0.1600
  231SOD    SOD22291   0.923   4.273   0.926  0.2270  0.0974  0.0679
  232SOD    SOD22292   2.903   2.174  15.231 -0.0154  0.0944 -0.0517
  233SOD    SOD22293   1.369   1.969  12.786 -0.1009  0.1659  0.2323
  234SOD    SOD22294   1.166   2.724  14.241  0.2206 -0.2583  0.5582
  235SOD    SOD22295   1.927   2.383  12.630 -0.4739 -0.2845 -0.0038
  236SOD    SOD22296   3.801   2.681  13.557  0.3863  0.0765  0.2433
  237SOD    SOD22297   5.347   3.280  11.292 -0.0841  0.1731  0.2235
  238SOD    SOD22298   6.642   1.552  17.061 -0.3321 -0.2381  0.1065
  239SOD    SOD22299   6.637   4.798   0.526 -0.3689  0.0271  0.4349
  240SOD    SOD22300   1.017   4.101   6.196 -0.3345  0.1034  0.3810
  241SOD    SOD22301   6.666   2.372   0.229  0.3667 -0.4239  0.2571
  242SOD    SOD22302   5.221   3.328   6.198  0.4927  0.0621 -0.1804
  243SOD    SOD22303   5.160   5.035  11.838 -0.3816 -0.0420  0.1206
  244SOD    SOD22304   2.519   6.453   0.562  0.0747  0.3961  0.0659
  245SOD    SOD22305   3.897   2.817  13.904 -0.0868 -0.0073  0.2782
  246SOD    SOD22306   4.105   1.897   6.420  0.6879 -0.3527  0.1363
  247SOD    SOD22307   2.774   2.085   1.883  0.0329 -0.1825  0.5074
  248SOD    SOD22308   5.564   1.751   2.904 -0.0990 -0.1959  0.0091
  249SOD    SOD22309   0.060   2.507   3.743 -0.0375  0.3796  0.3545
  250SOD    SOD22310   5.318   3.379   2.485 -0.7767 -0.1149  0.3641
  251SOD    SOD22311   1.543   3.481   5.074  0.3085  0.3182  0.0489
  252SOD    SOD22312   2.475   6.319   3.575  0.0642  0.1766  0.0426
  253SOD    SOD22313   4.991   2.454  15.059 -0.0641 -0.2366  0.1647
  254SOD    SOD22314   2.812   0.602  15.948  0.0375 -0.2078  0.2538
  255SOD    SOD22315   3.508   1.064   6.753 -0.3549  0.1633  0.5366
  256SOD    SOD22316   1.172   6.635   5.817 -0.1292  0.4900  0.0397
  257SOD    SOD22317   1.844   1.326   0.133  0.5777  0.0434 -0.2464
  258SOD    SOD22318   0.794   0.837  11.362  0.3837 -0.3268 -0.1731
  259SOD    SOD22319   2.207   5.688  12.611  0.3274 -0.3514 -0.3345
  260SOD    SOD22320   5.719   3.537  11.600 -0.3465  0.0987 -0.1259
  261SOD    SOD22321   4.907   2.931   4.689  0.0564  0.7729 -0.1588
  262SOD    SOD22322   5.274   2.262   4.642  0.0743  0.0107 -0.1038
  263SOD    SOD22323   1.815   0.946  13.337 -0.1248  0.1135  0.2697
  264SOD    SOD22324   2.845   0.706   1.819 -0.1240 -0.0991 -0.0817
  265SOD    SOD22325   6.410   2.756   1.402  0.2434 -0.4501 -0.6117
  266SOD    SOD22326   0.892   3.894  15.871  0.2651 -0.1995  0.2138
  267SOD    SOD22327   3.959   1.942  11.124 -0.1945 -0.0119 -0.0423
  268SOD    SOD22328   4.890   6.042   2.182  0.5491 -0.2053 -0.1206
  269SOD    SOD22329   1.722   6.538   0.733  0.0337 -0.2804  0.1336
  270CLA    CLA22330   2.110   4.502  13.470  0.0517  0.3135 -0.1261
  271CLA    CLA22331   4.203   1.957   2.627  0.2831  0.0783 -0.0419
  272CLA    CLA22332   1.447   4.615   3.482 -0.3566  0.3401 -0.0542
  273CLA    CLA22333   1.145   3.533  16.050 -0.1672 -0.1529 -0.1479
  274CLA    CLA22334   1.218   1.477  12.534 -0.0505  0.0777  0.0478
  275CLA    CLA22335   0.161   2.245   5.348 -0.1271  0.0963  0.0522
  276CLA    CLA22336   3.416   0.854  12.455  0.2262 -0.2688  0.3691
  277CLA    CLA22337   3.439   1.562  17.158 -0.1365  0.3554 -0.2395
  278CLA    CLA22338   4.997   2.997  16.066  0.2036 -0.0491 -0.3863
  279CLA    CLA22339   0.318   3.633  11.494  0.0275  0.1586  0.0751
  280CLA    CLA22340   5.206   3.352   3.849 -0.1615 -0.2895  0.1344
  281CLA    CLA22341   1.329   6.144  13.321 -0.1316  0.1451 -0.0149
  282CLA    CLA22342   3.282   5.021  17.216  0.2366  0.4074 -0.2133
  283CLA    CLA22343   6.371   6.438  13.883  0.3915 -0.1201  0.0145
  284CLA    CLA22344   4.453   4.902   1.497 -0.2023 -0.2766  0.0951
  285CLA    CLA22345   1.868   1.527   0.786  0.2125 -0.1343  0.1752
  286CLA    CLA22346   0.457   0.362   1.107 -0.3139 -0.0935  0.3806
  287CLA    CLA22347   2.633   3.484  14.639  0.2728  0.0041 -0.0848
  288CLA    CLA22348   3.701   3.102   3.523  0.0250  0.1640 -0.6954
  289CLA    CLA22349   2.104   1.055  14.610 -0.0484  0.1208  0.1872
  290CLA    CLA22350   3.009   5.784  14.636  0.4797  0.4646 -0.4524
  291CLA    CLA22351   0.052   1.745   1.938  0.5801  0.1467  0.0473
  292CLA    CLA22352   2.571   1.044   4.464  0.0658 -0.5666 -0.0362
  293CLA    CLA22353   0.582   3.822  14.269  0.1405 -0.2971  0.0973
  294CLA    CLA22354   5.424   5.600  12.907 -0.3017  0.2292  0.4181
  295CLA    CLA22355   2.584   0.986  12.861 -0.2017  0.0682  0.1804
  296CLA    CLA22356   3.229   2.314  11.489  0.3453 -0.2791  0.1238
  297CLA    CLA22357   5.567   3.288   5.147 -0.1779  0.0611  0.3665
  298CLA    CLA22358   5.743   4.347   2.484  0.4427 -0.1489 -0.2809
  299CLA    CLA22359   1.777   1.715  13.325  0.2526 -0.1506  0.1243
  300CLA    CLA22360   6.734   3.839  14.906 -0.1027 -0.1260  0.2445
  301CLA    CLA22361   2.387   0.279  16.776 -0.0296  0.0710 -0.0365
  302CLA    CLA22362   2.799   4.119  14.822 -0.3560  0.0670  0.0532
  303CLA    CLA22363   0.207   2.130  12.800 -0.3453  0.1975  0.4867
  304CLA    CLA22364   5.330   5.440   0.252 -0.0098 -0.2188 -0.0145
  305CLA    CLA22365   4.016   2.598  14.021 -0.0531 -0.5971  0.4311
  306CLA    CLA22366   3.657   2.831  13.137  0.1161  0.2648  0.1107
  307CLA    CLA22367   4.041   6.446   3.662  0.0996  0.0844  0.0449
  308CLA    CLA22368   5.870   0.991  17.169 -0.0280 -0.0465  0.0170
  309CLA    CLA22369   4.233   5.298   1.677 -0.3412 -0.4522 -0.2392
  310CLA    CLA22370   2.046   5.431   3.870 -0.3574 -0.4054 -0.0691
  311CLA    CLA22371   0.805   2.834  16.150 -0.0834 -0.4116 -0.1265
  312CLA    CLA22372   5.474   4.696  14.741  0.7222 -0.1513  0.0625
  313CLA    CLA22373   0.076   2.090  17.084 -0.0089  0.0586 -0.1435
  314CLA    CLA22374   3.422   0.970   0.486  0.1259  0.5809  0.5730
  315CLA    CLA22375   2.365   3.887  15.733 -0.4404 -0.1030  0.0458
  316CLA    CLA22376   5.876   2.195   0.915 -0.2374 -0.0301 -0.4825
  317CLA    CLA22377   5.893   0.981   1.625 -0.1939  0.2457  0.2367
  318CLA    CLA22378   6.533   5.540   4.224  0.5816 -0.0937  0.6448
  319CLA    CLA22379   4.505   1.257  16.935 -0.1894  0.0935 -0.0485
  320CLA    CLA22380   5.923   2.136   3.791  0.0894 -0.2345 -0.1337
  321CLA    CLA22381   5.239   3.459  12.333  0.0802  0.1529 -0.0739
  322CLA    CLA22382   2.279   3.779  14.114  0.2080  0.1426  0.2315
  323TIP3   OH222383   5.751   1.366  16.525 -0.0208 -0.3571  0.5138
  323TIP3    H122384   5.733   1.381  16.618  0.5803  0.8350  0.4571
  323TIP3    H222385   5.691   1.426  16.480 -1.2438 -1.8862  0.0844
  324TIP3   OH222386   3.406   1.795  15.353 -0.5795  0.0160 -0.1314
  324TIP3    H122387   3.464   1.728  15.389 -1.0768 -0.6696 -0.5968
  324TIP3    H222388   3.390   1.856  15.425  0.3885 -0.0132  0.1114
  325TIP3   OH222389   6.320   3.008  11.709 -0.0926  0.3982  0.2214
  325TIP3    H122390   6.269   3.033  11.786  1.4568 -0.4491  1.5718
  325TIP3    H222391   6.377   3.083  11.693  0.2918  0.1786  0.5376
  326TIP3   OH222392   6.762   5.365  12.286 -0.2793 -0.0314  0.4987
  326TIP3    H122393   6.756   5.287  12.231  2.5969  0.5293 -0.6821
  326TIP3    H222394   6.765   5.438  12.225 -1.5534  0.9379  1.5648
  327TIP3   OH222395   4.098   0.563  11.906 -0.1430 -0.0490  0.6726
  327TIP3    H122396   4.016   0.610  11.893 -0.1650 -0.2010  0.2610
  327TIP3    H222397   4.077   0.498  11.974 -0.1632  0.4057  1.1006
  328TIP3   OH222398   2.144   3.571  16.829  0.4362  0.5055 -0.0081
  328TIP3    H122399   2.233   3.590  16.799 -0.0977  0.7627 -1.4737
  328TIP3    H222400   2.154   3.495  16.886  1.5103  0.0949 -0.7264
  329TIP3   OH222401   3.424   1.246  14.176 -0.0868  0.5812  0.0216
  329TIP3    H122402   3.385   1.303  14.110 -0.2147  0.8561  0.3369
  329TIP3    H222403   3.402   1.286  14.260 -0.8140 -0.3341  0.2760
  330TIP3   OH222404   2.545   2.047  11.546 -0.2574 -0.5235  0.5515
  330TIP3    H122405   2.508   2.135  11.538 -0.8170 -0.7051  1.0727
  330TIP3    H222406   2.563   2.037  11.640  3.2241  0.3991  0.0497
  331TIP3   OH222407   4.551   6.281   4.182  0.0999 -0.3972  0.2809
  331TIP3    H122408   4.532   6.366   4.142  2.7815  0.2896  0.3691
  331TIP3    H222409   4.553   6.299   4.276 -0.2195 -0.7755  0.3651
  332TIP3   OH222410   6.040   0.253  15.959  1.0762 -0.6069  0.7333
  332TIP3    H122411   6.062   0.270  15.868 -2.0562 -0.5166 -0.0583
  332TIP3    H222412   6.001   0.166  15.958 -0.6943  0.1679  1.6898
  333TIP3   OH222413   6.053   4.811   0.633  0.0940 -0.0833 -0.9560
  333TIP3    H122414   6.055   4.875   0.563  1.7031  1.6034  0.5770
  333TIP3    H222415   6.119   4.746   0.609 -1.3177 -1.0174 -2.3549
  334TIP3   OH222416   4.634   0.448   4.317 -0.2544 -0.4820  0.4655
  334TIP3    H122417   4.655   0.354   4.317 -1.0620 -0.6662  0.5228
  334TIP3    H222418   4.715   0.490   4.289  0.2791 -1.1613  0.9523
  335TIP3   OH222419   2.422   3.568  16.779 -0.2273  0.2029 -0.4958
  335TIP3    H122420   2.446   3.476  16.767  1.8156  0.7984 -1.1189
  335TIP3    H222421   2.449   3.589  16.869  1.2458  0.7629 -1.0602
  336TIP3   OH222422   5.181   0.393   4.277  0.1043 -0.3021 -0.3321
  336TIP3    H122423   5.213   0.355   4.359 -1.8453  1.0171  1.0743
  336TIP3    H222424   5.213   0.333   4.210  1.2780 -1.7186  1.4248
  337TIP3   OH222425   0.092   3.229  15.866 -0.4983 -0.1845 -0.3065
  337TIP3    H122426   0.133   3.145  15.844  0.2433 -0.2935  1.4110
  337TIP3    H222427   0.123   3.289  15.799 -1.5195 -1.4077 -1.9140
  338TIP3   OH222428   4.170   3.705   3.424 -0.7434  0.1893 -0.2852
  338TIP3    H122429   4.104   3.773   3.410 -0.9916 -0.0427 -0.2405
  338TIP3    H222430   4.181   3.701   3.519 -0.8265  0.0737 -0.2804
  339TIP3   OH222431   4.168   3.112   1.182 -0.5418 -0.5757  0.1279
  339TIP3    H122432   4.103   3.154   1.237 -0.6275 -1.6617  0.8573
  339TIP3    H222433   4.252   3.146   1.214 -0.7037  0.4750 -0.5196
  340TIP3   OH222434   4.863   6.013  12.833  0.0014  0.2328 -0.2476
  340TIP3    H122435   4.914   5.935  12.809 -0.2222 -0.7776  2.4617
  340TIP3    H222436   4.925   6.086  12.823  0.5274 -0.3946 -1.7337
  341TIP3   OH222437   3.386   3.442   2.581  0.1018  0.4155  0.1755
  341TIP3    H122438   3.327   3.465   2.510  1.1242  0.6268 -0.6180
  341TIP3    H222439   3.368   3.508   2.649 -1.8777 -0.6476  0.7030
  342TIP3   OH222440   1.937   4.017   4.217  0.1473 -0.4330  0.2333
  342TIP3    H122441   1.919   4.034   4.124  0.3877  0.8546  0.4036
  342TIP3    H222442   2.014   4.072   4.236  0.8414 -1.6182  0.8902
  343TIP3   OH222443   4.047   2.748  16.751  0.0583  0.6001  0.3834
  343TIP3    H122444   4.044   2.679  16.818  0.3895  0.2558  0.0482
  343TIP3    H222445   4.130   2.732  16.705  0.0474  1.1127  0.1856
  344TIP3   OH222446   3.909   4.621  12.608 -0.2266  0.0606  0.1519
  344TIP3    H122447   3.885   4.664  12.526  1.4500  0.3615 -0.2038
  344TIP3    H222448   3.915   4.693  12.671  0.0015  0.0229  0.1728
  345TIP3   OH222449   2.844   0.769  15.757 -0.5502  0.3398  0.0029
  345TIP3    H122450   2.803   0.856  15.757  2.1827  1.7129  0.8350
  345TIP3    H222451   2.884   0.762  15.670 -2.6094 -1.0572 -0.8686
  346TIP3   OH222452   6.396   6.074   1.796 -0.7337 -0.0203 -0.1213
  346TIP3    H122453   6.318   6.113   1.758 -1.2727  0.7790  1.7564
  346TIP3    H222454   6.418   6.131   1.870  0.8240 -1.0021  0.1979
  347TIP3   OH222455   5.670   6.775  13.058 -0.2195 -0.0852  0.1991
  347TIP3    H122456   5.663   6.766  13.153  0.9279 -1.8026  0.1352
  347TIP3    H222457   5.742   6.836  13.044 -0.6881  0.5233  0.4408
  348TIP3   OH222458   5.599   1.683  13.177 -0.0658 -0.1851 -0.1233
  348TIP3    H122459   5.530   1.658  13.116 -0.3775 -0.1584  0.2159
  348TIP3    H222460   5.674   1.627  13.153  0.0064  0.2385 -0.9096
  349TIP3   OH222461   3.019   1.380   4.749 -0.6460  0.0015  0.0714
  349TIP3    H122462   3.093   1.347   4.698 -0.5486 -0.5339  0.5583
  349TIP3    H222463   2.952   1.400   4.683  0.3641  1.6966 -0.5011
  350TIP3   OH222464   2.041   4.059  12.247 -0.3658  0.3515 -0.0866
  350TIP3    H122465   1.989   3.981  12.228 -0.1224  0.5671 -1.6995
  350TIP3    H222466   2.100   4.032  12.319  0.6358 -1.3595 -1.5043
  351TIP3   OH222467   2.247   6.282   5.494  0.1395  0.2530  0.0251
  351TIP3    H122468   2.220   6.193   5.514 -0.1791  0.2203 -0.5327
  351TIP3    H222469   2.267   6.321   5.580  0.9401 -0.5533  0.2141
  352TIP3   OH222470   6.756   6.325  14.698 -0.1840  0.4985 -0.4960
  352TIP3    H122471   6.734   6.285  14.614  4.0500  0.0020 -1.4661
  352TIP3    H222472   6.744   6.255  14.762 -1.3960  0.2990 -0.9126
  353TIP3   OH222473   6.097   1.350  15.949  0.3380  0.1160  0.2644
  353TIP3    H122474   6.053   1.309  16.024  0.7940  0.6783  0.8406
  353TIP3    H222475   6.174   1.297  15.934  0.2879  0.0493  0.2399
  354TIP3   OH222476   5.313   3.700   0.016 -0.3132 -0.0658 -0.3049
  354TIP3    H122477   5.295   3.709   0.110  0.5230  0.6200 -0.2006
  354TIP3    H222478   5.310   3.606   0.000  2.2300 -0.4306  0.9869
  355TIP3   OH222479   6.376   2.692  16.473  0.4335 -0.0555 -0.4719
  355TIP3    H122480   6.412   2.694  16.384  2.4346  2.7007  0.2969
  355TIP3    H222481   6.443   2.648  16.525 -0.4258 -1.0617 -0.2140
  356TIP3   OH222482   3.158   3.431  16.439  0.6051  0.4395 -0.5100
  356TIP3    H122483   3.108   3.368  16.388 -1.1819  1.1376  0.3178
  356TIP3    H222484   3.230   3.458  16.382  1.6355 -2.5925 -0.7301
  357TIP3   OH222485   6.668   4.363   3.906  0.7227 -0.3350 -0.3140
  357TIP3    H122486   6.588   4.394   3.862  0.5504 -0.1315  0.1346
  357TIP3    H222487   6.691   4.282   3.860  1.2100  0.4814 -1.5523
  358TIP3   OH222488   3.641   3.870   4.594  0.1367 -0.1748  0.7318
  358TIP3    H122489   3.629   3.913   4.678 -0.4486  2.3226 -0.5747
  358TIP3    H222490   3.644   3.942   4.530  3.4108 -1.7922 -1.0756
  359TIP3   OH222491   0.193   5.149   3.559  0.1767  0.0580  0.2681
  359TIP3    H122492   0.225   5.060   3.572  0.1787 -0.0752 -0.6378
  359TIP3    H222493   0.109   5.151   3.606 -0.9909 -1.1413 -1.6881
  360TIP3   OH222494   6.285   4.497  13.746  0.5419 -0.1557 -0.3399
  360TIP3    H122495   6.237   4.564  13.697 -0.7269  1.1015  2.5069
  360TIP3    H222496   6.366   4.540  13.772  0.6888 -0.4423 -0.3274
  361TIP3   OH222497   4.259   4.598  11.414 -0.0771 -0.3739 -0.3096
  361TIP3    H122498   4.206   4.655  11.470  0.5275 -1.1764  1.1084
  361TIP3    H222499   4.240   4.628  11.325 -0.2660  1.6128  0.3620
  362TIP3   OH222500   1.602   0.126   0.531 -0.2752  0.5048  0.1568
  362TIP3    H122501   1.512   0.106   0.505 -0.4679  0.9602  0.4618
  362TIP3    H222502   1.593   0.171   0.615  0.3081 -0.5197  0.7858
  363TIP3   OH222503   3.162   5.943  13.822 -0.8159  0.1451 -0.3304
  363TIP3    H122504   3.070   5.930  13.801 -0.9405  1.4405 -0.5937
  363TIP3    H222505   3.201   5.977  13.742  0.0925 -1.2829 -0.5072
  364TIP3   OH222506   0.531   1.194   3.889 -0.7092  0.2729 -0.0869
  364TIP3    H122507   0.479   1.256   3.838  0.8344 -1.4467 -4.0246
  364TIP3    H222508   0.503   1.108   3.858 -0.1104 -0.9011  2.4833
  365TIP3   OH222509   2.290   5.913   3.610 -0.1425  0.1259 -0.2165
  365TIP3    H122510   2.259   5.831   3.647 -0.6614 -0.1199 -1.1691
  365TIP3    H222511   2.281   5.977   3.681  1.3298 -0.8687  0.8831
  366TIP3   OH222512   3.512   0.991  16.327  0.1324 -0.3319 -0.1010
  366TIP3    H122513   3.571   0.928  16.368 -0.3773 -0.5962  0.2290
  366TIP3    H222514   3.424   0.963  16.352 -0.0666  1.0585  0.8595
  367TIP3   OH222515   6.106   0.470   0.878  0.4138 -0.0551 -0.2196
  367TIP3    H122516   6.185   0.515   0.849  1.1421 -2.1457 -1.6339
  367TIP3    H222517   6.123   0.449   0.970  1.9696 -1.3556 -0.7673
  368TIP3   OH222518   0.624   3.306   3.529 -0.1956 -1.1027 -0.4057
  368TIP3    H122519   0.611   3.394   3.494 -2.4124 -0.6195  1.5324
  368TIP3    H222520   0.675   3.319   3.609  0.6315 -1.7282 -0.8198
  369TIP3   OH222521   3.163   6.215   3.650 -0.3456  0.1409 -0.4320
  369TIP3    H122522   3.215   6.282   3.696  0.1761  0.4343 -1.4494
  369TIP3    H222523   3.195   6.132   3.685 -1.2490  0.4149  1.1129
  370TIP3   OH222524   3.468   6.663   4.476  0.2169 -0.2365 -0.3739
  370TIP3    H122525   3.459   6.568   4.472 -0.2253 -0.2216  0.0739
  370TIP3    H222526   3.552   6.677   4.520 -0.1430 -0.4303  0.3893
  371TIP3   OH222527   1.773   0.201  13.406  0.2352 -0.2251  0.3579
  371TIP3    H122528   1.681   0.211  13.434 -1.3426 -1.5729 -3.9263
  371TIP3    H222529   1.807   0.133  13.464 -1.8777 -0.6706  1.1589
  372TIP3   OH222530   5.015   2.878  11.634 -0.4703 -0.3008  0.3768
  372TIP3    H122531   5.099   2.869  11.589  0.1890  2.0734  1.0589
  372TIP3    H222532   5.035   2.860  11.725 -0.7289  0.0577  0.5066
  373TIP3   OH222533   0.618   0.881  11.517  0.3155 -0.4434 -0.1392
  373TIP3    H122534   0.586   0.879  11.607 -0.1658  2.6491 -0.2092
  373TIP3    H222535   0.541   0.899  11.464  0.4533 -3.0309 -1.3126
  374TIP3   OH222536   4.655   2.284  14.804 -0.5912 -0.0215  0.3485
  374TIP3    H122537   4.622   2.221  14.740  2.3388 -1.5913  0.2936
  374TIP3    H222538   4.673   2.231  14.882  0.7100  0.9587  0.7202
  375TIP3   OH222539   5.252   4.447   4.740  0.1245 -0.6048 -1.0999
  375TIP3    H122540   5.300   4.473   4.662  2.0771 -1.2495 -0.1462
  375TIP3    H222541   5.276   4.355   4.752  2.7560  0.4448  2.3029
  376TIP3   OH222542   4.551   4.118   0.881  0.1819 -0.2011  0.2913
  376TIP3    H122543   4.488   4.047   0.866 -0.0769  0.2384 -0.7634
  376TIP3    H222544   4.563   4.120   0.976 -0.6456 -0.9395  0.4175
  377TIP3   OH222545   0.657   3.787   1.229 -0.0056 -0.1509  0.1189
  377TIP3    H122546   0.566   3.767   1.206 -0.1687  1.2164 -0.4413
  377TIP3    H222547   0.698   3.701   1.239 -1.3613 -0.7831  0.4026
  378TIP3   OH222548   5.082   4.353   3.912  0.1261  0.2870 -0.1583
  378TIP3    H122549   5.020   4.314   3.851 -1.2388  1.2375  0.5907
  378TIP3    H222550   5.145   4.283   3.929 -1.3907 -1.1049 -0.0513
  379TIP3   OH222551   4.893   3.938  11.917 -0.3331 -0.2693 -0.3808
  379TIP3    H122552   4.937   3.923  12.000  0.6429  0.8476 -0.6882
  379TIP3    H222553   4.837   4.014  11.933 -0.3982 -0.2587 -0.6531
  380TIP3   OH222554   4.645   5.780  16.781 -0.2975  0.5131 -0.3605
  380TIP3    H122555   4.684   5.814  16.701 -0.4146  1.7072  0.0775
  380TIP3    H222556   4.710   5.799  16.849 -0.0021 -0.8969 -0.2422
  381TIP3   OH222557   0.381   0.617  14.261 -0.1618  0.3964  0.2927
  381TIP3    H122558   0.313   0.552  14.275  0.7795 -0.4463  1.0496
  381TIP3    H222559   0.458   0.581  14.305  1.6154 -0.0522 -3.0245
  382TIP3   OH222560   4.436   4.088   2.174  0.2106 -0.2099  0.1810
  382TIP3    H122561   4.356   4.131   2.145  0.8578  0.1432 -1.1369
  382TIP3    H222562   4.466   4.139   2.249 -1.4242 -1.0493  1.4332
  383TIP3   OH222563   1.628   3.065   1.062  0.0200  0.7069 -0.3605
  383TIP3    H122564   1.596   3.054   1.152  1.4185 -1.5008 -0.0781
  383TIP3    H222565   1.589   2.992   1.014  1.3176  0.3703 -0.9345
  384TIP3   OH222566   3.958   0.740  13.222  0.2453  0.1288 -0.2332
  384TIP3    H122567   3.971   0.766  13.131  2.5912  1.8175  0.5712
  384TIP3    H222568   4.034   0.686  13.243 -0.9116 -1.3210  0.3933
  385TIP3   OH222569   6.723   3.410   3.761  0.0173  0.0414 -0.1151
  385TIP3    H122570   6.803   3.415   3.708  0.4559  1.9184  0.6949
  385TIP3    H222571   6.697   3.319   3.755  1.7284 -0.4143 -1.1323
  386TIP3   OH222572   4.805   2.422  15.201 -0.1211  0.7602  0.2072
  386TIP3    H122573   4.747   2.496  15.220 -0.6238  0.1185  1.1911
  386TIP3    H222574   4.863   2.418  15.277 -0.5904 -0.3323  0.5097
  387TIP3   OH222575   4.298   4.563   6.311  0.4312 -0.8330 -0.2849
  387TIP3    H122576   4.204   4.550   6.312  0.4120 -1.1119 -2.5521
  387TIP3    H222577   4.319   4.598   6.398 -1.6733 -1.2229  0.3982
  388TIP3   OH222578   0.658   0.471   5.002 -0.1408 -0.1665  0.2526
  388TIP3    H122579   0.731   0.523   4.970 -0.5397 -0.0505 -0.4719
  388TIP3    H222580   0.592   0.475   4.933 -0.1856 -1.6274  0.1879
  389TIP3   OH222581   0.386   2.510  11.379  0.0046 -0.7345 -0.9486
  389TIP3    H122582   0.435   2.432  11.403 -0.0802 -0.6704 -0.5707
  389TIP3    H222583   0.367   2.498  11.286  0.5526 -0.8582 -1.0484
  390TIP3   OH222584   2.091   3.593  11.131 -0.3939  0.5897  0.0511
  390TIP3    H122585   2.053   3.589  11.043 -0.2243  2.1002 -0.1052
  390TIP3    H222586   2.065   3.510  11.172 -1.3484  0.3209 -1.0565
  391TIP3   OH222587   4.507   6.030   1.213 -0.3089 -0.2784 -0.2123
  391TIP3    H122588   4.506   5.943   1.173 -1.0536 -0.4999  0.2579
  391TIP3    H222589   4.536   6.014   1.303 -0.8689 -0.1087  0.0031
  392TIP3   OH222590   3.182   1.024   3.447  0.4142  0.4261  0.2142
  392TIP3    H122591   3.219   0.936   3.433 -0.9626 -0.3126  1.0957
  392TIP3    H222592   3.108   1.028   3.386  0.3081  0.8728  0.3744
  393TIP3   OH222593   1.151   6.370  14.952 -0.1310  0.0827 -0.5699
  393TIP3    H122594   1.153   6.392  14.859  2.1605  0.7525 -0.3814
  393TIP3    H222595   1.193   6.444  14.995 -1.2779 -0.1687  1.0299
  394TIP3   OH222596   4.827   2.171   1.447 -0.3427  0.0396  0.9651
  394TIP3    H122597   4.765   2.185   1.376  0.6765  2.1442  0.4305
  394TIP3    H222598   4.893   2.239   1.435  2.0609 -2.0822  1.5364
  395TIP3   OH222599   1.499   3.762   0.039  0.3993 -0.4616  0.4095
  395TIP3    H122600   1.521   3.837   0.094  0.9288 -2.4917  3.0858
  395TIP3    H222601   1.580   3.742  -0.008 -0.0987  1.3838 -1.2962
  396TIP3   OH222602   1.842   4.067  14.229  0.0995  0.6898  0.1883
  396TIP3    H122603   1.755   4.029  14.236  0.5279 -0.7163 -1.6510
  396TIP3    H222604   1.893   4.025  14.298 -0.3651  0.6727  0.5261
  397TIP3   OH222605   4.554   3.580   4.940  0.1633 -0.6691  0.0623
  397TIP3    H122606   4.644   3.599   4.967  0.2909 -0.5092 -0.4724
  397TIP3    H222607   4.527   3.658   4.892 -0.6465 -0.2471  1.1785
  398TIP3   OH222608   1.915   4.920  16.547 -0.6991 -0.3270  0.0423
  398TIP3    H122609   1.865   4.920  16.466 -1.1071 -1.5673  0.2868
  398TIP3    H222610   1.947   4.831  16.556 -0.5047 -0.1575  1.1587
  399TIP3   OH222611   2.251   0.929  16.915 -0.7332 -0.4030 -0.2566
  399TIP3    H122612   2.235   0.835  16.906  1.1154 -0.8992  1.2451
  399TIP3    H222613   2.191   0.958  16.983  0.0996 -0.9183  0.7073
  400TIP3   OH222614   6.785   2.412  10.840  0.0787 -0.0858 -0.0703
  400TIP3    H122615   6.699   2.453  10.828 -0.5982 -1.1563  0.9994
  400TIP3    H222616   6.845   2.467  10.789 -1.3288  0.3331 -1.3103
  401TIP3   OH222617   4.087   6.316   3.159  0.3937  0.0563 -0.2324
  401TIP3    H122618   4.065   6.343   3.249 -0.6672  0.2752 -0.5481
  401TIP3    H222619   4.104   6.398   3.113 -1.6909  0.1577 -0.8956
  402TIP3   OH222620   1.752   2.797  13.966 -0.0736  0.0437  0.5263
  402TIP3    H122621   1.657   2.808  13.977 -0.8976 -0.2968 -4.6251
  402TIP3    H222622   1.765   2.703  13.960 -0.0418  0.1785 -2.3639
  403TIP3   OH222623   3.621   5.748  16.263  0.4228 -0.3162  0.2370
  403TIP3    H122624   3.683   5.779  16.329 -0.1883 -0.5357  0.9170
  403TIP3    H222625   3.595   5.661  16.293  1.5814 -1.2392 -1.2744
  404TIP3   OH222626   5.589   6.211   4.372  0.0528  0.0690  0.7280
  404TIP3    H122627   5.667   6.169   4.408 -1.1404 -0.7441  2.4729
  404TIP3    H222628   5.521   6.194   4.437 -1.8081 -0.0041 -1.1871
  405TIP3   OH222629   5.757   1.472   4.005 -0.1256 -0.3735  0.9883
  405TIP3    H122630   5.755   1.486   4.100  0.8477  1.3526  0.7821
  405TIP3    H222631   5.674   1.507   3.973  0.3430  0.7556  0.9993
  406TIP3   OH222632   2.049   2.247  13.390  0.0173 -0.4024 -0.0246
  406TIP3    H122633   2.029   2.339  13.404 -1.9718 -0.7365 -0.5106
  406TIP3    H222634   2.124   2.229  13.448  0.3994  1.4839  0.0942
  407TIP3   OH222635   5.802   2.746   2.878  0.5627 -0.0317  0.1188
  407TIP3    H122636   5.888   2.704   2.882  0.7212  0.0900 -1.5444
  407TIP3    H222637   5.741   2.673   2.866  0.5098 -0.0431  0.4426
  408TIP3   OH222638   0.551   6.636   3.655 -0.3687  0.7222 -0.3406
  408TIP3    H122639   0.492   6.681   3.595  0.5131  0.7129 -1.2183
  408TIP3    H222640   0.613   6.704   3.683 -1.8699  1.1837  2.0033
  409TIP3   OH222641   3.747   5.347   4.052  0.2159  0.3952 -0.0475
  409TIP3    H122642   3.674   5.387   4.005  0.6903  0.1916 -0.9857
  409TIP3    H222643   3.802   5.421   4.079  1.4663  0.3828 -2.4065
  410TIP3   OH222644   4.656   3.486   2.118  0.1008  0.5385 -0.2514
  410TIP3    H122645   4.588   3.486   2.051 -1.8781 -0.1193  1.6677
  410TIP3    H222646   4.738   3.498   2.070 -1.3862  1.7461 -2.6016
  411TIP3   OH222647   3.005   2.891  15.674 -0.2500 -0.9473 -0.1405
  411TIP3    H122648   2.924   2.871  15.720 -1.0838  1.6054 -0.4337
  411TIP3    H222649   2.989   2.976  15.632  2.1257 -0.9944 -1.2327
  412TIP3   OH222650   2.914   1.982   5.119  0.1051 -0.3384 -0.1595
  412TIP3    H122651   2.872   2.026   5.193 -2.4180 -0.8749 -1.2019
  412TIP3    H222652   2.864   1.900   5.109  2.3357 -1.6883 -0.5793
  413TIP3   OH222653   4.550   5.303  16.058 -0.0897  0.0702 -0.0090
  413TIP3    H122654   4.514   5.328  15.973 -1.8683  2.2066  1.3225
  413TIP3    H222655   4.521   5.213  16.071  1.6851 -0.8910 -2.4107
  414TIP3   OH222656   1.831   1.046  15.387 -0.3830  0.6243 -0.3262
  414TIP3    H122657   1.877   1.058  15.470  0.8399  0.0629 -0.9077
  414TIP3    H222658   1.901   1.035  15.322 -1.2311  3.4959 -1.8504
  415TIP3   OH222659   2.303   3.171  15.106 -0.1098  0.8226 -0.1784
  415TIP3    H122660   2.380   3.129  15.067 -0.8680 -0.2525 -0.5483
  415TIP3    H222661   2.229   3.139  15.054 -1.0120  0.3077  1.3726
  416TIP3   OH222662   4.062   4.789   4.244 -0.7194  0.2090 -0.5802
  416TIP3    H122663   4.103   4.861   4.196 -1.4577  2.2948  1.8490
  416TIP3    H222664   4.135   4.746   4.289 -0.6765  1.3334  0.4175
  417TIP3   OH222665   0.687   5.032   2.734  0.5060 -0.1859  0.0460
  417TIP3    H122666   0.665   5.117   2.773 -0.0784 -0.3935  0.1726
  417TIP3    H222667   0.608   4.980   2.744  1.7000 -1.6433  2.4229
  418TIP3   OH222668   3.972   2.815  17.198  0.6606 -0.0417  0.3076
  418TIP3    H122669   3.995   2.905  17.178 -1.4791  0.8490  1.6883
  418TIP3    H222670   3.896   2.821  17.256  0.3196 -2.7302  0.2407
  419TIP3   OH222671   5.629   2.672   3.190 -0.2884  0.0559 -0.0762
  419TIP3    H122672   5.544   2.714   3.175 -0.1585  0.2022 -0.4071
  419TIP3    H222673   5.621   2.587   3.147 -1.1000 -0.9213  1.9070
  420TIP3   OH222674   3.613   0.180   5.796 -0.0172  0.5903 -0.1521
  420TIP3    H122675   3.588   0.222   5.878  1.5203  0.5436  0.3672
  420TIP3    H222676   3.626   0.252   5.735 -3.5030  0.5063 -1.0701
  421TIP3   OH222677   1.424   2.736  13.452  0.5720  0.0751  0.2534
  421TIP3    H122678   1.341   2.752  13.408  1.8681  0.2460 -2.2383
  421TIP3    H222679   1.437   2.814  13.506 -0.3689  0.5240 -0.1528
  422TIP3   OH222680   3.642   2.163   3.911 -0.3274 -0.0012 -0.0362
  422TIP3    H122681   3.711   2.097   3.911 -1.2220 -0.9383 -0.0027
  422TIP3    H222682   3.598   2.153   3.995  0.0075  1.1542  0.2972
  423TIP3   OH222683   1.758   6.743  12.462 -0.2109 -0.5052  0.0314
  423TIP3    H122684   1.712   6.789  12.393 -0.5475 -0.3247  0.3762
  423TIP3    H222685   1.789   6.812  12.521 -0.0110 -0.6646  0.1153
  424TIP3   OH222686   3.304   3.626  12.625  0.0147  0.0200 -0.3087
  424TIP3    H122687   3.257   3.587  12.699  0.4023 -0.9646 -0.5662
  424TIP3    H222688   3.271   3.716  12.620 -1.6758 -0.5898 -0.3579
  425TIP3   OH222689   0.385   6.736   5.565  0.0389 -0.0110 -0.0991
  425TIP3    H122690   0.327   6.749   5.490 -0.3865 -2.3554 -0.2131
  425TIP3    H222691   0.471   6.723   5.526 -0.0067 -0.2358 -0.1243
  426TIP3   OH222692   4.979   6.767  11.846 -0.3863  0.4135  0.2181
  426TIP3    H122693   4.963   6.699  11.912 -1.6149  0.1923 -0.2831
  426TIP3    H222694   4.956   6.725  11.763  1.3710  0.6223 -0.3847
  427TIP3   OH222695   1.924   4.983   4.540 -0.1839  0.8558  0.1253
  427TIP3    H122696   1.837   4.944   4.534 -0.1409  0.5318  1.5317
  427TIP3    H222697   1.914   5.069   4.499 -0.9738  0.5181 -0.4105
  428TIP3   OH222698   5.075   2.508  11.614 -0.4121  0.2340  0.2986
  428TIP3    H122699   5.046   2.547  11.532  2.9668 -0.1153 -1.1606
  428TIP3    H222700   5.090   2.582  11.673  1.1825  0.8296 -0.8214
  429TIP3   OH222701   0.670   4.797  16.463  0.4498 -0.0241 -0.4428
  429TIP3    H122702   0.669   4.759  16.550  0.4064 -2.6637 -1.5657
  429TIP3    H222703   0.750   4.850  16.461  1.6409 -1.7359  0.4632
  430TIP3   OH222704   4.371   0.388  12.216 -0.0425  0.1053  0.7440
  430TIP3    H122705   4.312   0.454  12.180 -0.3073 -0.4253  0.1817
  430TIP3    H222706   4.357   0.392  12.310 -1.5732 -0.5495  0.5608
  431TIP3   OH222707   4.410   5.597   4.814  0.8339 -0.0440 -0.2100
  431TIP3    H122708   4.477   5.637   4.869  1.3458  0.0350 -0.8785
  431TIP3    H222709   4.460   5.541   4.754  0.1145 -2.0204  0.9822
  432TIP3   OH222710   5.497   3.212   5.906  0.0172  0.1406 -0.6513
  432TIP3    H122711   5.528   3.262   5.830  1.2134  1.3912  0.6458
  432TIP3    H222712   5.574   3.166   5.938 -0.2332  0.5066  0.4979
  433TIP3   OH222713   3.066   0.165   5.818 -0.2564  0.1964  0.3949
  433TIP3    H122714   2.984   0.139   5.776  0.1275 -0.0195 -0.2293
  433TIP3    H222715   3.092   0.089   5.869 -1.2594  0.8204  1.8769
  434TIP3   OH222716   0.751   1.524   3.153  0.1949  0.3722  0.4616
  434TIP3    H122717   0.787   1.475   3.079  1.4136  0.5413  0.9334
  434TIP3    H222718   0.748   1.460   3.225 -0.5413  0.3330  0.3971
  435TIP3   OH222719   1.897   0.275  15.591  0.6541  0.2615  0.5568
  435TIP3    H122720   1.985   0.260  15.625  0.5313 -4.0170 -0.6712
  435TIP3    H222721   1.840   0.229  15.653 -0.3505 -0.1320 -0.6479
  436TIP3   OH222722   5.543   6.491   1.631  0.2896  0.0643  0.0385
  436TIP3    H122723   5.494   6.416   1.598  1.7085  0.2805 -2.7126
  436TIP3    H222724   5.635   6.467   1.620  0.7611  2.0027 -0.4283
  437TIP3   OH222725   3.393   6.187   0.971 -0.3540 -0.1898 -0.0688
  437TIP3    H122726   3.457   6.116   0.980 -1.4858 -1.2183  0.0884
  437TIP3    H222727   3.342   6.162   0.894  0.2651  1.2981 -0.9751
  438TIP3   OH222728   3.708   4.942   1.071 -0.1419  0.5081 -0.3382
  438TIP3    H122729   3.710   5.024   1.120 -0.1302 -1.0140  2.2833
  438TIP3    H222730   3.677   4.877   1.134 -1.2966 -1.3116 -2.6850
  439TIP3   OH222731   6.035   0.226   2.091  0.5088  0.8908  0.1655
  439TIP3    H122732   5.948   0.206   2.057  1.2409 -2.6252  0.2168
  439TIP3    H222733   6.021   0.244   2.184 -0.3156  1.7072 -0.1085
  440TIP3   OH222734   2.699   0.525   1.224 -0.1777  0.4309  0.2109
  440TIP3    H122735   2.675   0.432   1.227 -2.7400  1.0989  1.4891
  440TIP3    H222736   2.733   0.537   1.135 -2.2109 -1.1906 -0.8471
  441TIP3   OH222737   3.346   1.414   0.241  0.5739  0.1598  0.7173
  441TIP3    H122738   3.354   1.320   0.227 -1.9110  0.2924 -2.2525
  441TIP3    H222739   3.414   1.452   0.184  0.8530  0.1853  1.0702
  442TIP3   OH222740   1.589   6.145  12.479 -0.1902  0.0485 -0.5174
  442TIP3    H122741   1.517   6.204  12.500  1.0596  1.4499 -0.1191
  442TIP3    H222742   1.594   6.145  12.384 -0.8237 -0.2016 -0.5530
  443TIP3   OH222743   2.461   2.753  12.873 -0.1795  0.5656  1.5365
  443TIP3    H122744   2.434   2.700  12.798 -1.2670 -0.8515  2.9000
  443TIP3    H222745   2.454   2.843  12.842  0.8349 -0.0192 -0.5332
  444TIP3   OH222746   0.221   5.787  13.322 -0.3427 -0.6491 -0.3454
  444TIP3    H122747   0.315   5.766  13.320 -0.5159 -1.3690 -2.2824
  444TIP3    H222748   0.217   5.875  13.358  1.0197 -0.9225  0.5217
  445TIP3   OH222749   4.093   0.053  12.600  0.0325  0.0861 -0.3329
  445TIP3    H122750   4.123   0.144  12.596  0.3616  0.0008  0.1663
  445TIP3    H222751   3.998   0.059  12.603 -0.0796  0.3415 -2.7453
  446TIP3   OH222752   3.867   0.275   1.958 -0.4782  0.2238  0.4001
  446TIP3    H122753   3.813   0.312   2.029  3.3395  2.2377  2.4091
  446TIP3    H222754   3.869   0.181   1.976  1.1917  0.7995  3.5978
  447TIP3   OH222755   4.373   0.116  13.348  0.0780  0.4237 -0.6745
  447TIP3    H122756   4.412   0.104  13.262 -0.2349  2.9194 -1.1988
  447TIP3    H222757   4.316   0.040  13.360 -0.4696  0.4571 -2.9900
  448TIP3   OH222758   1.391   1.312   0.863  0.2906  0.3603  0.1510
  448TIP3    H122759   1.459   1.369   0.899  0.5236  1.0992 -1.3746
  448TIP3    H222760   1.430   1.276   0.783 -0.7606  0.0307 -0.2248
  449TIP3   OH222761   0.642   4.359   5.993  0.5387 -0.2810 -0.5304
  449TIP3    H122762   0.688   4.354   6.077 -0.4393 -1.8571 -0.0545
  449TIP3    H222763   0.583   4.434   6.003  1.2391  0.2335 -0.2289
  450TIP3   OH222764   5.245   6.337   3.051 -0.6056 -0.1023 -0.2015
  450TIP3    H122765   5.285   6.262   3.009  0.4020  0.1884  0.2215
  450TIP3    H222766   5.167   6.302   3.095  0.8128 -1.2254  1.4692
  451TIP3   OH222767   0.241   4.328   3.093  0.8415 -0.0242  0.1225
  451TIP3    H122768   0.232   4.297   3.003  0.9166 -1.6076  0.6560
  451TIP3    H222769   0.290   4.260   3.138 -0.0259  0.2964  1.6029
  452TIP3   OH222770   0.835   6.224  16.308 -0.1744 -0.6510  0.4427
  452TIP3    H122771   0.885   6.306  16.306  1.5981 -1.6833  0.9797
  452TIP3    H222772   0.777   6.233  16.384  0.8025 -0.3273  1.1596
  453TIP3   OH222773   4.804   2.904  12.574  0.0568  0.5193  0.2569
  453TIP3    H122774   4.753   2.862  12.643  0.1259 -0.7468 -0.4311
  453TIP3    H222775   4.786   2.850  12.496  1.1833  1.0089 -0.3481
  454TIP3   OH222776   1.540   3.203   2.215  0.2339  0.2641 -0.1459
  454TIP3    H122777   1.487   3.206   2.294  0.6908 -0.1892  0.1782
  454TIP3    H222778   1.630   3.195   2.246  0.5048  1.0918 -0.6900
  455TIP3   OH222779   1.782   6.579   2.440 -0.6474 -0.1639  0.0497
  455TIP3    H122780   1.798   6.672   2.452 -1.2349 -0.0518 -0.0102
  455TIP3    H222781   1.735   6.553   2.520  0.4288 -0.6340  0.5426
  456TIP3   OH222782   2.251   4.639  10.803 -0.4742 -0.0848  0.2228
  456TIP3    H122783   2.197   4.566  10.833 -2.1003  0.3260 -1.5608
  456TIP3    H222784   2.268   4.620  10.711  1.1758  0.5606  0.3840
  457TIP3   OH222785   5.896   4.647   3.507 -0.4181 -0.3366 -0.0167
  457TIP3    H122786   5.950   4.618   3.581  0.3680 -1.1505 -0.8890
  457TIP3    H222787   5.816   4.681   3.547 -1.3595 -3.6464  1.0709
  458TIP3   OH222788   3.745   3.831   3.985 -0.4467 -0.2200  0.4594
  458TIP3    H122789   3.676   3.880   4.029  0.2351  0.7137  0.4821
  458TIP3    H222790   3.706   3.804   3.901 -0.3726  1.5165 -0.1446
  459TIP3   OH222791   4.657   1.891  14.884 -0.6122  0.5909 -0.2669
  459TIP3    H122792   4.646   1.984  14.903 -0.4181  0.1037  2.5175
  459TIP3    H222793   4.667   1.850  14.970 -1.2307 -2.0860 -1.4011
  460TIP3   OH222794   2.221   0.599   5.795  0.1892  0.2535 -0.4233
  460TIP3    H122795   2.160   0.592   5.868  0.9040  3.4191  0.5487
  460TIP3    H222796   2.293   0.541   5.818 -0.9185 -0.9641  0.0048
  461TIP3   OH222797   0.870   3.371  15.409  0.0025  0.3331  0.4625
  461TIP3    H122798   0.886   3.286  15.369 -0.7260  0.7757 -0.8244
  461TIP3    H222799   0.926   3.373  15.486 -0.6830 -1.6802  1.0258
  462TIP3   OH222800   4.128   0.614   2.148  0.1428  0.1713 -0.2756
  462TIP3    H122801   4.048   0.576   2.185 -0.9618 -0.5416 -3.2660
  462TIP3    H222802   4.175   0.540   2.110  2.0126  0.6654  0.9935
  463TIP3   OH222803   1.664   3.873  13.731 -0.0702 -0.2286  0.2294
  463TIP3    H122804   1.735   3.904  13.787  1.9937 -3.6904 -0.3826
  463TIP3    H222805   1.670   3.928  13.653  0.2486  1.2031  1.2217
  464TIP3   OH222806   5.285   1.706  10.949 -0.0555 -0.3166 -0.2800
  464TIP3    H122807   5.263   1.640  10.883 -0.0250 -1.9888  1.3266
  464TIP3    H222808   5.218   1.695  11.017  0.5691  0.5900  0.4936
  465TIP3   OH222809   4.016   6.419  11.647  0.2658  0.8647  0.0061
  465TIP3    H122810   4.059   6.349  11.599  0.8768  0.3894  1.2205
  465TIP3    H222811   4.056   6.499  11.615  1.0129  0.5190  0.0616
  466TIP3   OH222812   4.564   5.432  13.209  0.1354 -0.2756  0.2556
  466TIP3    H122813   4.483   5.383  13.195  0.1761 -0.1544 -0.4336
  466TIP3    H222814   4.559   5.462  13.300 -1.7222  1.7949 -0.4849
  467TIP3   OH222815   5.953   5.082  12.606 -0.6514  0.4648  0.5937
  467TIP3    H122816   5.896   5.046  12.539 -0.1615  1.1410 -0.1981
  467TIP3    H222817   6.010   5.144  12.559  0.4314  0.1288  1.4273
  468TIP3   OH222818   1.063   4.388   1.794  0.3058  0.6604  0.2365
  468TIP3    H122819   1.133   4.325   1.775  1.8068  1.8526  1.6695
  468TIP3    H222820   1.046   4.429   1.709  0.0123 -0.9524 -0.5116
  469TIP3   OH222821   2.432   3.180  13.675  0.0699 -0.5753 -0.1346
  469TIP3    H122822   2.407   3.103  13.625 -0.2091 -1.0490  0.7276
  469TIP3    H222823   2.517   3.158  13.713 -0.4717 -0.8446  0.9252
  470TIP3   OH222824   4.900   5.230  16.677  0.0030 -0.5015 -0.4569
  470TIP3    H122825   4.806   5.242  16.690 -0.1982 -3.4920  1.3903
  470TIP3    H222826   4.906   5.167  16.605  0.6313  0.4773 -1.2710
  471TIP3   OH222827   1.185   6.658  16.947 -0.1186  0.3953  0.2098
  471TIP3    H122828   1.268   6.661  16.899  1.3151 -0.8028  2.5675
  471TIP3    H222829   1.161   6.751  16.958  0.6312  0.7340 -0.8698
  472TIP3   OH222830   6.554   4.685   0.149 -0.2432 -0.6159  0.5029
  472TIP3    H122831   6.547   4.644   0.063 -0.2850 -2.1222  1.2158
  472TIP3    H222832   6.567   4.778   0.130 -0.1811 -0.9441 -1.1274
  473TIP3   OH222833   6.778   2.004   0.644 -0.0044 -0.2330  0.1408
  473TIP3    H122834   6.769   2.083   0.698 -2.5814 -0.5267  0.1936
  473TIP3    H222835   6.806   1.936   0.705  1.4235  0.4102  0.2422
  474TIP3   OH222836   2.946   0.137   2.721 -0.1974  0.1546  0.2515
  474TIP3    H122837   2.860   0.125   2.680  0.5231  0.9861 -1.5605
  474TIP3    H222838   3.006   0.145   2.647  1.2841  0.6511  1.5062
  475TIP3   OH222839   4.454   2.569  14.000  0.1652  0.5363  0.4369
  475TIP3    H122840   4.498   2.487  13.976  2.2571  1.5359  0.7751
  475TIP3    H222841   4.468   2.627  13.925 -2.3833  0.1983 -0.3320
  476TIP3   OH222842   3.022   6.515   5.650  0.0425 -0.1039 -0.3727
  476TIP3    H122843   3.066   6.472   5.724 -0.9709  0.3809  0.5233
  476TIP3    H222844   3.080   6.589   5.628  0.7801 -0.7514 -0.6271
  477TIP3   OH222845   1.385   1.713  15.910  0.0602 -0.7257 -0.3123
  477TIP3    H122846   1.361   1.776  15.843  1.6174  0.8599  0.6025
  477TIP3    H222847   1.471   1.680  15.884  1.9352  1.8900  2.2365
  478TIP3   OH222848   4.749   4.672   4.552  0.6220 -0.1096  0.0539
  478TIP3    H122849   4.828   4.716   4.583  1.2409  0.6342 -2.4745
  478TIP3    H222850   4.751   4.683   4.457 -3.0588  0.8177  0.0102
  479TIP3   OH222851   0.439   1.739  13.969  0.0234  0.1680 -0.0054
  479TIP3    H122852   0.359   1.698  14.003  0.9806 -0.5508  1.4128
  479TIP3    H222853   0.463   1.803  14.037  1.0147 -0.0823 -0.1174
  480TIP3   OH222854   1.523   6.137  13.584 -0.3278 -0.2091  0.1246
  480TIP3    H122855   1.551   6.225  13.557 -0.4976 -0.5295 -1.1097
  480TIP3    H222856   1.445   6.120  13.533 -0.8034 -0.7405  1.0148
  481TIP3   OH222857   4.141   3.017   0.311 -0.0784 -0.0737  0.7148
  481TIP3    H122858   4.200   2.951   0.276 -0.8740  0.1813 -1.1533
  481TIP3    H222859   4.180   3.101   0.284 -1.9117  0.0714 -1.6199
  482TIP3   OH222860   1.442   1.072  12.841  0.4355 -0.2544  0.3833
  482TIP3    H122861   1.481   0.996  12.797  0.8012 -0.4979  1.1169
  482TIP3    H222862   1.503   1.144  12.823  1.2098 -0.6193  1.4697
  483TIP3   OH222863   4.405   2.611  12.673  0.4201  0.1668 -0.2647
  483TIP3    H122864   4.331   2.553  12.657 -0.2981  0.7896  0.7655
  483TIP3    H222865   4.388   2.688  12.619  0.2198  0.3804  0.0975
  484TIP3   OH222866   1.518   0.305   5.621  0.8320 -0.6234 -0.1096
  484TIP3    H122867   1.614   0.305   5.630  0.9004  0.7398 -0.7319
  484TIP3    H222868   1.500   0.373   5.556 -0.6336 -0.1555  0.7701
  485TIP3   OH222869   5.543   2.637   0.174  0.3940  0.2777  0.8407
  485TIP3    H122870   5.583   2.687   0.103  0.9342 -1.3737 -0.0374
  485TIP3    H222871   5.476   2.584   0.132 -0.9537  1.0616  1.9330
  486TIP3   OH222872   6.403   4.414   3.852 -0.0775  0.5144  0.2008
  486TIP3    H122873   6.355   4.469   3.914 -0.3919 -1.0536  1.3954
  486TIP3    H222874   6.356   4.423   3.769 -1.1206  0.7291  0.8070
  487TIP3   OH222875   2.706   2.866   5.450  0.5850  0.4484 -0.9283
  487TIP3    H122876   2.615   2.838   5.440  0.1440  1.9165 -1.1585
  487TIP3    H222877   2.720   2.867   5.545  0.4624 -0.0944 -0.9033
  488TIP3   OH222878   2.878   2.664   5.365  0.1858 -0.4539  0.2446
  488TIP3    H122879   2.829   2.740   5.396 -1.9302 -1.8759  0.4601
  488TIP3    H222880   2.906   2.619   5.444 -2.4161 -2.3069  0.1562
  489TIP3   OH222881   0.127   0.549  12.511  0.0096 -0.5209  0.2845
  489TIP3    H122882   0.212   0.547  12.555 -0.1263  0.5914  0.6136
  489TIP3    H222883   0.068   0.504  12.572  0.1604 -0.4471  0.4868
  490TIP3   OH222884   1.867   2.558   3.283 -0.5736 -0.0992 -0.5940
  490TIP3    H122885   1.863   2.608   3.364  1.1441  2.2993 -1.9284
  490TIP3    H222886   1.959   2.533   3.274 -0.3083  1.5531 -2.8659
  491TIP3   OH222887   4.764   4.940   4.055 -0.2740  0.3546  0.8608
  491TIP3    H122888   4.768   5.016   4.114 -0.2503  1.2551 -0.2728
  491TIP3    H222889   4.739   4.977   3.971 -0.5602 -0.9543  0.3591
  492TIP3   OH222890   6.658   3.031   2.992 -0.2219  0.7397  0.0846
  492TIP3    H122891   6.661   3.126   2.986 -2.6507  0.8749  0.4740
  492TIP3    H222892   6.611   3.003   2.913 -0.8664  0.0084  0.7046
  493TIP3   OH222893   0.038   3.729  14.598 -0.2753  0.2376 -0.4707
  493TIP3    H122894   0.026   3.780  14.678 -0.4244 -2.7697  1.4578
  493TIP3    H222895  -0.043   3.745  14.548 -0.1092  2.2553 -0.1335
  494TIP3   OH222896   0.922   0.256  10.741  0.1153 -0.1163  0.1552
  494TIP3    H122897   0.908   0.184  10.803  0.7017 -0.8211 -0.5132
  494TIP3    H222898   0.894   0.334  10.788 -0.2635 -0.7514  0.9977
  495TIP3   OH222899   5.433   4.401  14.113 -0.0255  0.2652  0.3140
  495TIP3    H122900   5.424   4.311  14.145  0.7336  0.2804  0.5710
  495TIP3    H222901   5.404   4.398  14.022  1.6905 -0.6059 -0.2205
  496TIP3   OH222902   2.708   3.189  15.600 -0.4093  0.3526  0.0181
  496TIP3    H122903   2.617   3.172  15.578 -0.4466  0.2602  0.2456
  496TIP3    H222904   2.742   3.239  15.525 -0.7201  0.6242  0.0551
  497TIP3   OH222905   0.033   5.842  11.402  0.5440 -0.1605  0.2505
  497TIP3    H122906   0.067   5.931  11.391 -0.3171  0.0321 -1.0428
  497TIP3    H222907  -0.040   5.837  11.340  0.2382 -1.5912  0.7094
  498TIP3   OH222908   5.378   3.984  16.076 -0.4466 -0.1404 -0.1693
  498TIP3    H122909   5.344   4.051  16.134 -1.8841 -0.5070 -0.5667
  498TIP3    H222910   5.378   4.025  15.989  0.4707 -0.0236 -0.1177
  499TIP3   OH222911   5.201   4.517   1.630 -0.6905 -0.6278  0.1954
  499TIP3    H122912   5.204   4.448   1.564  2.4251  0.3493 -0.7361
  499TIP3    H222913   5.170   4.595   1.584  1.1253 -0.0394 -0.0735
  500TIP3   OH222914   0.108   4.028   3.669  0.4564 -0.4042  0.5456
  500TIP3    H122915   0.053   3.950   3.660  0.7696 -0.4936 -0.6298
  500TIP3    H222916   0.158   4.032   3.588  0.6684  0.8526  0.7269
  501TIP3   OH222917   1.441   0.283  15.783 -0.3948  0.5271 -0.3980
  501TIP3    H122918   1.363   0.247  15.740  0.2040  0.5936 -1.5545
  501TIP3    H222919   1.459   0.365  15.736 -0.8697  1.6025  1.2467
  502TIP3   OH222920   2.987   4.510  10.771  0.1646 -0.4684  0.1473
  502TIP3    H122921   3.058   4.448  10.788  0.8683  0.5886  1.0986
  502TIP3    H222922   2.911   4.455  10.753  1.3696 -1.6328 -1.6278
  503TIP3   OH222923   5.168   3.799  14.000  0.1943  0.0193 -1.0533
  503TIP3    H122924   5.157   3.714  13.958 -0.4299  0.2928 -1.4498
  503TIP3    H222925   5.214   3.852  13.934 -0.6674  0.4091 -1.3455
  504TIP3   OH222926   3.079   2.824   0.475 -0.7039  0.1838 -0.1068
  504TIP3    H122927   3.153   2.870   0.516 -0.5632 -0.8438  0.8428
  504TIP3    H222928   3.115   2.786   0.395 -0.4466  0.5046 -0.1413
  505TIP3   OH222929   5.740   2.217  16.505 -0.3980 -0.1213  0.3171
  505TIP3    H122930   5.691   2.135  16.503 -0.5804 -0.0107  0.1582
  505TIP3    H222931   5.774   2.227  16.416 -0.5658  0.0869  0.2749
  506TIP3   OH222932   3.325   1.966   1.615 -0.4168 -0.2419 -0.3824
  506TIP3    H122933   3.282   1.932   1.694 -0.1316 -0.3539 -0.2758
  506TIP3    H222934   3.313   2.061   1.621 -0.3531 -0.2450 -0.1792
  507TIP3   OH222935   6.217   2.921   2.602  0.2822 -0.5771  0.0434
  507TIP3    H122936   6.256   2.998   2.645 -0.6181  1.1870 -2.1780
  507TIP3    H222937   6.292   2.865   2.582  1.5372  1.7894 -2.2470
  508TIP3   OH222938   0.146   3.730  11.248  0.3017  0.1955 -0.5770
  508TIP3    H122939   0.186   3.814  11.224 -0.3816  1.0734  1.3464
  508TIP3    H222940   0.206   3.693  11.312 -0.8231  0.5098  0.6699
  509TIP3   OH222941   5.015   1.745   0.687  1.1217 -0.7596  0.0958
  509TIP3    H122942   4.959   1.667   0.692 -1.0751  0.8174  1.4088
  509TIP3    H222943   5.079   1.733   0.757 -0.1054 -0.7770  1.2596
  510TIP3   OH222944   6.566   3.554   1.586  0.6227 -1.0217  0.6485
  510TIP3    H122945   6.618   3.613   1.531  0.5225 -1.3358  0.2120
  510TIP3    H222946   6.513   3.613   1.640  2.0757 -0.6980  1.7218
  511TIP3   OH222947   2.154   4.411  15.579  0.8533 -0.4794  0.1076
  511TIP3    H122948   2.171   4.332  15.631 -0.0355 -2.2617 -2.1830
  511TIP3    H222949   2.062   4.402  15.553  1.0227  0.8366 -0.9655
  512TIP3   OH222950   5.022   2.150  12.335 -0.6477 -0.1207  0.5587
  512TIP3    H122951   5.096   2.162  12.276 -0.2580  2.3961  1.4717
  512TIP3    H222952   4.945   2.152  12.278 -0.1817  0.5650 -0.0552
  513TIP3   OH222953   3.041   6.638   3.788 -0.3278  0.2929  0.3882
  513TIP3    H122954   3.063   6.589   3.708  0.8329  1.4008  0.0195
  513TIP3    H222955   2.964   6.593   3.823  0.4126 -1.4966 -0.2256
  514TIP3   OH222956   1.494   0.436  17.086  0.1514  0.3034  0.4561
  514TIP3    H122957   1.400   0.434  17.103  0.1230 -0.1730  0.2472
  514TIP3    H222958   1.532   0.376  17.150  0.0559 -1.3991 -1.0302
  515TIP3   OH222959   0.249   4.916   4.489  0.3312 -0.4868 -0.4654
  515TIP3    H122960   0.282   4.900   4.401 -0.7280  1.3294 -1.2101
  515TIP3    H222961   0.160   4.948   4.476  0.5907  0.9693  1.2038
  516TIP3   OH222962   6.361   4.542   3.374  0.4817  0.2004 -0.0522
  516TIP3    H122963   6.314   4.482   3.317  1.7897 -0.8453 -0.0630
  516TIP3    H222964   6.446   4.553   3.332  0.4571  1.6226  0.2460
  517TIP3   OH222965   1.434   6.098   5.503 -0.1327  0.4240 -0.0120
  517TIP3    H122966   1.453   6.178   5.454  1.5221 -0.3662 -0.6878
  517TIP3    H222967   1.388   6.128   5.581  1.3647  2.1352  0.2269
  518TIP3   OH222968   1.763   5.414   2.389 -0.4049 -0.1981 -0.1276
  518TIP3    H122969   1.736   5.486   2.445 -1.8535  0.7867 -2.0146
  518TIP3    H222970   1.857   5.426   2.379 -0.0221 -0.7264  2.4979
  519TIP3   OH222971   3.630   1.227   4.109  0.3833  0.1772  0.2776
  519TIP3    H122972   3.548   1.194   4.072 -0.1595  1.2447  0.5234
  519TIP3    H222973   3.693   1.157   4.091 -1.4503 -2.5515  3.7505
  520TIP3   OH222974   5.136   5.020   0.879 -0.6157 -0.0966  0.0178
  520TIP3    H122975   5.216   4.974   0.908  0.2891  1.4785  0.0528
  520TIP3    H222976   5.098   4.961   0.813  1.1633 -0.3766 -0.7909
  521TIP3   OH222977   0.614   1.303   6.397  0.2010 -0.5206 -0.8824
  521TIP3    H122978   0.602   1.371   6.463 -0.8399 -0.8739 -0.6911
  521TIP3    H222979   0.613   1.221   6.446  0.8006 -0.7143 -1.1876
  522TIP3   OH222980   3.820   4.573   3.742 -0.0908 -0.0037  0.4227
  522TIP3    H122981   3.783   4.611   3.822  0.8126 -0.1649  0.9182
  522TIP3    H222982   3.910   4.606   3.739 -0.3308  0.5962 -0.9162
  523TIP3   OH222983   4.819   3.428  13.814 -0.3979 -0.6822  0.1173
  523TIP3    H122984   4.736   3.473  13.828  0.3371  0.4133  0.9641
  523TIP3    H222985   4.846   3.398  13.901  0.5651 -0.1876 -0.0026
  524TIP3   OH222986   0.145   5.575  14.047 -0.4279  0.3453  0.2977
  524TIP3    H122987   0.166   5.506  13.985 -0.9050  0.0783  0.4334
  524TIP3    H222988   0.149   5.532  14.133 -2.2024  0.1248  0.2796
  525TIP3   OH222989   5.410   6.676  16.741  0.2986  0.4393 -0.1446
  525TIP3    H122990   5.497   6.694  16.776  0.7715  0.9035 -1.5260
  525TIP3    H222991   5.412   6.712  16.652 -1.7498  1.6655  0.2778
  526TIP3   OH222992   3.544   2.337  15.378 -0.2006  0.3670  0.0146
  526TIP3    H122993   3.632   2.354  15.344 -0.0231  0.0511  0.3054
  526TIP3    H222994   3.558   2.274  15.449 -0.5775  0.9455  0.6069
  527TIP3   OH222995   2.226   2.909  13.006  0.3540  0.2865  0.3998
  527TIP3    H122996   2.150   2.968  13.004  0.2986  0.2036  0.0309
  527TIP3    H222997   2.205   2.845  13.074  0.2196  0.4345  0.4976
  528TIP3   OH222998   0.466   1.218  11.278 -0.6329 -0.1458 -0.3520
  528TIP3    H122999   0.525   1.266  11.220  0.4668 -2.3654 -1.1667
  528TIP3    H223000   0.383   1.213  11.230  0.1742 -1.6816 -1.6320
  529TIP3   OH223001   2.014   5.219  14.805 -0.6409 -0.2839 -0.4989
  529TIP3    H123002   2.090   5.195  14.858 -0.6881  1.0730  0.2150
  529TIP3    H223003   2.010   5.315  14.811 -2.5584 -0.3554 -0.3038
  530TIP3   OH223004   6.058   6.605   0.945 -0.2765 -0.1941 -0.1955
  530TIP3    H123005   6.062   6.698   0.967 -0.5252  0.1362 -1.4907
  530TIP3    H223006   6.082   6.559   1.026  3.9367  1.0773 -0.6396
  531TIP3   OH223007   3.245   6.456   2.568  0.6473  0.2274 -0.3984
  531TIP3    H123008   3.194   6.423   2.494  1.3614  0.6828 -1.1199
  531TIP3    H223009   3.334   6.425   2.551  1.2422  2.0923 -0.8553
  532TIP3   OH223010   6.254   1.172  12.179  0.6746 -0.3148 -0.5244
  532TIP3    H123011   6.289   1.251  12.219 -0.9452  0.8522 -1.3335
  532TIP3    H223012   6.329   1.113  12.172  2.3501  1.8545 -1.6259
  533TIP3   OH223013   4.447   1.824  11.193  0.2321 -0.3626  0.0891
  533TIP3    H123014   4.356   1.828  11.222 -0.0150 -0.9357 -0.5905
  533TIP3    H223015   4.446   1.860  11.105  0.8463  0.6148  0.4795
  534TIP3   OH223016   4.288   5.386   0.204  0.0423  0.1740  0.0420
  534TIP3    H123017   4.329   5.331   0.271  0.9217 -0.5796 -1.1077
  534TIP3    H223018   4.331   5.471   0.213 -0.2497  0.2452  0.8120
  535TIP3   OH223019   3.666   3.152   3.976  0.4640  0.7549 -0.5670
  535TIP3    H123020   3.732   3.085   3.960 -0.5037 -0.6481  1.0890
  535TIP3    H223021   3.714   3.235   3.974  1.5877  0.0844 -3.1962
  536TIP3   OH223022   4.545   3.134   5.177  0.3851  0.1466  0.5834
  536TIP3    H123023   4.506   3.138   5.090 -1.3244  0.0957  1.3310
  536TIP3    H223024   4.550   3.226   5.205  1.1770  0.1845  0.3443
  537TIP3   OH223025   6.130   1.744   5.775 -0.1809  0.2642  0.4698
  537TIP3    H123026   6.175   1.820   5.812  2.0605 -1.2402  0.9280
  537TIP3    H223027   6.135   1.678   5.843  0.5889 -1.2830 -1.0617
  538TIP3   OH223028   4.442   0.870   6.646  0.1881 -0.1190 -0.5359
  538TIP3    H123029   4.503   0.908   6.582  0.5864 -2.9360 -1.9369
  538TIP3    H223030   4.407   0.792   6.601 -1.2734 -0.8637  1.8292
  539TIP3   OH223031   3.786   5.235   4.667  0.0037 -0.7488 -0.0972
  539TIP3    H123032   3.838   5.220   4.588  0.3476 -0.4324  0.0671
  539TIP3    H223033   3.755   5.326   4.658  1.1911 -0.2527  0.7967
  540TIP3   OH223034   4.390   0.211   0.315  0.6793 -0.5113  0.4270
  540TIP3    H123035   4.394   0.233   0.408  0.9738 -3.1197  1.0660
  540TIP3    H223036   4.304   0.172   0.303  0.6898 -0.3031 -0.3913
  541TIP3   OH223037   6.067   0.768  12.271 -0.2100 -0.1202  0.0679
  541TIP3    H123038   6.100   0.684  12.239  0.7882  0.8467 -1.5203
  541TIP3    H223039   6.050   0.753  12.364  1.6089 -1.5774  0.2015
  542TIP3   OH223040   2.661   6.326  14.864 -0.4224 -0.0457  0.9074
  542TIP3    H123041   2.633   6.236  14.849 -0.1942 -0.4124  2.4992
  542TIP3    H223042   2.589   6.380  14.833 -0.8558 -0.8124  0.5767
  543TIP3   OH223043   6.057   2.966  16.495 -0.4792  0.4967  0.2824
  543TIP3    H123044   6.143   2.959  16.535 -0.0444  1.0394 -0.5606
  543TIP3    H223045   6.003   2.904  16.544  0.2628  0.5286  1.1384
  544TIP3   OH223046   2.021   6.046   1.987  0.3753 -0.3821 -0.1405
  544TIP3    H123047   2.063   5.987   2.049  0.0049 -2.1582 -1.5375
  544TIP3    H223048   1.931   6.014   1.979  0.2802  0.1012 -1.2184
  545TIP3   OH223049   2.751   5.406  16.052 -0.3304  0.7997  0.0419
  545TIP3    H123050   2.725   5.315  16.068 -2.0026  1.3615  0.5732
  545TIP3    H223051   2.811   5.427  16.123 -1.4580  0.7245  1.0240
  546TIP3   OH223052   2.549   6.774  14.897  0.1469 -0.2091  0.4912
  546TIP3    H123053   2.478   6.762  14.961 -0.7256 -1.0588 -0.6288
  546TIP3    H223054   2.628   6.779  14.951 -0.3464 -2.8995  1.5500
  547TIP3   OH223055   5.610   2.651   2.516 -0.1241 -0.2731  0.1300
  547TIP3    H123056   5.649   2.730   2.554  0.7682 -0.6890  0.0915
  547TIP3    H223057   5.612   2.587   2.587 -1.6502 -0.0079  0.4306
  548TIP3   OH223058   4.880   3.123   5.819 -0.5212  0.2664  0.3825
  548TIP3    H123059   4.852   3.205   5.859 -0.9520  0.7239 -0.8588
  548TIP3    H223060   4.912   3.071   5.893 -0.4535  1.4517  1.2023
  549TIP3   OH223061   3.461   0.536  16.647 -0.3488 -0.0473 -0.1516
  549TIP3    H123062   3.507   0.467  16.597 -1.9209 -0.7348 -0.6773
  549TIP3    H223063   3.464   0.612  16.589  3.0422  0.9492  1.1911
  550TIP3   OH223064   5.545   1.122  13.602  0.0768 -0.2256  0.4423
  550TIP3    H123065   5.510   1.043  13.644  0.9534 -1.6426 -1.3917
  550TIP3    H223066   5.637   1.101  13.585 -0.3393  0.0868 -2.5479
  551TIP3   OH223067   1.391   4.597   4.727 -0.3174 -0.2360 -0.2778
  551TIP3    H123068   1.305   4.560   4.747 -0.3838 -0.1697 -0.4437
  551TIP3    H223069   1.393   4.681   4.774 -0.0147 -0.6300  0.4236
  552TIP3   OH223070   4.443   0.888   5.418  0.0609  0.3413  0.3913
  552TIP3    H123071   4.417   0.833   5.492  0.4460 -0.7650 -0.2808
  552TIP3    H223072   4.384   0.861   5.347  0.8504  0.1590 -0.1965
  553TIP3   OH223073   3.405   4.896  14.062 -0.3167 -0.4794  1.0506
  553TIP3    H123074   3.369   4.982  14.040 -0.0817 -0.7611 -0.5123
  553TIP3    H223075   3.340   4.834  14.028  1.4668 -0.9832 -1.5792
  554TIP3   OH223076   0.127   3.810   0.669 -0.2113  0.1248  0.8840
  554TIP3    H123077   0.149   3.722   0.637 -0.4822  0.8749 -1.4559
  554TIP3    H223078   0.031   3.814   0.663 -0.3496 -0.0420  2.7171
  555TIP3   OH223079   2.618   3.508  11.891  0.1360  0.1078 -0.6616
  555TIP3    H123080   2.541   3.451  11.891 -0.3685  0.7654  0.4067
  555TIP3    H223081   2.592   3.583  11.838 -0.9248  1.5351  1.7477
  556TIP3   OH223082   0.004   2.351  12.998 -0.3286  0.2522 -0.5730
  556TIP3    H123083   0.015   2.437  12.958 -2.3730  0.9428  0.2909
  556TIP3    H223084   0.090   2.309  12.990  0.5295  2.1497 -1.4874
  557TIP3   OH223085   2.665   0.891   3.966  0.4066  0.0762  0.0601
  557TIP3    H123086   2.646   0.816   4.023 -0.8020  0.2540 -0.0932
  557TIP3    H223087   2.587   0.945   3.972  0.9568  0.9355 -0.4620
  558TIP3   OH223088   1.429   0.814  10.550 -0.1878 -0.4411  0.6101
  558TIP3    H123089   1.437   0.851  10.638  1.1873  0.1977  0.2368
  558TIP3    H223090   1.370   0.873  10.504  2.1533  1.5066 -0.0492
  559TIP3   OH223091   2.729   4.101  16.278 -0.2365  0.8225 -0.2382
  559TIP3    H123092   2.732   4.013  16.316  1.4968  2.0918  2.7241
  559TIP3    H223093   2.817   4.115  16.243 -0.2591  1.6976  0.0478
  560TIP3   OH223094   2.765   3.819  15.617  0.5172  0.0222 -0.2244
  560TIP3    H123095   2.770   3.899  15.669 -0.5919  0.5449 -0.9161
  560TIP3    H223096   2.817   3.838  15.539 -0.7700  0.5104 -0.9643
  561TIP3   OH223097   3.657   3.238  12.222  0.0859  0.1980 -0.0847
  561TIP3    H123098   3.726   3.299  12.247  0.2981 -0.1125  0.0802
  561TIP3    H223099   3.665   3.231  12.126  0.1812  0.2836 -0.0825
  562TIP3   OH223100   6.344   2.361   5.998  0.0861 -0.4398 -0.4823
  562TIP3    H123101   6.322   2.379   6.089 -0.4877 -0.7545 -0.5549
  562TIP3    H223102   6.402   2.285   6.002 -1.0917 -1.3562 -0.4634
  563TIP3   OH223103   1.725   2.085  15.128  0.2057  0.0982 -0.4758
  563TIP3    H123104   1.655   2.115  15.070 -0.2095 -0.8943 -0.4943
  563TIP3    H223105   1.773   2.165  15.151 -1.3216  0.8908  0.0611
  564TIP3   OH223106   6.071   4.207  15.591 -0.4857  0.1831 -0.0066
  564TIP3    H123107   6.162   4.183  15.573 -0.9452 -0.0250 -2.3093
  564TIP3    H223108   6.032   4.127  15.627  0.7195  0.8933  2.9754
  565TIP3   OH223109   2.779   5.667   2.702  0.1441  0.2102 -0.1124
  565TIP3    H123110   2.734   5.738   2.657  1.1549  0.3417 -0.9329
  565TIP3    H223111   2.723   5.590   2.688 -0.0826  0.4785 -0.6844
  566TIP3   OH223112   3.577   0.794  11.199 -0.1601  0.4889  0.4180
  566TIP3    H123113   3.627   0.746  11.133 -0.7425 -2.3247  1.9502
  566TIP3    H223114   3.486   0.773  11.181 -0.5434  2.2991  0.1655
  567TIP3   OH223115   2.669   3.550   2.579 -0.0307 -0.1949 -0.2012
  567TIP3    H123116   2.680   3.643   2.598 -0.6945 -0.2281  0.3272
  567TIP3    H223117   2.595   3.522   2.632  0.2774 -1.0729 -0.2194
  568TIP3   OH223118   1.162   0.676  15.245  0.0591  0.1627  0.0686
  568TIP3    H123119   1.074   0.681  15.283  0.1518 -2.3688  0.7405
  568TIP3    H223120   1.146   0.649  15.154  0.1156  0.0836  0.0819
  569TIP3   OH223121   3.950   3.622   5.594  0.3815 -0.2529 -0.0424
  569TIP3    H123122   4.042   3.610   5.573  0.3317 -1.5399  0.4097
  569TIP3    H223123   3.939   3.716   5.606  1.3926  0.0206 -1.2041
  570TIP3   OH223124   3.181   5.363   6.494  0.2667 -0.0773  0.0574
  570TIP3    H123125   3.118   5.391   6.427 -0.5261 -0.7445  0.5059
  570TIP3    H223126   3.126   5.336   6.568  1.1170  0.1731  0.7857
  571TIP3   OH223127   1.136   6.654  14.476  0.1233 -0.4796 -0.2128
  571TIP3    H123128   1.126   6.606  14.557  0.8192  1.0846  0.8289
  571TIP3    H223129   1.065   6.623  14.420 -1.6043 -0.0830  1.7313
  572TIP3   OH223130   1.530   4.726   2.932 -0.8397  0.1987  0.5411
  572TIP3    H123131   1.505   4.726   3.025 -0.4932  1.8511  0.6529
  572TIP3    H223132   1.487   4.803   2.896 -0.6491 -0.2209 -0.5924
  573TIP3   OH223133   2.102   3.384  15.869 -0.2154 -0.1500 -0.7850
  573TIP3    H123134   2.146   3.361  15.787 -1.5506 -1.8119 -1.0534
  573TIP3    H223135   2.011   3.400  15.844 -0.5942 -0.5017  0.3529
  574TIP3   OH223136   4.321   3.169  16.520 -0.6929 -0.4513 -0.4983
  574TIP3    H123137   4.255   3.221  16.474 -0.6330  0.6216  0.6297
  574TIP3    H223138   4.387   3.150  16.453 -0.8195  0.7345 -0.9744
  575TIP3   OH223139   2.240   6.652   5.014 -0.2710 -0.5222  0.8478
  575TIP3    H123140   2.274   6.658   5.104  0.6034  2.0537  0.3704
  575TIP3    H223141   2.315   6.625   4.962 -0.8615 -2.3621  0.8882
  576TIP3   OH223142   2.405   6.003  16.779 -0.0201 -0.4959  0.3844
  576TIP3    H123143   2.355   6.084  16.765 -0.3581 -0.6128  0.8902
  576TIP3    H223144   2.459   6.021  16.856  2.5169  0.4758 -1.5385
  577TIP3   OH223145   5.571   1.461   1.155  0.0764  0.5506 -0.5836
  577TIP3    H123146   5.593   1.546   1.193 -1.9465  0.0688  1.8243
  577TIP3    H223147   5.618   1.459   1.072  2.8871  2.6194  0.8395
  578TIP3   OH223148   1.361   5.749   1.695  0.0051 -0.3936  0.0618
  578TIP3    H123149   1.414   5.675   1.725  0.0322 -0.0904  0.7834
  578TIP3    H223150   1.279   5.710   1.666 -0.5428 -0.5990  1.7814
  579TIP3   OH223151   6.409   2.833   3.368  0.2826 -0.4310 -0.0380
  579TIP3    H123152   6.357   2.757   3.344 -0.0888 -0.1834 -0.0174
  579TIP3    H223153   6.361   2.908   3.332 -0.9682  0.0640  2.5270
  580TIP3   OH223154   1.442   5.698  12.254 -0.0227  0.2130 -0.1157
  580TIP3    H123155   1.459   5.769  12.316 -0.5388 -0.1696  0.4745
  580TIP3    H223156   1.412   5.742  12.175  2.2558  0.7987 -0.6671
  581TIP3   OH223157   0.111   4.676  16.850  0.5581  0.2457 -0.3739
  581TIP3    H123158   0.131   4.768  16.865 -0.9509  0.4097  0.7332
  581TIP3    H223159   0.051   4.676  16.775 -0.5680  0.2787  0.5234
  582TIP3   OH223160   0.961   4.237   3.101 -0.0345 -0.2743 -0.3710
  582TIP3    H123161   0.933   4.300   3.034 -0.9202 -0.9570 -0.6573
  582TIP3    H223162   0.953   4.285   3.183 -0.6398  0.0130 -0.5934
  583TIP3   OH223163   0.876   4.203   4.680 -0.3549  0.1852  0.2272
  583TIP3    H123164   0.878   4.113   4.649  1.5834  0.0063  0.7659
  583TIP3    H223165   0.876   4.256   4.600  1.2942 -0.2920 -0.1093
  584TIP3   OH223166   2.814   5.798   1.635 -0.0668 -0.1960 -0.3655
  584TIP3    H123167   2.870   5.788   1.713 -1.5957 -0.3614  0.7389
  584TIP3    H223168   2.872   5.779   1.562  1.2146 -0.8640  0.7886
  585TIP3   OH223169   4.609   6.416  12.674  0.2080  0.2417  0.7875
  585TIP3    H123170   4.560   6.339  12.702 -1.1876  0.5402 -0.7939
  585TIP3    H223171   4.700   6.394  12.694 -0.1967 -1.6811  0.6490
  586TIP3   OH223172   3.404   5.897  15.387  0.0438 -0.8536 -0.2233
  586TIP3    H123173   3.467   5.969  15.394 -2.3659  1.0765  2.2272
  586TIP3    H223174   3.410   5.851  15.471 -1.5875 -0.8575 -0.0986
  587TIP3   OH223175   0.307   4.075  16.444 -0.4986  0.1551 -0.0543
  587TIP3    H123176   0.361   4.099  16.520 -0.5858 -0.0057  0.0577
  587TIP3    H223177   0.339   4.131  16.373 -0.6194  0.5203  0.1774
  588TIP3   OH223178   1.205   1.103   5.988  0.1906  0.2211 -0.6698
  588TIP3    H123179   1.201   1.008   5.985  1.8508  0.0154  2.0513
  588TIP3    H223180   1.270   1.127   5.922  2.5048 -0.8290  1.1705
  589TIP3   OH223181   0.894   0.906  12.708  0.0322  0.5876  0.1516
  589TIP3    H123182   0.979   0.896  12.751  1.1198 -0.6699 -2.1953
  589TIP3    H223183   0.910   0.972  12.640 -0.6687 -0.1926 -0.7820
  590TIP3   OH223184   5.530   0.030  13.347 -0.0753 -0.3823  0.8191
  590TIP3    H123185   5.556   0.025  13.439  1.6561 -1.1998  0.2965
  590TIP3    H223186   5.523  -0.061  13.318 -0.1337 -0.1265  0.0106
  591TIP3   OH223187   0.458   6.134  17.119  0.3967 -0.3488  0.2968
  591TIP3    H123188   0.365   6.153  17.110  0.7157  0.8049 -0.7566
  591TIP3    H223189   0.480   6.168  17.206  0.0491  0.3539  0.1198
  592TIP3   OH223190   5.958   0.239   5.654 -0.0241  0.2415 -0.0565
  592TIP3    H123191   5.989   0.166   5.707 -0.8056 -0.4559 -0.5630
  592TIP3    H223192   5.931   0.305   5.718 -0.9379 -0.5855  0.4307
  593TIP3   OH223193   1.428   6.474   4.723 -0.2615 -0.7180 -0.2227
  593TIP3    H123194   1.377   6.518   4.655 -0.4848 -1.1024 -0.3037
  593TIP3    H223195   1.498   6.536   4.745 -0.6273 -0.2877 -0.2754
  594TIP3   OH223196   4.244   3.667  12.989  0.4262  0.1158  0.2927
  594TIP3    H123197   4.265   3.731  12.921  2.7078 -0.0412  0.8064
  594TIP3    H223198   4.305   3.685  13.060 -1.9489  0.3185  2.3831
  595TIP3   OH223199   2.847   6.443   3.912  0.1636  0.2516  0.1153
  595TIP3    H123200   2.778   6.483   3.965  0.6605  1.5031 -0.1768
  595TIP3    H223201   2.847   6.351   3.938  0.7390  0.9437  2.6487
  596TIP3   OH223202   6.205   5.266  16.126 -0.1478  0.2871 -0.2750
  596TIP3    H123203   6.209   5.262  16.030  0.2832 -1.1216 -0.2167
  596TIP3    H223204   6.128   5.319  16.145  1.0391  2.4681 -1.4132
  597TIP3   OH223205   5.193   4.190   0.810 -0.0392 -0.1548  0.4891
  597TIP3    H123206   5.129   4.124   0.835  0.8851 -1.2562 -0.0547
  597TIP3    H223207   5.141   4.260   0.770 -1.2433  0.3738  2.8921
  598TIP3   OH223208   1.459   3.306   5.355 -0.1768  0.2837  0.0339
  598TIP3    H123209   1.453   3.251   5.277 -1.4460 -0.1062  0.4070
  598TIP3    H223210   1.517   3.258   5.414  1.0893  0.7578 -0.8070
  599TIP3   OH223211   2.912   3.892  13.221 -0.1142  0.1682 -0.7425
  599TIP3    H123212   2.961   3.901  13.139 -0.7475  2.2920 -0.8958
  599TIP3    H223213   2.821   3.888  13.194 -0.2914  0.3157 -0.1709
  600TIP3   OH223214   2.820   5.089   6.822 -0.4568 -0.1577 -0.4148
  600TIP3    H123215   2.769   5.010   6.837 -2.1440  0.9888  0.0418
  600TIP3    H223216   2.815   5.137   6.904  0.8653  0.2799 -0.5629
  601TIP3   OH223217   1.103   5.587  10.620  0.3231 -0.5433 -0.1279
  601TIP3    H123218   1.175   5.647  10.637  0.3009 -0.9162  1.3302
  601TIP3    H223219   1.143   5.500  10.628  0.1427 -0.7344 -1.2612
  602TIP3   OH223220   3.806   4.841  10.795  0.4706 -0.3871  0.6216
  602TIP3    H123221   3.741   4.789  10.842 -0.6142 -0.4269 -0.8817
  602TIP3    H223222   3.843   4.781  10.731 -0.3247  0.4973 -0.6890
  603TIP3   OH223223   0.263   0.508   2.997  0.4117 -0.0134 -0.7694
  603TIP3    H123224   0.311   0.433   3.031 -0.1647 -0.0146  0.0493
  603TIP3    H223225   0.324   0.582   3.005 -0.1943  0.2573  1.5589
  604TIP3   OH223226   0.713   1.208   2.196 -0.1873  0.6041  0.8649
  604TIP3    H123227   0.764   1.286   2.218 -0.0487  0.2629  1.7715
  604TIP3    H223228   0.685   1.222   2.105  1.0717  1.0286  0.5381
  605TIP3   OH223229   0.957   1.015   3.418 -0.5225 -0.3219 -0.5919
  605TIP3    H123230   0.874   1.027   3.463  0.0349 -1.6537  0.8052
  605TIP3    H223231   1.021   1.002   3.488  0.6646 -0.5333 -1.6977
  606TIP3   OH223232   1.482   6.554   2.863  0.5082 -0.1257 -0.1161
  606TIP3    H123233   1.444   6.641   2.880 -0.4583 -0.6619  0.5125
  606TIP3    H223234   1.556   6.549   2.924  1.5176  0.8631 -1.2385
  607TIP3   OH223235   3.650   2.261   3.657 -0.6215  0.3544  0.4221
  607TIP3    H123236   3.742   2.270   3.633 -0.2606 -0.2285  1.5207
  607TIP3    H223237   3.652   2.247   3.752 -1.9058  1.4430  0.6197
  608TIP3   OH223238   1.857   3.117  14.590  0.3433 -0.4463  0.2152
  608TIP3    H123239   1.849   3.067  14.509 -0.6095  1.5061 -0.9482
  608TIP3    H223240   1.911   3.192  14.566  0.8004 -0.3221  1.6182
  609TIP3   OH223241   3.153   4.131   5.381 -0.2024 -0.3690  0.3022
  609TIP3    H123242   3.074   4.081   5.363 -0.0194  0.0910 -1.9329
  609TIP3    H223243   3.208   4.118   5.304  1.6661 -0.2117  1.5676
  610TIP3   OH223244   1.242   0.137   0.977 -0.7176  0.1850 -0.4489
  610TIP3    H123245   1.232   0.159   0.884  1.4845 -0.5755 -0.8906
  610TIP3    H223246   1.279   0.217   1.016  0.1014 -0.1101 -0.6014
  611TIP3   OH223247   4.333   3.856   3.170  0.1304 -0.1474  0.5794
  611TIP3    H123248   4.286   3.799   3.109  1.8029  1.0590 -1.9655
  611TIP3    H223249   4.269   3.922   3.195 -0.5717 -0.6141  0.0259
  612TIP3   OH223250   5.253   4.724  15.651 -0.0030  0.4483  0.0033
  612TIP3    H123251   5.300   4.742  15.570 -0.2373 -0.2855 -0.3003
  612TIP3    H223252   5.314   4.748  15.721  0.1967  1.0882 -0.3881
  613TIP3   OH223253   3.051   4.598   1.902  0.3955  0.2234  0.0094
  613TIP3    H123254   3.022   4.602   1.811  0.6516 -1.3775 -0.1447
  613TIP3    H223255   2.984   4.648   1.950 -0.3188  0.1589 -0.9066
  614TIP3   OH223256   3.635   4.391   2.658 -0.3634 -0.6729  0.4269
  614TIP3    H123257   3.605   4.341   2.734  1.9107 -2.2815  0.3285
  614TIP3    H223258   3.604   4.340   2.583 -2.2562  0.6985  0.2565
  615TIP3   OH223259   0.639   5.969  12.446 -0.2710 -0.0979  0.4174
  615TIP3    H123260   0.568   6.029  12.469  0.4976  0.9350  0.1367
  615TIP3    H223261   0.679   6.007  12.368  1.2593 -0.1042  1.1784
  616TIP3   OH223262   0.768   5.087  11.468  0.1566  0.3283  0.8236
  616TIP3    H123263   0.758   5.182  11.474 -2.5523  0.0386  1.3419
  616TIP3    H223264   0.834   5.065  11.534  0.0702  1.7123  1.3814
  617TIP3   OH223265   1.386   4.102   1.457 -0.6226  0.5326  0.3890
  617TIP3    H123266   1.379   4.008   1.478  0.0407  0.8001  1.8827
  617TIP3    H223267   1.325   4.115   1.384 -0.5889 -1.0989  0.0549
  618TIP3   OH223268   3.799   3.455   3.763  0.1222 -0.7579  0.1525
  618TIP3    H123269   3.857   3.525   3.733 -0.9897  0.4794  0.8110
  618TIP3    H223270   3.805   3.458   3.859  0.4564 -1.9000  0.1688
  619TIP3   OH223271   4.729   5.339   3.387 -0.3030  0.6219 -0.0930
  619TIP3    H123272   4.820   5.368   3.373  0.3031 -0.3315  1.7125
  619TIP3    H223273   4.733   5.287   3.467 -2.3283 -0.0581 -0.4171
  620TIP3   OH223274   2.050   2.521  12.510  0.6564 -0.2699  0.3487
  620TIP3    H123275   2.017   2.611  12.516  1.5479  0.0845 -0.0283
  620TIP3    H223276   2.097   2.518  12.426 -0.3288 -1.4089 -0.1965
  621TIP3   OH223277   1.719   0.385  16.397 -0.3989  0.2572 -1.0084
  621TIP3    H123278   1.730   0.394  16.492  1.1218 -0.3937 -1.1123
  621TIP3    H223279   1.792   0.329  16.370 -0.5875  0.7957 -2.6308
  622TIP3   OH223280   5.999   4.507  13.294 -0.2524 -0.3562 -0.5872
  622TIP3    H123281   5.972   4.576  13.234  0.0473  0.1238 -0.1773
  622TIP3    H223282   5.919   4.487  13.344 -0.1577  0.2404 -0.1815
  623TIP3   OH223283   2.309   4.853  14.821 -0.0272 -0.1742  0.0810
  623TIP3    H123284   2.291   4.770  14.778 -0.3620  0.1462 -0.4033
  623TIP3    H223285   2.404   4.853  14.835  0.5202  0.9354 -3.2421
  624TIP3   OH223286   2.792   5.153  16.164 -0.2029 -0.1079  0.1310
  624TIP3    H123287   2.865   5.117  16.214 -0.9488 -0.6667  0.8293
  624TIP3    H223288   2.714   5.123  16.210 -0.8689  0.9982 -0.2477
  625TIP3   OH223289   0.917   0.121   4.395  0.5069 -0.0880 -0.1153
  625TIP3    H123290   0.990   0.167   4.353 -1.0401  0.9706 -1.7140
  625TIP3    H223291   0.873   0.076   4.323 -1.0184  0.1100  0.6700
  626TIP3   OH223292   4.973   1.502  11.282 -0.3619  0.1605  0.1596
  626TIP3    H123293   5.047   1.442  11.274  0.3945  1.1742 -0.6927
  626TIP3    H223294   4.964   1.518  11.375  1.1887  0.8642  0.1995
  627TIP3   OH223295   4.279   4.109   0.145 -0.4657  0.0135  0.0310
  627TIP3    H123296   4.213   4.162   0.190 -1.3432 -0.5884 -0.5401
  627TIP3    H223297   4.293   4.034   0.204 -0.3764  0.0799  0.0954
  628TIP3   OH223298   3.101   2.942   1.308 -0.2412  0.4909  0.1976
  628TIP3    H123299   3.125   2.982   1.224  0.1368 -0.9318 -0.3912
  628TIP3    H223300   3.007   2.927   1.301  0.0373 -0.9669 -0.5694
  629TIP3   OH223301   2.684   2.449   5.377  0.3003  0.3549 -0.2905
  629TIP3    H123302   2.742   2.383   5.339  0.0933  0.1410 -0.2413
  629TIP3    H223303   2.739   2.495   5.441  0.3787  0.0619 -0.1458
  630TIP3   OH223304   3.722   1.393  13.430  0.0308 -0.5200 -0.1945
  630TIP3    H123305   3.711   1.379  13.336 -1.0595  2.6877 -0.5843
  630TIP3    H223306   3.632   1.403  13.463  0.5472  1.6827  0.6097
  631TIP3   OH223307   0.074   5.574  16.931 -0.5524 -0.0292  0.1979
  631TIP3    H123308   0.048   5.664  16.911  0.1880  0.3824  1.0232
  631TIP3    H223309   0.124   5.547  16.854 -1.5864 -0.0790 -0.4645
  632TIP3   OH223310   6.620   3.850  11.563  0.0163  0.1210  0.1511
  632TIP3    H123311   6.557   3.918  11.540  0.5266  0.3044 -0.6998
  632TIP3    H223312   6.669   3.887  11.636  0.5218  0.8117 -0.5345
  633TIP3   OH223313   6.658   6.460   1.987 -0.0646 -0.8354 -0.8935
  633TIP3    H123314   6.656   6.528   1.920  0.0570  0.1948  0.1294
  633TIP3    H223315   6.643   6.508   2.070  2.8660 -1.6497  0.1490
  634TIP3   OH223316   4.646   5.011  12.097 -0.2096 -0.0057  0.2204
  634TIP3    H123317   4.574   4.951  12.076  0.4768 -0.2515 -1.4572
  634TIP3    H223318   4.679   5.041  12.012  0.6138  1.3810  1.0017
  635TIP3   OH223319   6.729   2.437  14.755 -0.3627  0.8318 -0.0992
  635TIP3    H123320   6.697   2.526  14.739 -0.0332  0.8812 -0.4807
  635TIP3    H223321   6.651   2.389  14.785 -0.8682  0.8805 -1.3067
  636TIP3   OH223322   5.614   2.653   4.150 -0.6117 -1.0230  0.1822
  636TIP3    H123323   5.613   2.725   4.214  0.4935 -0.7131 -0.1352
  636TIP3    H223324   5.688   2.599   4.176 -0.7316 -1.4061 -0.2762
  637TIP3   OH223325   1.713   3.309   1.439  0.6063  0.4985  0.5531
  637TIP3    H123326   1.682   3.367   1.369  1.0720  0.4773  0.3285
  637TIP3    H223327   1.737   3.228   1.395  2.3108  0.9969  0.5241
  638TIP3   OH223328   2.665   4.435  12.147 -0.5092  0.2576  0.4149
  638TIP3    H123329   2.718   4.458  12.223  0.4472  1.3507 -0.5527
  638TIP3    H223330   2.723   4.380  12.093 -0.8071  0.3744 -0.0324
  639TIP3   OH223331   5.756   2.916   6.809  0.8097  0.4940 -0.3249
  639TIP3    H123332   5.772   2.850   6.742 -1.3796  1.5610 -1.9224
  639TIP3    H223333   5.796   2.996   6.774 -0.1795  1.0079 -0.3046
  640TIP3   OH223334   6.492   2.416  17.007  0.7257  0.3330  0.7463
  640TIP3    H123335   6.563   2.377  16.956  1.3485  2.4869 -0.0828
  640TIP3    H223336   6.482   2.504  16.972  0.3953  1.4816  3.5543
  641TIP3   OH223337   1.218   6.697   2.639  0.3190 -0.0276  0.0223
  641TIP3    H123338   1.205   6.677   2.732  0.3376 -0.8501 -0.1419
  641TIP3    H223339   1.175   6.781   2.626  0.0581 -0.0516  0.7119
  642TIP3   OH223340   6.025   0.159   3.983 -0.0680 -0.4817  0.2073
  642TIP3    H123341   5.936   0.130   3.963 -0.0505 -0.1072 -0.4020
  642TIP3    H223342   6.013   0.237   4.038 -0.1104 -0.4520  0.1549
  643TIP3   OH223343   2.438   5.602  11.669 -0.0164  0.0890 -0.3312
  643TIP3    H123344   2.444   5.646  11.584  0.0313 -0.4194 -0.5934
  643TIP3    H223345   2.431   5.509  11.647  1.7600 -0.2010  0.2620
  644TIP3   OH223346   3.654   2.769   2.286  0.2809  0.0560  0.2503
  644TIP3    H123347   3.606   2.795   2.207 -0.4006 -1.1676  0.2558
  644TIP3    H223348   3.633   2.836   2.350  1.1566  1.2908 -0.7107
  645TIP3   OH223349   1.185   6.705  14.155 -0.0380 -0.1022  0.0542
  645TIP3    H123350   1.149   6.784  14.194  1.5287  0.6120  0.0901
  645TIP3    H223351   1.271   6.694  14.196  1.5950  0.5552 -2.9907
  646TIP3   OH223352   3.667   3.654   5.751  0.8070 -0.1389  0.2129
  646TIP3    H123353   3.625   3.630   5.669  1.7211 -2.0356  0.2695
  646TIP3    H223354   3.740   3.593   5.759  0.7756  0.0726  2.3926
  647TIP3   OH223355   6.715   6.552   5.245 -0.2056 -0.3357 -0.0323
  647TIP3    H123356   6.659   6.629   5.252  0.7222  0.3262  0.0694
  647TIP3    H223357   6.753   6.557   5.157  0.2805 -0.3802  0.1732
  648TIP3   OH223358   4.842   5.656  11.531 -0.0161  0.7744  0.1221
  648TIP3    H123359   4.894   5.674  11.454 -2.3060 -1.4625 -2.0697
  648TIP3    H223360   4.773   5.722  11.530  0.9923  1.8611  1.3040
  649TIP3   OH223361   3.995   2.762  12.950  0.1487  0.2935  0.2156
  649TIP3    H123362   3.935   2.687  12.959 -0.8216  1.2573  2.1195
  649TIP3    H223363   4.016   2.764  12.857 -3.4458  0.4202 -0.6979
  650TIP3   OH223364   1.513   6.552   0.846 -0.1445 -0.8616  1.2114
  650TIP3    H123365   1.447   6.495   0.885 -1.2703 -1.9391 -2.1157
  650TIP3    H223366   1.464   6.627   0.813  0.3820 -1.2823 -0.5611
  651TIP3   OH223367   0.022   2.648  13.703  0.7131  0.2688  0.1884
  651TIP3    H123368  -0.058   2.617  13.745  1.1717 -1.0483  0.1067
  651TIP3    H223369   0.093   2.602  13.748  1.2933 -0.1406 -1.0987
  652TIP3   OH223370   3.540   4.031   4.050  0.0522 -0.1434  0.0034
  652TIP3    H123371   3.482   4.107   4.041  0.1961 -0.1922 -1.6204
  652TIP3    H223372   3.598   4.038   3.974 -1.1393 -2.8807 -1.2159
  653TIP3   OH223373   0.533   0.888  15.001  0.4267 -0.5624 -0.5487
  653TIP3    H123374   0.609   0.841  15.034  0.2214 -0.1832  0.5023
  653TIP3    H223375   0.532   0.970  15.050 -1.0061 -0.8343 -0.0967
  654TIP3   OH223376   0.794   5.490   5.031  0.8871  0.6279  0.4005
  654TIP3    H123377   0.735   5.557   4.996 -0.1991 -1.2354 -1.4443
  654TIP3    H223378   0.882   5.524   5.014  0.3588  2.0014  0.3336
  655TIP3   OH223379   5.075   2.127   0.773 -0.3911 -0.3188 -0.4532
  655TIP3    H123380   5.073   2.073   0.694 -0.1423  1.9691 -2.0702
  655TIP3    H223381   5.084   2.217   0.740  0.1260  0.6314  2.1948
  656TIP3   OH223382   2.951   0.725   4.830 -0.8765 -0.1373  0.0238
  656TIP3    H123383   2.892   0.649   4.824 -0.9572 -0.1452  0.8270
  656TIP3    H223384   3.027   0.700   4.778 -2.0243  0.3091 -1.9445
  657TIP3   OH223385   0.143   1.373  13.885  0.5840 -0.7332  0.2026
  657TIP3    H123386   0.220   1.422  13.856  0.2647  0.0227  0.6384
  657TIP3    H223387   0.139   1.388  13.979 -0.1745 -0.6735  0.1560
  658TIP3   OH223388   5.955   4.745  15.265  0.0803  0.1800  0.0721
  658TIP3    H123389   5.912   4.721  15.183 -0.7022  0.8611  0.2723
  658TIP3    H223390   5.923   4.682  15.329 -0.0215  0.2147  0.0560
  659TIP3   OH223391   5.532   1.863  13.370  0.1623 -0.1151  0.2437
  659TIP3    H123392   5.461   1.818  13.415  1.2476 -1.3906  0.7257
  659TIP3    H223393   5.546   1.812  13.290  1.0179 -0.2939  0.5035
  660TIP3   OH223394   2.747   1.971  16.392 -0.0554 -0.1944 -0.5675
  660TIP3    H123395   2.788   1.965  16.479 -2.5542  0.3242  0.7046
  660TIP3    H223396   2.671   1.912  16.398 -1.7285  1.7965 -1.5038
  661TIP3   OH223397   2.634   0.421   5.719 -0.0889  0.3078  0.3648
  661TIP3    H123398   2.556   0.411   5.775 -0.8418  1.7943 -0.3853
  661TIP3    H223399   2.707   0.397   5.776 -1.0265 -0.2598  1.3506
  662TIP3   OH223400   4.370   0.616  17.121  0.0712  0.6346  0.1202
  662TIP3    H123401   4.390   0.690  17.063  0.4190  0.6550  0.2642
  662TIP3    H223402   4.439   0.618  17.187  2.1857 -1.9641 -1.8916
  663TIP3   OH223403   6.634   3.682   5.491  0.2858 -0.0642  0.5105
  663TIP3    H123404   6.581   3.621   5.440 -0.2333  1.1382 -0.3985
  663TIP3    H223405   6.714   3.633   5.512  0.7666 -0.3881 -1.9497
  664TIP3   OH223406   1.029   0.437  10.990  0.2488  0.7254 -0.4091
  664TIP3    H123407   1.105   0.381  10.975 -1.8230 -1.3747 -3.6101
  664TIP3    H223408   1.035   0.504  10.922  0.4602  2.0241  0.8449
  665TIP3   OH223409   1.608   0.439  11.977 -0.6367  0.1470  0.4556
  665TIP3    H123410   1.591   0.521  11.930 -1.7628 -0.0090  0.5780
  665TIP3    H223411   1.675   0.462  12.042  0.0204  0.6501 -0.4004
  666TIP3   OH223412   4.754   4.641   3.218 -0.2411  0.2665 -0.4050
  666TIP3    H123413   4.737   4.735   3.227 -1.8470  0.0329 -0.8493
  666TIP3    H223414   4.686   4.610   3.157 -1.5570 -1.7160  1.9922
  667TIP3   OH223415   2.638   5.430  12.927 -0.2307 -0.2701 -0.3973
  667TIP3    H123416   2.641   5.344  12.885  0.6739 -0.2289 -0.4354
  667TIP3    H223417   2.637   5.411  13.021  0.1661 -0.3229 -0.4027
  668TIP3   OH223418   4.716   5.713   6.152 -0.1363  0.3001  0.2394
  668TIP3    H123419   4.796   5.726   6.101  0.4977 -1.3241  0.7568
  668TIP3    H223420   4.721   5.777   6.223  1.2987 -0.5215  0.9206
  669TIP3   OH223421   4.921   5.055  16.989 -0.1189 -0.5343  0.5750
  669TIP3    H123422   4.915   5.151  16.991  1.1024 -0.4558  0.9013
  669TIP3    H223423   4.843   5.027  16.941 -0.2889  0.6438  0.1433
  670TIP3   OH223424   6.439   3.004  12.706  0.0659 -0.3472 -0.1392
  670TIP3    H123425   6.398   2.919  12.719  0.8790 -0.6352  0.5571
  670TIP3    H223426   6.443   3.014  12.611 -1.0843 -0.5600 -0.2272
  671TIP3   OH223427   0.400   0.587  11.228 -0.7470 -0.2842 -0.2940
  671TIP3    H123428   0.310   0.615  11.241 -1.4339 -3.5238  2.7311
  671TIP3    H223429   0.394   0.509  11.174  0.5075  0.7561 -2.0174
  672TIP3   OH223430   1.590   5.082  15.813  0.3691  0.0697 -0.5966
  672TIP3    H123431   1.507   5.118  15.781 -0.3740 -2.3783 -1.5611
  672TIP3    H223432   1.656   5.119  15.754 -0.0861  1.6352 -0.1452
  673TIP3   OH223433   0.284   2.169   0.349 -0.0826 -0.0517 -0.1106
  673TIP3    H123434   0.218   2.104   0.371 -0.2217  0.0049 -0.3721
  673TIP3    H223435   0.342   2.170   0.426 -0.9906  0.6775  0.5765
  674TIP3   OH223436   0.170   1.920   0.135  0.2870  0.5040  0.6142
  674TIP3    H123437   0.148   1.990   0.074  2.0443  0.9586  0.4781
  674TIP3    H223438   0.154   1.958   0.222  1.0696  1.0237  0.5354
  675TIP3   OH223439   1.269   6.456   0.968 -0.2234  0.2987 -0.8011
  675TIP3    H123440   1.264   6.403   1.047  1.3974 -0.7609 -1.4025
  675TIP3    H223441   1.252   6.545   0.998 -0.5379 -0.2230  0.5885
  676TIP3   OH223442   2.128   5.886   5.257 -0.1621 -0.0380 -0.0866
  676TIP3    H123443   2.043   5.871   5.298 -0.4328  0.8445 -0.3254
  676TIP3    H223444   2.107   5.920   5.170  0.4335 -0.0064 -0.2208
  677TIP3   OH223445   1.764   0.956  15.077  0.1983 -0.1542  0.1054
  677TIP3    H123446   1.850   0.956  15.119 -0.5342 -1.6990  1.6660
  677TIP3    H223447   1.764   0.877  15.022 -0.3701 -0.3939  0.4453
  678TIP3   OH223448   1.941   0.797  13.666  0.3319 -0.3869  0.3061
  678TIP3    H123449   1.989   0.754  13.736  0.8908  0.3018  0.3418
  678TIP3    H223450   1.864   0.741  13.652 -0.2881 -0.0105  2.1207
  679TIP3   OH223451   5.638   4.928   1.789  0.1855  0.2676  0.3907
  679TIP3    H123452   5.598   4.841   1.801  1.1498 -0.2203  0.1169
  679TIP3    H223453   5.726   4.909   1.757 -0.5271  1.4287 -2.3407
  680TIP3   OH223454   3.261   3.482   0.460  0.0275 -0.0423  0.1497
  680TIP3    H123455   3.217   3.495   0.544  1.0678 -0.3057  0.7430
  680TIP3    H223456   3.293   3.392   0.463 -1.5614 -0.7071 -1.3218
  681TIP3   OH223457   6.022   4.404   1.214 -0.0703  0.8997 -0.3957
  681TIP3    H123458   5.962   4.447   1.153 -0.9181 -1.0628 -1.0075
  681TIP3    H223459   5.966   4.379   1.288 -0.4796 -2.5100 -1.7372
  682TIP3   OH223460   6.741   5.285   0.418 -0.3837 -0.6104  0.5442
  682TIP3    H123461   6.780   5.214   0.470  1.2782 -0.2956 -0.2324
  682TIP3    H223462   6.815   5.339   0.392 -1.3135 -0.1576 -1.2550
  683TIP3   OH223463   4.228   5.599   6.333  0.4034  0.1820  0.4574
  683TIP3    H123464   4.214   5.514   6.375  0.0769  0.4693  0.9239
  683TIP3    H223465   4.317   5.593   6.297  0.0279 -0.7178 -0.3510
  684TIP3   OH223466   1.322   5.431  13.604  0.3074 -0.2491  0.1948
  684TIP3    H123467   1.232   5.400  13.614 -0.5012  1.2606 -2.0624
  684TIP3    H223468   1.361   5.372  13.539  0.4936  0.0123  0.0655
  685TIP3   OH223469   2.578   6.179   3.760  0.4163 -0.4760 -0.0749
  685TIP3    H123470   2.584   6.086   3.737  1.4265 -0.6384  0.8105
  685TIP3    H223471   2.544   6.180   3.849 -2.7188  0.1287 -1.2174
  686TIP3   OH223472   4.917   0.723   2.221  0.0467  0.1567  0.5833
  686TIP3    H123473   4.879   0.657   2.280  1.6578 -1.0297  0.3213
  686TIP3    H223474   4.909   0.684   2.134  0.3706  0.6211  0.3481
  687TIP3   OH223475   1.082   6.031  12.962 -0.0718  0.2157  0.3429
  687TIP3    H123476   1.073   6.015  13.055 -0.8066 -0.1648  0.2134
  687TIP3    H223477   1.067   6.126  12.952 -1.1638  0.0695  0.4848
  688TIP3   OH223478   1.222   0.304  14.066  0.9404 -0.1846 -0.8711
  688TIP3    H123479   1.276   0.339  14.136  0.8118 -1.0399 -0.3399
  688TIP3    H223480   1.220   0.374  14.000  0.4236  0.9265  0.3045
  689TIP3   OH223481   5.916   5.707   5.322 -0.0763 -0.6831  0.1616
  689TIP3    H123482   5.950   5.729   5.235 -0.4671 -3.7634 -0.8296
  689TIP3    H223483   5.993   5.683   5.373  0.1201  0.8381  0.6138
  690TIP3   OH223484   5.007   2.711   1.378  0.7087  0.2527  0.0440
  690TIP3    H123485   5.037   2.720   1.469 -0.0548 -0.0337  0.3339
  690TIP3    H223486   5.031   2.793   1.336 -0.2876  0.9984  0.9079
  691TIP3   OH223487   6.249   1.253  13.883 -0.1929 -0.4073 -0.5557
  691TIP3    H123488   6.339   1.282  13.898 -1.4678  3.2786  0.5567
  691TIP3    H223489   6.201   1.286  13.959 -2.7136 -1.1039 -1.8211
  692TIP3   OH223490   2.597   3.946   5.216 -0.1008 -0.5719  0.2431
  692TIP3    H123491   2.592   3.876   5.281 -1.0675  0.0721  0.8627
  692TIP3    H223492   2.590   4.027   5.266 -0.4173 -0.0644 -0.6054
  693TIP3   OH223493   3.876   5.052   1.365  0.4230 -0.0447 -0.4865
  693TIP3    H123494   3.910   5.039   1.453  0.8514 -1.0439 -0.7865
  693TIP3    H223495   3.953   5.074   1.313  0.3076 -0.3289 -0.7798
  694TIP3   OH223496   5.956   6.387   2.185 -0.4843  0.6702 -0.3787
  694TIP3    H123497   6.027   6.324   2.172 -0.5681  0.4079  0.3730
  694TIP3    H223498   5.966   6.450   2.114 -0.1757  0.0104 -0.9302
  695TIP3   OH223499   5.115   1.928  15.068  0.3264 -0.3831  0.1018
  695TIP3    H123500   5.199   1.884  15.067 -0.2823 -1.5864  0.5680
  695TIP3    H223501   5.087   1.931  14.977  0.3628 -0.9963  0.0713
  696TIP3   OH223502   0.347   5.968  14.268 -0.1039  0.0728 -0.1229
  696TIP3    H123503   0.407   5.981  14.341  1.4659  2.7597 -1.7917
  696TIP3    H223504   0.343   5.873  14.256  2.8520 -0.2223  0.8327
  697TIP3   OH223505   2.376   4.794   3.316  0.5882 -0.1327 -0.5596
  697TIP3    H123506   2.297   4.811   3.367 -0.2309 -2.0529 -1.1587
  697TIP3    H223507   2.400   4.703   3.336  1.1665 -0.3977 -2.3504
  698TIP3   OH223508   2.882   3.186   0.629 -0.2168  0.1779 -0.0354
  698TIP3    H123509   2.792   3.201   0.598 -0.9180 -2.1139  0.7785
  698TIP3    H223510   2.928   3.151   0.553 -1.6888 -4.5318  1.0869
  699TIP3   OH223511   1.391   2.967   5.736  0.0771  0.1705 -0.2610
  699TIP3    H123512   1.403   2.889   5.682  3.2000  0.7184 -0.4529
  699TIP3    H223513   1.400   2.935   5.826  0.3653  0.1336 -0.3020
  700TIP3   OH223514   1.958   6.786   6.586 -0.2025 -0.9144 -0.0869
  700TIP3    H123515   1.998   6.742   6.661 -1.2950 -1.6763  0.0504
  700TIP3    H223516   2.016   6.860   6.569  1.9598 -2.6918 -0.6617
  701TIP3   OH223517   4.560   3.956  13.915  0.5214  0.9460  0.2325
  701TIP3    H123518   4.557   3.885  13.979  1.4568  0.5245 -0.1848
  701TIP3    H223519   4.632   4.012  13.943  0.0267  1.5345  0.3424
  702TIP3   OH223520   4.042   4.828  11.542 -0.2051  0.0171 -0.0459
  702TIP3    H123521   4.054   4.842  11.636  0.2000  0.2275 -0.1232
  702TIP3    H223522   3.951   4.802  11.532 -0.1046 -0.5289  0.4625
  703TIP3   OH223523   2.527   6.748  12.710  0.6928 -0.5280  0.1885
  703TIP3    H123524   2.431   6.748  12.712  0.6993 -2.1147  0.7701
  703TIP3    H223525   2.549   6.753  12.617  0.0410 -2.2562 -0.0640
  704TIP3   OH223526   2.458   6.527  15.144  0.0756 -0.1535 -0.3581
  704TIP3    H123527   2.390   6.475  15.100  0.8597 -1.1056 -0.4699
  704TIP3    H223528   2.411   6.599  15.184 -0.9725 -0.6484 -0.6779
  705TIP3   OH223529   1.529   3.398   4.856 -0.2703 -0.6866  0.0484
  705TIP3    H123530   1.491   3.311   4.841 -1.2210 -0.3447  0.4051
  705TIP3    H223531   1.502   3.449   4.780 -0.0808 -0.5907  0.0465
  706TIP3   OH223532   1.146   2.342   1.595  0.2218  0.7944  0.3065
  706TIP3    H123533   1.109   2.330   1.682 -0.6642  0.2201 -0.1424
  706TIP3    H223534   1.196   2.262   1.578 -2.4644 -0.6606 -1.0979
  707TIP3   OH223535   3.674   0.379   0.466  0.1312  0.0735  0.2067
  707TIP3    H123536   3.641   0.300   0.423  0.5260 -0.3396  0.6555
  707TIP3    H223537   3.606   0.400   0.531  1.0805 -1.1975  1.6303
  708TIP3   OH223538   5.297   4.058  17.200 -0.6437 -0.2488  0.1884
  708TIP3    H123539   5.242   4.077  17.124  1.4516 -0.2547 -1.3992
  708TIP3    H223540   5.369   4.005  17.165  1.4215  1.3966  1.7540
  709TIP3   OH223541   1.881   6.662  16.434  0.4091  0.1671 -0.2928
  709TIP3    H123542   1.867   6.606  16.510  1.3015  1.9760  1.2446
  709TIP3    H223543   1.816   6.732  16.443  0.8562  0.6665 -0.9254
  710TIP3   OH223544   4.664   4.028  15.267  0.0128 -0.0079 -0.1173
  710TIP3    H123545   4.647   4.066  15.180 -0.7344 -1.2839 -0.5446
  710TIP3    H223546   4.579   4.032  15.311  0.1327 -0.3828  0.1446
  711TIP3   OH223547   6.574   6.628   2.718 -0.0464 -0.6417 -0.1432
  711TIP3    H123548   6.492   6.586   2.741 -0.6614  0.8667  0.4663
  711TIP3    H223549   6.586   6.697   2.783  1.3126 -0.3447 -0.6764
  712TIP3   OH223550   6.397   5.262   6.016  0.7644  0.4843 -0.7338
  712TIP3    H123551   6.314   5.302   5.993  0.2362 -0.6125 -0.7899
  712TIP3    H223552   6.392   5.173   5.980  1.2563 -0.1553  0.7205
  713TIP3   OH223553   2.827   5.637  15.636 -0.3633  0.3727  0.1450
  713TIP3    H123554   2.906   5.641  15.582 -0.5519  0.8301 -0.1101
  713TIP3    H223555   2.803   5.545  15.638 -0.4261  0.3699 -0.6687
  714TIP3   OH223556   1.002   5.333  13.377  1.0102 -0.4941  0.0649
  714TIP3    H123557   1.017   5.409  13.433 -0.5284  1.1219 -1.6532
  714TIP3    H223558   1.066   5.342  13.306 -0.7131  0.5426 -1.4189
  715TIP3   OH223559   1.265   1.739   6.077  0.3705 -0.6282 -0.1868
  715TIP3    H123560   1.319   1.722   6.154 -0.9477 -1.0157  0.6850
  715TIP3    H223561   1.199   1.801   6.108  1.2908  1.1255 -1.6652
  716TIP3   OH223562   3.823   2.394  15.260 -0.2869 -0.1603  0.3564
  716TIP3    H123563   3.871   2.414  15.180  1.2588 -1.8003  0.8540
  716TIP3    H223564   3.870   2.442  15.329 -1.9086  1.6586  0.2566
  717TIP3   OH223565   4.289   1.352   4.106 -0.3992 -0.2965  0.2851
  717TIP3    H123566   4.321   1.414   4.172  0.6524 -1.4092  0.8328
  717TIP3    H223567   4.295   1.400   4.023  1.4915 -0.0607  0.5536
  718TIP3   OH223568   4.366   2.469  12.916  0.1446  0.1156  0.7426
  718TIP3    H123569   4.329   2.402  12.858 -0.9307  1.4084 -0.0860
  718TIP3    H223570   4.378   2.546  12.861 -0.6366  1.2826  2.1620
  719TIP3   OH223571   5.432   0.727  15.502  0.2895 -0.0979 -0.1521
  719TIP3    H123572   5.492   0.794  15.470 -0.0859  0.1887 -0.2688
  719TIP3    H223573   5.488   0.663  15.545  0.7636 -0.3153 -1.0876
  720TIP3   OH223574   6.013   3.920  15.713  0.3533  0.1367  0.8848
  720TIP3    H123575   5.958   3.950  15.785  0.5402 -1.7789  1.8617
  720TIP3    H223576   6.102   3.942  15.739  0.1489  2.7141 -0.4343
  721TIP3   OH223577   4.375   0.962  12.357  0.4986  0.1424 -0.2687
  721TIP3    H123578   4.442   1.000  12.300  0.1150 -0.5736 -1.2250
  721TIP3    H223579   4.297   1.015  12.343  0.7972  0.8350  0.6722
  722TIP3   OH223580   5.322   1.475  14.249  0.4414  0.2886 -0.6488
  722TIP3    H123581   5.357   1.487  14.337  1.1937 -0.8536 -0.7710
  722TIP3    H223582   5.392   1.504  14.191 -0.1748  1.3363 -0.8730
  723TIP3   OH223583   5.116   5.296  13.915  0.8748 -0.4502 -0.1660
  723TIP3    H123584   5.181   5.339  13.860  0.8213 -0.3423 -0.1438
  723TIP3    H223585   5.040   5.283  13.857  0.9649 -0.6997 -0.2303
  724TIP3   OH223586   0.245   2.555   3.857  0.3468  0.0417  0.7271
  724TIP3    H123587   0.280   2.500   3.928  0.1134  0.9138  1.5302
  724TIP3    H223588   0.321   2.597   3.819  0.2504  1.4273  2.0398
  725TIP3   OH223589   2.898   1.040   2.090 -0.5557  0.0683  0.1158
  725TIP3    H123590   2.818   1.092   2.081 -0.5863 -0.0026 -0.0181
  725TIP3    H223591   2.889   0.997   2.176 -0.1777  0.8881  0.5722
  726TIP3   OH223592   2.061   2.606   5.746  0.0447  0.3756 -0.4813
  726TIP3    H123593   1.970   2.607   5.716  0.2459  0.3861 -1.0970
  726TIP3    H223594   2.112   2.589   5.667  0.7322  2.5205 -0.5097
  727TIP3   OH223595   2.906   0.755  16.327 -0.8338 -0.4193  0.3556
  727TIP3    H123596   2.996   0.723  16.330 -0.6190 -0.1684 -1.9378
  727TIP3    H223597   2.855   0.690  16.375  0.1482 -2.2111 -0.9791
  728TIP3   OH223598   1.549   1.736  15.396  0.7736 -0.3121 -0.8837
  728TIP3    H123599   1.580   1.687  15.320 -0.2287  0.8683 -2.0795
  728TIP3    H223600   1.558   1.828  15.370 -1.5199  0.0772 -0.3748
  729TIP3   OH223601   1.566   3.201  16.019  0.2295  0.1427  0.2820
  729TIP3    H123602   1.495   3.143  15.992  1.5862 -1.0841 -0.7057
  729TIP3    H223603   1.587   3.174  16.108  0.4345 -0.4518  0.0535
  730TIP3   OH223604   2.701   5.788   5.589 -0.1055  0.0042 -0.1111
  730TIP3    H123605   2.639   5.715   5.592 -1.2703  0.9335 -0.7361
  730TIP3    H223606   2.757   5.775   5.666 -1.3408 -0.6458  0.7061
  731TIP3   OH223607   4.035   6.086  15.686 -0.1118  0.5590  0.3941
  731TIP3    H123608   3.974   6.160  15.699 -1.2850 -0.2109 -0.6521
  731TIP3    H223609   3.978   6.013  15.663  1.3789  0.2526 -2.3923
  732TIP3   OH223610   0.857   0.946   5.481 -0.0199  0.0750 -0.1312
  732TIP3    H123611   0.934   1.001   5.488  0.4355 -0.6297  0.5299
  732TIP3    H223612   0.789   0.992   5.529  0.5565 -0.2754  1.0373
  733TIP3   OH223613   1.461   6.632   6.267 -0.2537 -0.0068  0.2963
  733TIP3    H123614   1.413   6.565   6.219 -2.1144  0.4359  1.4617
  733TIP3    H223615   1.475   6.702   6.204 -1.4964  0.0104  0.0211
  734TIP3   OH223616   1.284   6.150   4.703 -0.5093 -0.5067 -0.1200
  734TIP3    H123617   1.331   6.211   4.760 -0.7232 -0.9570  0.5462
  734TIP3    H223618   1.316   6.170   4.615 -0.3778  0.3843  0.1229
  735TIP3   OH223619   4.827   2.065  13.025 -0.2023  0.3497 -0.4765
  735TIP3    H123620   4.760   2.062  12.957 -0.4783  0.0571 -0.1913
  735TIP3    H223621   4.860   2.155  13.022 -1.6536  0.9342  0.3805
  736TIP3   OH223622   3.427   5.889   0.990 -0.1941  0.3632 -0.5887
  736TIP3    H123623   3.519   5.879   1.014 -1.0476 -0.8601  2.3566
  736TIP3    H223624   3.403   5.806   0.949 -0.7267 -0.4313  1.2923
  737TIP3   OH223625   5.806   4.292  16.174 -0.5036 -0.2373  0.1824
  737TIP3    H123626   5.732   4.242  16.208 -1.5522  0.9935 -0.2297
  737TIP3    H223627   5.786   4.304  16.081 -0.6071  1.4700  0.4012
  738TIP3   OH223628   3.058   0.456   5.807  0.0521 -0.5816 -0.0773
  738TIP3    H123629   3.032   0.448   5.715 -0.6818  1.0008 -0.0254
  738TIP3    H223630   3.086   0.368   5.832 -1.5585 -1.4550 -1.2752
  739TIP3   OH223631   4.520   3.552  14.303 -0.2636 -0.5351 -0.0855
  739TIP3    H123632   4.579   3.580  14.373 -0.7536  0.7857 -0.1920
  739TIP3    H223633   4.447   3.510  14.348 -2.1302  3.1306  0.4203
  740TIP3   OH223634   3.386   1.446  12.445 -0.1741 -0.1259 -0.2884
  740TIP3    H123635   3.356   1.467  12.534  0.3755  1.1418 -0.3804
  740TIP3    H223636   3.390   1.531  12.401  2.3743 -0.3990 -0.6443
  741TIP3   OH223637   1.429   5.848   4.784  1.2138 -0.4576  0.2513
  741TIP3    H123638   1.514   5.846   4.742  0.7314  0.4960 -0.7917
  741TIP3    H223639   1.366   5.834   4.713  0.4157  0.6110  0.7280
  742TIP3   OH223640   4.753   2.116   0.092  0.7994 -0.1359 -0.1301
  742TIP3    H123641   4.668   2.081   0.120  0.3155  0.5928 -0.6793
  742TIP3    H223642   4.777   2.176   0.163  0.5124  0.1948 -0.3059
  743TIP3   OH223643   3.609   6.682   3.946 -0.6710  0.3047 -0.3255
  743TIP3    H123644   3.654   6.616   3.999 -1.4455 -0.0708 -0.1196
  743TIP3    H223645   3.662   6.761   3.956  0.4046 -0.3460 -0.7772
  744TIP3   OH223646   4.755   0.390  12.405  0.3864  0.0532 -0.1535
  744TIP3    H123647   4.803   0.471  12.385 -0.3551  0.1620 -1.5632
  744TIP3    H223648   4.727   0.357  12.319 -0.2786 -1.1084  0.4962
  745TIP3   OH223649   2.558   3.211  17.123  0.3648  0.1688 -0.4575
  745TIP3    H123650   2.611   3.135  17.100  1.6473  0.5238  1.2768
  745TIP3    H223651   2.470   3.175  17.137  0.3561 -0.5719 -2.2896
  746TIP3   OH223652   1.554   5.245  16.264  0.4799  0.0703  0.7989
  746TIP3    H123653   1.593   5.192  16.195 -2.1284  0.5011 -1.0825
  746TIP3    H223654   1.460   5.240  16.248 -0.0115  2.6488  2.5279
  747TIP3   OH223655   4.279   4.454   0.654 -0.1823 -0.0542  0.4239
  747TIP3    H123656   4.349   4.505   0.694  0.5519 -1.7131  1.2820
  747TIP3    H223657   4.219   4.520   0.619  1.4888  1.3963  0.1957
  748TIP3   OH223658   1.101   3.891   6.312 -0.3124  0.6381  0.5383
  748TIP3    H123659   1.078   3.850   6.395 -0.3344 -4.4391 -1.8026
  748TIP3    H223660   1.196   3.890   6.310 -0.3156  0.4674  0.4068
  749TIP3   OH223661   6.082   3.229   5.198  0.5779 -0.2641 -0.5005
  749TIP3    H123662   6.077   3.308   5.253 -0.7873 -0.4169 -0.3903
  749TIP3    H223663   6.044   3.160   5.252 -0.0189 -0.5894 -1.3346
  750TIP3   OH223664   2.730   2.866   2.696  0.2760  0.2172 -0.3073
  750TIP3    H123665   2.708   2.903   2.782 -1.7583 -0.5136 -0.4981
  750TIP3    H223666   2.653   2.882   2.642  0.0349 -2.6707 -0.9092
  751TIP3   OH223667   5.707   5.861   0.751 -0.5547 -0.1475 -0.0975
  751TIP3    H123668   5.759   5.884   0.828  0.3760  1.3593 -1.1439
  751TIP3    H223669   5.703   5.765   0.752  2.7203 -0.3419 -0.2800
  752TIP3   OH223670   0.520   2.306  11.527 -0.1668  0.0602  0.3949
  752TIP3    H123671   0.497   2.230  11.474  0.5636  0.6962 -0.8608
  752TIP3    H223672   0.605   2.285  11.565  0.8137  0.9038 -1.2830
  753TIP3   OH223673   0.479   3.770  16.370  0.2746  0.1982 -0.0935
  753TIP3    H123674   0.465   3.833  16.299  0.8449 -1.1011 -1.3833
  753TIP3    H223675   0.495   3.687  16.326 -1.0937 -1.0003  1.6003
  754TIP3   OH223676   1.042   4.093   0.980 -0.6922 -0.5848 -0.1803
  754TIP3    H123677   1.111   4.052   0.929  0.2722 -0.3709  0.9292
  754TIP3    H223678   0.972   4.027   0.983  0.3578 -1.6873  0.5712
  755TIP3   OH223679   3.288   5.845  12.301 -0.2852 -0.0625 -0.3471
  755TIP3    H123680   3.236   5.777  12.258 -1.2133 -0.8092  1.8944
  755TIP3    H223681   3.379   5.820  12.283 -0.6167 -1.6549  0.0451
  756TIP3   OH223682   0.142   1.715   5.348 -0.1331 -0.3447  0.2906
  756TIP3    H123683   0.163   1.797   5.393  0.1176 -0.2664  0.0335
  756TIP3    H223684   0.184   1.648   5.402 -3.0895 -0.6309  2.3416
  757TIP3   OH223685   5.713   0.455   4.006  0.5376  0.1336  0.3592
  757TIP3    H123686   5.626   0.492   4.027  1.0125 -0.0200  2.7830
  757TIP3    H223687   5.709   0.365   4.039  0.7007 -0.7767 -2.0507
  758TIP3   OH223688   4.874   1.004  10.768  0.0429 -0.1266 -0.2692
  758TIP3    H123689   4.912   0.983  10.683  0.9179 -1.1064  0.3659
  758TIP3    H223690   4.829   0.924  10.795  0.3086 -0.0263  0.4853
  759TIP3   OH223691   0.364   6.025  12.449  0.1303  0.2933 -0.0764
  759TIP3    H123692   0.316   6.031  12.366 -0.2811  0.1605  0.1512
  759TIP3    H223693   0.314   5.963  12.501  1.2083 -0.7458 -0.2695
  760TIP3   OH223694   5.775   4.096   1.549 -0.4691 -0.7959  0.3100
  760TIP3    H123695   5.772   4.037   1.474  2.2448  0.3288 -0.7422
  760TIP3    H223696   5.788   4.038   1.624 -1.0085 -1.7641 -0.3294
  761TIP3   OH223697   4.841   2.484   4.032 -0.4002  0.2867 -0.5540
  761TIP3    H123698   4.880   2.554   4.084  0.1927 -0.4188 -0.0309
  761TIP3    H223699   4.914   2.449   3.980 -0.2609 -1.2380  0.6480
  762TIP3   OH223700   5.365   6.238   1.619  0.4294  0.0653  0.1679
  762TIP3    H123701   5.302   6.218   1.550  0.4292 -0.6916  0.3811
  762TIP3    H223702   5.431   6.168   1.613 -1.0351 -1.6218  2.6959
  763TIP3   OH223703   5.178   0.875   2.837 -0.1130 -0.1456 -0.3849
  763TIP3    H123704   5.262   0.874   2.792 -0.0230  0.8257 -0.2422
  763TIP3    H223705   5.113   0.867   2.768  0.1092 -1.5165 -0.4474
  764TIP3   OH223706   2.527   3.679  15.540  0.1536  0.3316  0.1419
  764TIP3    H123707   2.618   3.706  15.552  0.0963  0.6104 -0.0516
  764TIP3    H223708   2.478   3.732  15.604 -0.2638  2.4385 -1.8632
  765TIP3   OH223709   6.696   4.200  12.707 -0.5068 -0.1660  0.0165
  765TIP3    H123710   6.641   4.129  12.740 -0.5881  0.5473  1.4304
  765TIP3    H223711   6.706   4.260  12.781  2.0600 -0.2063 -0.2356
  766TIP3   OH223712   0.290   3.649   5.416  0.4197 -0.4407 -0.4178
  766TIP3    H123713   0.320   3.682   5.332 -0.6004  1.2193 -0.1382
  766TIP3    H223714   0.358   3.587   5.443  2.2748  1.2767 -1.0315
  767TIP3   OH223715   5.121   0.499   0.425  0.6316 -0.0011 -0.4988
  767TIP3    H123716   5.211   0.501   0.392  1.2368  0.3642  1.1421
  767TIP3    H223717   5.113   0.580   0.475  0.0416 -1.0413  1.0952
  768TIP3   OH223718   4.052   3.402  16.584 -0.3250  0.5413  0.6324
  768TIP3    H123719   4.124   3.386  16.645 -0.7955  0.0989  1.0787
  768TIP3    H223720   4.053   3.497  16.572 -0.8981  0.7626  2.1859
  769TIP3   OH223721   1.070   2.457  12.718 -0.2953 -0.7200 -0.0001
  769TIP3    H123722   1.148   2.512  12.726 -1.7507  1.3534  0.1393
  769TIP3    H223723   1.090   2.380  12.772  1.3728  0.0926  0.5935
  770TIP3   OH223724   0.267   6.567  15.271 -0.7759  0.1992  0.4557
  770TIP3    H123725   0.232   6.499  15.212  0.5889 -1.6084  1.6755
  770TIP3    H223726   0.265   6.526  15.358 -0.1161  1.8134  1.2440
  771TIP3   OH223727   5.428   5.487   4.303  0.0066  0.1335  0.1901
  771TIP3    H123728   5.451   5.399   4.272  0.0979 -0.1102  0.9298
  771TIP3    H223729   5.360   5.471   4.369 -1.3087  0.7459 -0.9915
  772TIP3   OH223730   0.727   6.473   5.005 -0.2416 -0.1767 -0.6263
  772TIP3    H123731   0.672   6.539   4.963  0.1283 -0.4596 -1.5790
  772TIP3    H223732   0.697   6.389   4.969 -0.4884 -0.5023  0.3223
  773TIP3   OH223733   6.558   1.654  16.866 -0.5043  0.7100 -0.1888
  773TIP3    H123734   6.620   1.674  16.796 -0.8653  0.6654 -0.5212
  773TIP3    H223735   6.506   1.733  16.876 -0.4871  0.6987 -0.0052
  774TIP3   OH223736   0.911   4.603   1.936  0.5633 -0.1435  0.0044
  774TIP3    H123737   0.964   4.664   1.987 -1.3495 -0.2586  2.2259
  774TIP3    H223738   0.969   4.529   1.918  0.7351 -1.1485  4.0408
  775TIP3   OH223739   4.064   2.197  13.609 -0.1216 -0.2642  0.4875
  775TIP3    H123740   4.014   2.193  13.690 -0.5083 -1.0709  0.2093
  775TIP3    H223741   4.142   2.248  13.631 -0.6540  0.2684  1.1359
  776TIP3   OH223742   0.098   0.553   6.245 -0.2981  0.4334 -0.0344
  776TIP3    H123743   0.063   0.472   6.281 -0.0698  0.5760  0.5132
  776TIP3    H223744   0.027   0.616   6.252 -0.2246  0.4865  0.2656
  777TIP3   OH223745   6.313   3.047  12.422 -0.6356  0.4900  0.0319
  777TIP3    H123746   6.324   3.015  12.333  0.2211  1.6265 -0.2858
  777TIP3    H223747   6.219   3.053  12.435 -0.7478  1.3006 -1.1538
  778TIP3   OH223748   0.588   1.976  12.693  0.3473  0.2328  0.6820
  778TIP3    H123749   0.554   1.887  12.705  0.9096  0.1139  1.4547
  778TIP3    H223750   0.510   2.029  12.677  0.1128 -0.5892 -1.0022
  779TIP3   OH223751   2.295   6.086  12.951  0.4822 -0.2025 -0.7228
  779TIP3    H123752   2.384   6.085  12.915  2.0667 -3.0557  2.9140
  779TIP3    H223753   2.239   6.059  12.879  2.7740 -0.2172 -2.5584
  780TIP3   OH223754   6.391   0.898  14.981 -0.2677  0.0061 -0.2066
  780TIP3    H123755   6.405   0.973  15.039  2.3019  0.2487 -1.0621
  780TIP3    H223756   6.436   0.826  15.025 -2.5318 -1.0087  0.4995
  781TIP3   OH223757   2.758   4.912   5.052  0.7915  0.4393 -0.0858
  781TIP3    H123758   2.762   4.875   5.141  1.3166  2.0311  0.5586
  781TIP3    H223759   2.777   4.837   4.995  0.8059 -0.5252  1.1505
  782TIP3   OH223760   2.568   1.682   4.835 -0.1690  0.2508  0.3244
  782TIP3    H123761   2.559   1.680   4.740  1.2762 -0.5623  0.2004
  782TIP3    H223762   2.616   1.763   4.853  1.8685 -0.8820  0.1413
  783TIP3   OH223763   0.053   4.132  17.192  0.3134  0.0432 -0.0684
  783TIP3    H123764  -0.028   4.179  17.173  0.4251  0.0383 -0.5740
  783TIP3    H223765   0.119   4.200  17.200  0.0516  0.1248  1.4570
  784TIP3   OH223766   2.786   1.060  11.175 -0.0889 -0.0418  0.4282
  784TIP3    H123767   2.724   1.076  11.103  2.2373  0.9028 -1.4293
  784TIP3    H223768   2.821   0.973  11.158  0.8381  0.3849  0.1081
  785TIP3   OH223769   2.781   2.584  16.241  0.1322 -0.1199 -0.0416
  785TIP3    H123770   2.834   2.649  16.287 -0.9669  0.7039  0.0508
  785TIP3    H223771   2.697   2.585  16.285  0.0416 -1.4776 -0.1572
  786TIP3   OH223772   3.342   5.036  16.625 -0.6266 -0.5654 -0.1400
  786TIP3    H123773   3.308   5.071  16.707 -0.6336  0.4378 -0.5606
  786TIP3    H223774   3.436   5.022  16.641 -0.4811  0.3318 -0.1909
  787TIP3   OH223775   3.130   4.152  13.813  0.3129 -0.1920  0.0375
  787TIP3    H123776   3.040   4.131  13.837  0.1490  0.5178  0.0513
  787TIP3    H223777   3.123   4.188  13.724  0.5738 -0.0486  0.0747
  788TIP3   OH223778   4.525   5.567  11.413 -0.0477  0.4457 -0.3420
  788TIP3    H123779   4.532   5.559  11.509 -0.4426  1.9629 -0.1751
  788TIP3    H223780   4.582   5.640  11.391 -1.3036  1.2251 -1.0613
  789TIP3   OH223781   3.015   2.105  12.339  0.9392 -0.0421  0.0869
  789TIP3    H123782   3.016   2.072  12.249  3.6071 -0.1555  0.1372
  789TIP3    H223783   3.007   2.200  12.330 -1.4567 -0.2399 -0.1784
  790TIP3   OH223784   5.126   1.175  13.531 -0.1167  0.7345  0.3364
  790TIP3    H123785   5.205   1.134  13.494  0.6348  0.8967  1.7209
  790TIP3    H223786   5.054   1.136  13.483  0.7967  0.3831 -0.7789
  791TIP3   OH223787   3.497   3.483   4.516  0.3390  0.1278  0.1228
  791TIP3    H123788   3.538   3.403   4.483  1.3158  1.1167 -1.1653
  791TIP3    H223789   3.554   3.553   4.484 -1.3136  1.4270 -0.0461
  792TIP3   OH223790   2.036   4.706  14.587  0.2218  0.0610 -0.1011
  792TIP3    H123791   1.964   4.710  14.524 -2.4484  0.5963  2.8542
  792TIP3    H223792   2.063   4.614  14.587 -1.4407 -0.4310 -0.1712
  793TIP3   OH223793   4.647   6.735  11.633  0.1439  0.1536  0.0312
  793TIP3    H123794   4.582   6.792  11.592  1.3297 -0.0827 -2.2541
  793TIP3    H223795   4.601   6.651  11.642 -0.5800  0.5908  0.4768
  794TIP3   OH223796   4.959   5.130   5.523 -0.2241  0.3749  0.5224
  794TIP3    H123797   4.979   5.174   5.606 -0.2065  1.1047  0.1422
  794TIP3    H223798   5.036   5.077   5.504 -0.3123  0.0535  1.0763
  795TIP3   OH223799   2.539   1.778  12.437 -0.0500  0.4479 -0.1731
  795TIP3    H123800   2.483   1.855  12.448  0.1551  0.5728 -0.0051
  795TIP3    H223801   2.615   1.810  12.388 -1.2486 -0.2311 -2.5469
  796TIP3   OH223802   3.913   6.757  12.095  0.1206  0.5737  0.7169
  796TIP3    H123803   3.985   6.700  12.069 -0.8613  0.1984 -1.2699
  796TIP3    H223804   3.953   6.843  12.107  1.1265  0.0711  1.0301
  797TIP3   OH223805   6.221   2.997   6.142 -0.0790  0.4681  0.6264
  797TIP3    H123806   6.216   2.962   6.231  1.6337  0.5619  0.7864
  797TIP3    H223807   6.266   2.928   6.093  0.7590  1.2387  0.2954
  798TIP3   OH223808   0.486   5.908   1.071 -0.2630  0.8180 -0.2449
  798TIP3    H123809   0.514   5.940   1.157 -0.0437  0.7678 -0.2974
  798TIP3    H223810   0.438   5.982   1.033  1.1569  1.4834 -0.8075
  799TIP3   OH223811   4.672   1.722  15.396 -0.4794 -0.8174 -0.0848
  799TIP3    H123812   4.646   1.746  15.307  0.8946 -0.8790 -0.5282
  799TIP3    H223813   4.727   1.645  15.385  1.1277  0.1847  0.6282
  800TIP3   OH223814   6.259   0.183  14.190 -0.4709 -0.1477  0.3985
  800TIP3    H123815   6.354   0.184  14.199 -0.5875 -0.1142  1.7009
  800TIP3    H223816   6.243   0.136  14.107  0.6265 -1.3242  0.8376
  801TIP3   OH223817   3.408   4.450  12.993  0.4097 -0.1856  0.0261
  801TIP3    H123818   3.325   4.493  12.975  0.5593  0.8868  1.8011
  801TIP3    H223819   3.451   4.443  12.908 -1.2033 -0.1698 -0.8034
  802TIP3   OH223820   4.926   3.497   3.033  0.5655 -0.5336 -0.0184
  802TIP3    H123821   4.940   3.592   3.029 -0.3421 -0.4141 -0.3576
  802TIP3    H223822   5.014   3.460   3.029  1.1156  0.3702  2.4435
  803TIP3   OH223823   2.101   4.319  10.795 -0.3982  0.4439  0.7841
  803TIP3    H123824   2.137   4.263  10.726  0.6459  2.8438 -0.6789
  803TIP3    H223825   2.170   4.322  10.861  0.5569  1.9378 -0.2553
  804TIP3   OH223826   0.206   2.613   0.068 -0.0090  0.4093 -0.3906
  804TIP3    H123827   0.233   2.615  -0.024  1.3139  1.4636  0.0003
  804TIP3    H223828   0.238   2.529   0.100 -0.3189  0.1155 -0.8496
  805TIP3   OH223829   2.189   6.465   4.441 -0.1822  0.0132  0.2977
  805TIP3    H123830   2.228   6.502   4.520 -1.6330 -0.4306  1.2411
  805TIP3    H223831   2.102   6.505   4.436 -0.2078 -0.1694 -0.9227
  806TIP3   OH223832   5.220   2.560  12.228 -0.0507  0.2721  0.0648
  806TIP3    H123833   5.218   2.576  12.322  0.8409  0.4538  0.0600
  806TIP3    H223834   5.183   2.640  12.190 -1.6541 -0.3469  0.3112
  807TIP3   OH223835   2.988   2.785  13.368  1.1384  0.0432 -0.3891
  807TIP3    H123836   2.948   2.782  13.281  0.8955  1.8505 -0.3559
  807TIP3    H223837   3.046   2.709  13.370  0.4209 -0.5676 -1.7647
  808TIP3   OH223838   0.707   0.661   4.222  0.3304 -0.2751 -0.1296
  808TIP3    H123839   0.629   0.616   4.255  1.1952 -0.7382  1.3353
  808TIP3    H223840   0.692   0.753   4.244 -0.4381 -0.1623 -1.1245
  809TIP3   OH223841   4.144   5.650  16.670 -0.3738  0.0508  0.0318
  809TIP3    H123842   4.162   5.575  16.612 -0.8192 -0.8153  0.9932
  809TIP3    H223843   4.230   5.681  16.697 -0.1784  0.0251 -0.5559
  810TIP3   OH223844   2.526   4.690  14.964  0.1983 -0.3263 -0.5185
  810TIP3    H123845   2.569   4.608  14.942 -0.2540 -0.5659 -0.5127
  810TIP3    H223846   2.460   4.666  15.029  1.0685  0.2640  0.6006
  811TIP3   OH223847   0.609   4.022  11.652  0.3291  0.2460 -0.5143
  811TIP3    H123848   0.569   3.940  11.681  0.4734  0.0665 -0.8174
  811TIP3    H223849   0.700   3.998  11.634  0.2797  0.3991 -0.9448
  812TIP3   OH223850   4.487   1.882   2.534 -0.2761  0.1319 -0.3703
  812TIP3    H123851   4.402   1.888   2.578  0.7987  0.1012  1.7900
  812TIP3    H223852   4.499   1.788   2.518 -0.2095  0.0210  0.2832
  813TIP3   OH223853   0.763   5.825   2.424  0.2542  0.1685  0.0065
  813TIP3    H123854   0.765   5.880   2.502  0.5399 -1.1037  0.9314
  813TIP3    H223855   0.673   5.794   2.419  0.9151 -2.1654  1.6162
  814TIP3   OH223856   2.140   1.708  12.932  0.3337 -1.1247  0.4388
  814TIP3    H123857   2.053   1.671  12.918 -0.4539  0.4721  0.9655
  814TIP3    H223858   2.146   1.720  13.027  0.5309  0.1690  0.2635
  815TIP3   OH223859   5.330   4.323   0.049  0.1026 -0.8557 -0.4592
  815TIP3    H123860   5.327   4.322   0.144 -0.3604  0.8283 -0.4280
  815TIP3    H223861   5.365   4.238   0.024  0.4848 -1.1989  1.2276
  816TIP3   OH223862   2.393   4.600  15.193  0.2090  0.1400 -0.1262
  816TIP3    H123863   2.354   4.612  15.279  2.0570  0.2273  0.7272
  816TIP3    H223864   2.388   4.506  15.176  0.3276  0.0529  0.3263
  817TIP3   OH223865   3.297   1.899  11.435 -0.8621 -0.3481 -0.5033
  817TIP3    H123866   3.320   1.822  11.487  0.6003  0.6104  0.3116
  817TIP3    H223867   3.241   1.951  11.493 -3.0114 -1.4618 -1.5628
  818TIP3   OH223868   5.968   3.423   3.133 -0.3485 -0.0585 -0.0977
  818TIP3    H123869   5.940   3.340   3.170 -0.0715 -0.0497  0.1292
  818TIP3    H223870   5.896   3.483   3.151 -0.4233 -0.1760 -0.0093
  819TIP3   OH223871   0.085   6.084   0.241  0.4746  0.2956 -0.1760
  819TIP3    H123872   0.048   6.081   0.153 -0.5425  0.7001  0.2246
  819TIP3    H223873   0.151   6.154   0.238 -0.2547  0.9828 -0.3630
  820TIP3   OH223874   2.298   0.990  11.547 -0.5377  0.1402 -0.9225
  820TIP3    H123875   2.392   1.008  11.541 -0.1221 -1.8510 -0.7780
  820TIP3    H223876   2.287   0.947  11.631 -1.6547  0.7021 -0.7713
  821TIP3   OH223877   3.621   4.799  16.092  0.2444  0.2192  0.3209
  821TIP3    H123878   3.701   4.834  16.052  0.4742 -2.5006 -1.7702
  821TIP3    H223879   3.652   4.727  16.148 -0.5664  0.5997  1.2795
  822TIP3   OH223880   3.137   1.724  11.704  0.6298 -0.5015 -0.3282
  822TIP3    H123881   3.064   1.666  11.724  0.1323 -0.1169 -1.0275
  822TIP3    H223882   3.096   1.809  11.688  1.1161 -0.5649 -1.9683
  823TIP3   OH223883   3.657   5.513   1.130  0.1336 -0.3078  0.0201
  823TIP3    H123884   3.698   5.518   1.216 -0.4521  0.3028  0.2668
  823TIP3    H223885   3.687   5.430   1.094  2.1887  0.4738 -0.1069
  824TIP3   OH223886   3.155   2.564   3.576 -0.7486 -0.6115  0.3693
  824TIP3    H123887   3.185   2.510   3.649  1.2602  1.8008  1.3806
  824TIP3    H223888   3.205   2.532   3.501 -0.4059 -0.9031  0.7202
  825TIP3   OH223889   0.636   1.239  16.955  0.3802 -0.4671 -0.3686
  825TIP3    H123890   0.729   1.259  16.950 -0.1193  2.4372  0.7134
  825TIP3    H223891   0.599   1.279  16.876  0.0068 -1.2083 -0.5651
  826TIP3   OH223892   2.757   5.409   0.432 -0.1975 -0.2470 -0.2525
  826TIP3    H123893   2.727   5.391   0.343 -2.0608 -0.1907  0.3485
  826TIP3    H223894   2.742   5.502   0.444  2.9589  0.4038 -0.9300
  827TIP3   OH223895   1.395   5.318   4.726  0.0647  0.4616 -0.2957
  827TIP3    H123896   1.333   5.245   4.723  0.6625 -0.0273 -1.0388
  827TIP3    H223897   1.359   5.379   4.790 -0.1490 -0.7595  0.7527
  828TIP3   OH223898   1.741   1.830  13.835  0.0147 -0.5814 -0.5139
  828TIP3    H123899   1.689   1.827  13.755  0.0753  0.4092 -0.5888
  828TIP3    H223900   1.679   1.810  13.905 -0.2055 -0.6479 -0.7288
  829TIP3   OH223901   0.646   4.729  16.755 -0.6694  0.0159 -0.3458
  829TIP3    H123902   0.637   4.657  16.817  3.2732  0.0134  0.3235
  829TIP3    H223903   0.608   4.805  16.801 -0.3839 -0.5873  0.9011
  830TIP3   OH223904   1.569   5.872  12.462 -0.4010 -0.0606  0.2089
  830TIP3    H123905   1.577   5.966  12.478 -0.0203 -0.0003 -0.3092
  830TIP3    H223906   1.659   5.841  12.455 -0.5263 -0.4622  0.3709
  831TIP3   OH223907   4.148   0.294  16.059 -0.6580 -0.3860  0.5790
  831TIP3    H123908   4.073   0.274  16.114  0.3686  0.9254  2.4792
  831TIP3    H223909   4.224   0.269  16.111  0.3137  0.4863 -0.3882
  832TIP3   OH223910   5.849   2.092   3.496  0.0913  0.1277  0.1110
  832TIP3    H123911   5.766   2.045   3.501 -0.6127  1.4256  0.7978
  832TIP3    H223912   5.873   2.108   3.587  0.6933  0.4607 -0.1041
  833TIP3   OH223913   2.079   1.753   0.757 -0.0479 -0.7023  0.7296
  833TIP3    H123914   2.035   1.671   0.779  0.8300 -1.5240 -0.4755
  833TIP3    H223915   2.015   1.803   0.708  0.0566 -1.5229 -0.2613
  834TIP3   OH223916   6.017   4.340  16.586 -0.3302 -0.9196 -0.1210
  834TIP3    H123917   6.060   4.398  16.524 -0.5927  1.5706  1.9119
  834TIP3    H223918   6.076   4.266  16.596  0.4828 -0.5431 -2.0632
  835TIP3   OH223919   1.110   0.346  13.352  0.2146  0.3568 -0.2642
  835TIP3    H123920   1.071   0.381  13.272  0.8712 -0.2818 -0.8667
  835TIP3    H223921   1.161   0.418  13.388 -0.2371  0.7030 -0.3172
  836TIP3   OH223922   1.125   0.745  13.315  0.4966 -0.4064  0.0114
  836TIP3    H123923   1.182   0.669  13.328 -0.1562 -1.1238 -1.2537
  836TIP3    H223924   1.038   0.714  13.338  0.4996  0.4860  1.2498
  837TIP3   OH223925   6.523   5.622  13.684 -0.3325  0.3934  0.0278
  837TIP3    H123926   6.514   5.614  13.589 -0.6935 -0.1727  0.1089
  837TIP3    H223927   6.585   5.694  13.696  1.6129 -1.1128 -0.6747
  838TIP3   OH223928   3.904   4.170   3.505 -1.0612  0.2044 -0.1166
  838TIP3    H123929   3.809   4.169   3.500 -0.9760  1.0332 -3.2405
  838TIP3    H223930   3.927   4.262   3.519 -0.7147  0.1569 -0.3418
  839TIP3   OH223931   2.123   1.437  11.451 -0.9467  0.6733 -0.6084
  839TIP3    H123932   2.122   1.341  11.446 -0.4970  0.7203 -1.9588
  839TIP3    H223933   2.205   1.457  11.497 -1.8957  0.3715  1.2484
  840TIP3   OH223934   2.287   6.517   4.139 -0.6224 -0.2720  0.4643
  840TIP3    H123935   2.194   6.498   4.143 -0.2475 -2.3276 -0.0812
  840TIP3    H223936   2.318   6.506   4.229 -0.9857  0.9023  0.7383
  841TIP3   OH223937   3.431   5.458  15.108  0.1271  0.4082 -0.0188
  841TIP3    H123938   3.445   5.405  15.187 -0.0375 -0.3996 -0.5202
  841TIP3    H223939   3.336   5.462  15.098  0.1651 -0.3885 -0.7602
  842TIP3   OH223940   0.545   0.976   0.179 -0.6330 -0.1139 -0.0678
  842TIP3    H123941   0.617   1.009   0.232 -0.5045  2.8218 -1.9763
  842TIP3    H223942   0.557   0.881   0.178  1.6813  0.1328  1.7590
  843TIP3   OH223943   6.264   3.697   5.231 -0.3657 -0.4785  0.7376
  843TIP3    H123944   6.218   3.664   5.308 -1.8914 -0.0174  0.0553
  843TIP3    H223945   6.254   3.792   5.235  0.0389 -0.4125  0.2678
  844TIP3   OH223946   1.829   3.630   4.018 -0.1795  0.3465  0.1254
  844TIP3    H123947   1.873   3.565   4.074 -0.5296 -0.2529 -0.2833
  844TIP3    H223948   1.785   3.577   3.951 -3.2305  0.7932  1.6979
  845TIP3   OH223949   5.978   6.077   2.009 -0.1802 -0.1439 -0.0691
  845TIP3    H123950   5.927   6.014   1.959 -0.2840  0.1388 -0.3160
  845TIP3    H223951   5.953   6.162   1.974 -1.0031  0.1194  1.1313
  846TIP3   OH223952   5.876   1.528  14.959  0.0108 -0.3003 -0.2512
  846TIP3    H123953   5.876   1.503  14.866 -1.8904  1.9613 -0.8929
  846TIP3    H223954   5.823   1.460  15.002  1.0359 -1.4504 -0.7682
  847TIP3   OH223955   1.634   4.537  12.349 -0.6952 -0.4567  0.0815
  847TIP3    H123956   1.583   4.611  12.382 -0.1396 -0.1510  0.2552
  847TIP3    H223957   1.658   4.561  12.260  1.4065  0.5696  0.8981
  848TIP3   OH223958   3.016   3.427   5.840  0.1870 -0.1522  0.2342
  848TIP3    H123959   3.061   3.414   5.756 -0.0217  0.4718  0.0189
  848TIP3    H223960   3.047   3.513   5.870 -2.1851  1.0891 -0.7787
  849TIP3   OH223961   4.207   0.198   3.746 -0.4103  0.2690 -0.0129
  849TIP3    H123962   4.130   0.239   3.704  0.1506  2.0938  0.6859
  849TIP3    H223963   4.192   0.209   3.839  0.7839  0.7975  0.1250
  850TIP3   OH223964   4.790   5.331  11.912 -0.1319 -0.8100 -0.1748
  850TIP3    H123965   4.855   5.273  11.950  1.2937 -1.1842 -3.0745
  850TIP3    H223966   4.833   5.370  11.837 -3.0348 -0.5912 -1.8059
  851TIP3   OH223967   4.179   4.993   0.725 -0.2537 -0.2281 -0.3828
  851TIP3    H123968   4.256   5.032   0.766  0.0563 -0.5651 -0.6437
  851TIP3    H223969   4.111   4.999   0.792  0.4023 -1.2904  0.4071
  852TIP3   OH223970   1.065   2.692  11.636  0.3121  0.3924 -0.3640
  852TIP3    H123971   0.973   2.713  11.624  0.2320 -0.0298 -0.5047
  852TIP3    H223972   1.112   2.754  11.581  0.0519 -0.2075 -1.2798
  853TIP3   OH223973   2.943   0.297  14.478  0.0816 -0.4697  0.6209
  853TIP3    H123974   2.946   0.207  14.447 -0.4452 -0.0949 -0.5214
  853TIP3    H223975   2.853   0.310  14.505  0.4885 -0.7337  2.1676
  854TIP3   OH223976   5.741   5.865  15.550 -0.4845  0.3148 -0.2062
  854TIP3    H123977   5.672   5.886  15.613 -1.3432  1.1250 -1.3935
  854TIP3    H223978   5.817   5.917  15.579 -0.4060 -0.4619  1.0140
  855TIP3   OH223979   0.263   2.045   0.709  0.0291 -0.6317 -0.3990
  855TIP3    H123980   0.267   2.101   0.786 -0.5451  1.1245 -1.6292
  855TIP3    H223981   0.173   2.054   0.677  0.6516 -0.1811 -2.1107
  856TIP3   OH223982   3.816   6.604   5.464 -0.2569 -0.0527 -0.4385
  856TIP3    H123983   3.879   6.674   5.452  2.6908 -2.4491  0.4888
  856TIP3    H223984   3.798   6.573   5.375  0.0715  0.4431 -0.6809
  857TIP3   OH223985   3.317   5.206   2.478  0.0573 -0.4091  0.2665
  857TIP3    H123986   3.398   5.256   2.476 -0.1159 -0.1689 -2.2347
  857TIP3    H223987   3.293   5.195   2.386 -3.0612  0.0170  0.9804
  858TIP3   OH223988   3.741   5.446   3.473  0.1744  0.0903 -0.1820
  858TIP3    H123989   3.787   5.507   3.530 -0.0505  1.7228 -1.6826
  858TIP3    H223990   3.805   5.422   3.406 -0.1709 -0.1532 -0.4300
  859TIP3   OH223991   1.790   5.781  11.764 -0.0363  0.0082  0.1611
  859TIP3    H123992   1.750   5.768  11.678  0.7681  0.3116 -0.2611
  859TIP3    H223993   1.801   5.876  11.771 -0.5108  0.0219  0.7885
  860TIP3   OH223994   6.352   3.710  13.214  0.3946 -0.0600 -0.4054
  860TIP3    H123995   6.320   3.646  13.278  0.5253  0.1975 -0.0823
  860TIP3    H223996   6.340   3.667  13.130 -1.1514  0.1764 -0.3267
  861TIP3   OH223997   2.338   2.423  14.932  0.6175  0.5776 -0.2844
  861TIP3    H123998   2.251   2.427  14.972  1.1209 -2.3854  1.2889
  861TIP3    H223999   2.326   2.372  14.853  1.3626 -2.4099  1.4515
  862TIP3   OH224000   0.159   5.773   4.401 -0.3398  0.0811  0.4599
  862TIP3    H124001   0.153   5.852   4.347 -0.9944 -0.8839 -0.9129
  862TIP3    H224002   0.079   5.773   4.452  0.3134  1.0366  1.4971
  863TIP3   OH224003   1.155   3.146   4.794 -0.2843  0.3462  0.5679
  863TIP3    H124004   1.136   3.200   4.871  0.8194  2.7232 -0.8046
  863TIP3    H224005   1.068   3.125   4.758 -0.7019  2.2662  0.4031
  864TIP3   OH224006   2.735   1.649   5.507  0.3381  0.4676  0.2112
  864TIP3    H124007   2.649   1.613   5.484  0.1390  1.0152  0.0733
  864TIP3    H224008   2.718   1.742   5.520  0.4780  0.2146  2.4363
  865TIP3   OH224009   4.959   2.267   4.435 -0.2202 -0.6126 -0.1946
  865TIP3    H124010   4.877   2.263   4.483 -0.0022 -0.4638  0.1948
  865TIP3    H224011   4.936   2.247   4.344 -0.8341  0.3765 -0.2570
  866TIP3   OH224012   3.971   2.003   0.747  0.3884  0.3684 -0.1360
  866TIP3    H124013   3.914   2.069   0.708  0.6743  0.1538 -0.9405
  866TIP3    H224014   4.029   2.052   0.805 -0.5229  0.6031  0.5823
  867TIP3   OH224015   3.397   2.009  13.862  0.4898  0.0485 -0.3215
  867TIP3    H124016   3.358   2.081  13.911 -0.3059  0.2531 -1.2337
  867TIP3    H224017   3.405   1.938  13.926 -0.9140  0.1791  0.0138
  868TIP3   OH224018   2.517   2.694  16.327 -0.1393 -0.5646 -0.1393
  868TIP3    H124019   2.562   2.750  16.390 -1.1209 -0.6898  0.7011
  868TIP3    H224020   2.430   2.733  16.317 -0.0318 -0.6107 -1.3404
  869TIP3   OH224021   5.197   1.830  15.975  0.4241 -0.7246  0.3667
  869TIP3    H124022   5.292   1.843  15.972  0.1226  1.8265  0.3543
  869TIP3    H224023   5.185   1.737  15.959  2.9473 -1.1481  0.7083
  870TIP3   OH224024   5.712   2.455   1.908  0.1120  0.0299 -0.1566
  870TIP3    H124025   5.775   2.498   1.849  0.2584  0.0714  0.0301
  870TIP3    H224026   5.759   2.379   1.942 -0.5309 -0.9220 -1.3650
  871TIP3   OH224027   4.743   1.586   3.305 -0.6253 -0.1820 -0.0265
  871TIP3    H124028   4.814   1.643   3.274  1.4628 -3.1006 -0.9252
  871TIP3    H224029   4.674   1.596   3.240 -0.1525  1.0483 -0.3574
  872TIP3   OH224030   4.299   0.928  14.161 -0.3406 -0.2118 -0.2649
  872TIP3    H124031   4.384   0.972  14.161 -0.8947  0.8729 -0.6824
  872TIP3    H224032   4.288   0.897  14.071 -0.1911 -0.7488 -0.1018
  873TIP3   OH224033   4.358   3.402   3.923 -0.5131  0.1219  0.1075
  873TIP3    H124034   4.381   3.334   3.860 -0.7388  1.2845 -1.2681
  873TIP3    H224035   4.422   3.392   3.994  0.5912 -0.3600 -0.9340
  874TIP3   OH224036   2.058   2.790  13.537  0.1770 -0.1925 -0.2626
  874TIP3    H124037   2.036   2.883  13.537  0.5159 -0.0997  1.5658
  874TIP3    H224038   1.983   2.748  13.494 -1.2543  0.6553  1.3402
  875TIP3   OH224039   2.473   5.601   0.490  0.3165 -0.1159  0.2596
  875TIP3    H124040   2.567   5.618   0.489  0.6758 -2.0222  0.3149
  875TIP3    H224041   2.454   5.567   0.403 -0.5336  1.2251 -0.1017
  876TIP3   OH224042   6.047   3.057   2.045  0.0027  0.4762  0.0216
  876TIP3    H124043   6.009   2.995   2.107  0.4415  1.4880  1.2980
  876TIP3    H224044   5.982   3.126   2.037 -0.2115  0.1736 -0.9327
  877TIP3   OH224045   0.297   3.579   6.299 -0.2727 -0.0658  0.0990
  877TIP3    H124046   0.363   3.647   6.312  1.4780 -1.8035  0.6583
  877TIP3    H224047   0.322   3.509   6.360 -3.1458 -0.4411  0.9312
  878TIP3   OH224048   0.155   4.650   0.186  0.1312  0.2769 -0.6424
  878TIP3    H124049   0.099   4.690   0.252  0.1151 -0.7440 -0.0406
  878TIP3    H224050   0.232   4.621   0.234 -1.4368 -3.7719 -0.3872
  879TIP3   OH224051   1.677   4.334  15.755 -0.6836  0.2032  0.8309
  879TIP3    H124052   1.663   4.240  15.747 -1.1394  0.2819  0.6986
  879TIP3    H224053   1.597   4.367  15.795 -0.5617  0.5480  0.7917
  880TIP3   OH224054   6.077   6.022   1.666  0.7875 -0.3633 -0.1047
  880TIP3    H124055   6.087   5.928   1.650 -0.3680 -0.6272  0.6357
  880TIP3    H224056   5.982   6.035   1.670  0.9501  0.7915  0.0669
  881TIP3   OH224057   0.897   5.191  10.335  0.6637 -0.3708 -0.3408
  881TIP3    H124058   0.828   5.148  10.385  1.4983  0.1414  1.2769
  881TIP3    H224059   0.866   5.281  10.323 -0.0053 -0.7689 -1.6634
  882TIP3   OH224060   6.427   1.221  14.926 -0.1110 -0.0487  0.6638
  882TIP3    H124061   6.400   1.286  14.991 -2.2446  0.5828 -0.7732
  882TIP3    H224062   6.423   1.269  14.843  0.6191 -1.3857 -0.1519
  883TIP3   OH224063   2.165   1.828   1.600 -0.7558 -0.4626  0.7318
  883TIP3    H124064   2.140   1.817   1.692 -1.3570 -1.1999  0.4883
  883TIP3    H224065   2.135   1.747   1.558 -0.0970 -0.3140 -0.0281
  884TIP3   OH224066   6.754   0.662   3.222 -0.2265 -0.5055 -0.0282
  884TIP3    H124067   6.746   0.739   3.279  1.0557  0.4276 -1.0816
  884TIP3    H224068   6.830   0.615   3.256 -1.5607 -1.8633  1.2058
  885TIP3   OH224069   0.368   4.170   3.749 -0.1315 -0.7038  1.1200
  885TIP3    H124070   0.285   4.123   3.752  0.1538 -1.3985 -0.9956
  885TIP3    H224071   0.434   4.102   3.746  0.3679 -0.1851 -0.0851
  886TIP3   OH224072   3.065   3.659  14.944 -0.4275  0.0519 -0.6052
  886TIP3    H124073   3.033   3.721  15.009 -0.4078  0.3367 -0.8673
  886TIP3    H224074   2.999   3.660  14.875  0.3645  0.9845 -1.3617
  887TIP3   OH224075   1.913   5.437   1.904  0.8329  0.2769  0.1331
  887TIP3    H124076   1.842   5.486   1.946  0.4644  0.5104 -0.7587
  887TIP3    H224077   1.874   5.400   1.825  1.4460 -0.4177  0.1480
  888TIP3   OH224078   2.735   0.434   4.082 -0.2681 -0.0636 -0.1099
  888TIP3    H124079   2.724   0.341   4.103  0.3738 -1.0256 -3.5619
  888TIP3    H224080   2.783   0.433   3.999  1.6679  3.4173  0.9025
  889TIP3   OH224081   0.659   2.601  13.616 -0.1999 -0.0468  0.3475
  889TIP3    H124082   0.586   2.662  13.615  1.2713  1.7395 -0.0327
  889TIP3    H224083   0.712   2.629  13.691  0.2951 -1.0840  0.3896
  890TIP3   OH224084   5.374   4.706  13.834 -0.1851 -0.2406 -0.4330
  890TIP3    H124085   5.294   4.758  13.830  0.3814  0.6156 -0.8083
  890TIP3    H224086   5.372   4.653  13.753 -0.3682 -0.2199 -0.4407
  891TIP3   OH224087   5.352   2.789  16.376  0.2996 -0.3143 -0.0491
  891TIP3    H124088   5.430   2.770  16.428 -0.6399  0.0152  1.5149
  891TIP3    H224089   5.333   2.707  16.331  0.4550 -0.9774  1.0614
  892TIP3   OH224090   0.434   6.722  16.763  0.3711 -0.7091 -0.4166
  892TIP3    H124091   0.339   6.728  16.755  0.3342 -1.0190 -0.2320
  892TIP3    H224092   0.448   6.689  16.852  0.6408 -1.0070 -0.5689
  893TIP3   OH224093   5.949   1.664   2.232  0.3734  0.1939  0.4717
  893TIP3    H124094   5.931   1.572   2.214 -0.4206  0.8011 -2.0825
  893TIP3    H224095   6.000   1.663   2.314 -0.4163 -2.4151  0.9909
  894TIP3   OH224096   5.128   0.508   2.878 -0.2043  0.2314 -0.1345
  894TIP3    H124097   5.052   0.528   2.933  0.4467 -0.0186  0.8661
  894TIP3    H224098   5.154   0.593   2.842 -1.2720  0.2395 -0.8928
  895TIP3   OH224099   6.671   0.737   5.190  0.1897  0.2757  0.2228
  895TIP3    H124100   6.708   0.809   5.138  0.0564  0.4533  0.3719
  895TIP3    H224101   6.605   0.779   5.245 -1.2112 -0.2451 -1.0280
  896TIP3   OH224102   3.740   4.507   0.024  0.2791  0.0651  0.7651
  896TIP3    H124103   3.802   4.562  -0.024  0.4960  1.3298  2.4147
  896TIP3    H224104   3.783   4.422   0.031 -0.5029 -0.7142 -2.7410
  897TIP3   OH224105   2.433   4.065   0.654  0.7153 -0.1449 -0.2110
  897TIP3    H124106   2.508   4.012   0.626  2.4783  1.5111  1.2541
  897TIP3    H224107   2.434   4.141   0.595  0.5148  0.1231  0.1271
  898TIP3   OH224108   3.906   0.862   5.470 -0.0479 -0.5055  0.1613
  898TIP3    H124109   3.833   0.853   5.531 -0.4979 -1.1011 -0.4593
  898TIP3    H224110   3.918   0.957   5.460  0.0728 -0.4081  1.2141
  899TIP3   OH224111   1.190   5.905   0.815 -0.3742 -0.5204 -0.7125
  899TIP3    H124112   1.207   5.974   0.751 -2.6614 -0.7236 -1.5881
  899TIP3    H224113   1.111   5.933   0.861 -0.9191 -2.1980 -0.5771
  900TIP3   OH224114   2.015   2.307   5.882 -0.1941 -0.1878 -0.4714
  900TIP3    H124115   1.986   2.229   5.929  0.5973 -1.1604 -1.5584
  900TIP3    H224116   2.082   2.346   5.938 -2.7019  1.4315  1.5040
  901TIP3   OH224117   0.747   4.942   1.510 -0.3607  0.3464  0.3214
  901TIP3    H124118   0.786   5.029   1.501 -1.5415  0.9003  0.5172
  901TIP3    H224119   0.768   4.915   1.599  0.2938  0.2789  0.1527
  902TIP3   OH224120   3.738   2.366  12.558  0.1327  0.2993  0.0928
  902TIP3    H124121   3.662   2.404  12.600  1.5783  0.8569  2.2802
  902TIP3    H224122   3.791   2.441  12.531  0.2604 -0.0930 -0.7888
  903TIP3   OH224123   5.194   0.968   1.994  0.0181  0.0661  0.7739
  903TIP3    H124124   5.109   0.980   2.034  0.5121  2.7120  1.0697
  903TIP3    H224125   5.248   0.928   2.062 -0.7864 -1.0101  0.7874
  904TIP3   OH224126   6.667   5.737  11.856  0.2561  0.0759 -0.4944
  904TIP3    H124127   6.699   5.767  11.771  1.0819  0.3780 -0.0808
  904TIP3    H224128   6.722   5.783  11.919 -0.9371  0.5352  0.2255
  905TIP3   OH224129   4.270   4.739   4.419 -0.4120  0.1499  0.0591
  905TIP3    H124130   4.319   4.798   4.477 -2.4725  0.8138  1.1764
  905TIP3    H224131   4.271   4.655   4.464 -0.5226  0.2309  0.2144
  906TIP3   OH224132   4.619   4.767   6.418 -0.2280 -0.2714  0.3825
  906TIP3    H124133   4.678   4.749   6.345  1.0296  0.9485  1.0590
  906TIP3    H224134   4.558   4.694   6.419  1.1232 -1.4275 -0.4993
  907TIP3   OH224135   6.466   0.904  12.040  0.4632  0.4355  0.2226
  907TIP3    H124136   6.528   0.831  12.048  1.0713  0.9473  0.2527
  907TIP3    H224137   6.517   0.981  12.066  0.8825  1.3992 -3.2180
  908TIP3   OH224138   3.470   5.525  15.914  0.0396 -0.2630  0.2052
  908TIP3    H124139   3.474   5.438  15.954  0.3687 -0.8739 -1.1378
  908TIP3    H224140   3.383   5.557  15.936 -0.8426 -1.7724 -0.9752
  909TIP3   OH224141   0.741   4.707  10.636 -0.2261  0.2720 -0.3256
  909TIP3    H124142   0.778   4.674  10.554 -1.6517 -2.1510 -0.0594
  909TIP3    H224143   0.688   4.782  10.611  0.1432  0.1439 -1.4880
  910TIP3   OH224144   6.737   2.630  16.357 -0.4018 -0.1255 -0.8760
  910TIP3    H124145   6.826   2.662  16.345 -0.5212  0.3244 -0.5715
  910TIP3    H224146   6.707   2.608  16.269 -0.3997  0.7992 -1.1045
  911TIP3   OH224147   4.543   0.643   1.182 -0.4360 -0.7432 -0.2332
  911TIP3    H124148   4.516   0.551   1.192  3.6025 -1.9380  0.5063
  911TIP3    H224149   4.587   0.664   1.264  0.0621  1.3462 -1.0143
  912TIP3   OH224150   5.776   3.492   2.005 -0.2989  0.4251  0.6926
  912TIP3    H124151   5.797   3.499   2.098  0.4048 -1.6326  0.7120
  912TIP3    H224152   5.682   3.509   2.000 -0.1461  1.6436  1.6248
  913TIP3   OH224153   0.930   0.746   1.761  0.3662  0.0028  0.0274
  913TIP3    H124154   0.992   0.798   1.813  0.1617  0.9186 -0.6272
  913TIP3    H224155   0.975   0.664   1.744  0.5050 -0.2413  1.5028
  914TIP3   OH224156   1.311   0.087  12.176 -0.0637 -0.5110 -0.6447
  914TIP3    H124157   1.255   0.013  12.153  1.4480 -2.0937  0.6249
  914TIP3    H224158   1.369   0.097  12.100  0.9945 -1.8922 -0.0386
  915TIP3   OH224159   2.940   3.828  14.257  0.0829 -0.4114 -0.5357
  915TIP3    H124160   2.998   3.774  14.309  1.1671 -1.5713 -2.8562
  915TIP3    H224161   2.853   3.818  14.297  1.0699 -0.3590  1.6588
  916TIP3   OH224162   6.064   4.810   4.222 -0.2389 -0.1978 -0.8990
  916TIP3    H124163   6.039   4.889   4.270 -1.9659 -0.1841 -1.7786
  916TIP3    H224164   6.052   4.739   4.284 -0.0816  0.0759 -0.5531
  917TIP3   OH224165   3.082   1.296  15.877  0.1249  0.3009 -0.0399
  917TIP3    H124166   3.020   1.290  15.950 -0.6129  0.6515 -0.6405
  917TIP3    H224167   3.166   1.314  15.920 -0.4689  1.4535  0.6585
  918TIP3   OH224168   6.435   6.442  15.336 -0.5567 -0.4392  0.1793
  918TIP3    H124169   6.463   6.521  15.383 -1.2089 -0.0208 -0.1371
  918TIP3    H224170   6.444   6.372  15.401  2.0928 -0.4613 -0.1697
  919TIP3   OH224171   5.063   5.698   4.862  0.0779 -0.0878  0.4336
  919TIP3    H124172   5.125   5.631   4.891 -0.5746 -0.6646  0.5111
  919TIP3    H224173   5.118   5.768   4.828  0.7858 -0.4030  0.9130
  920TIP3   OH224174   5.564   6.115   0.089  0.5953 -0.1595 -0.2049
  920TIP3    H124175   5.580   6.050   0.158  0.2383 -2.4093 -2.1620
  920TIP3    H224176   5.634   6.179   0.099  2.2131 -2.0077  0.4647
  921TIP3   OH224177   0.744   0.357  17.058  0.3478  0.2447 -0.4688
  921TIP3    H124178   0.663   0.338  17.106 -0.0834  1.7428 -0.6009
  921TIP3    H224179   0.741   0.298  16.983 -1.2142  1.1279 -1.1203
  922TIP3   OH224180   3.615   2.663  15.995 -0.1023 -0.1362 -0.1150
  922TIP3    H124181   3.636   2.578  15.956 -0.1772  1.1858 -3.1363
  922TIP3    H224182   3.601   2.721  15.920  0.0901  2.5886  1.9027
  923TIP3   OH224183   2.188   6.736   5.989  0.3722  0.7014  1.1793
  923TIP3    H124184   2.161   6.679   6.061 -0.4508  1.7058  1.6818
  923TIP3    H224185   2.106   6.757   5.942  0.6664  1.3912  0.9566
  924TIP3   OH224186   5.437   4.204   3.792  0.1836 -0.1531  0.2359
  924TIP3    H124187   5.518   4.222   3.839 -0.5273  1.5081  0.8647
  924TIP3    H224188   5.384   4.154   3.854  0.6719 -1.1647 -0.1450
  925TIP3   OH224189   0.561   0.769  12.490 -0.1018  0.4092 -0.3502
  925TIP3    H124190   0.467   0.774  12.477  0.1102  0.2966 -1.9633
  925TIP3    H224191   0.595   0.854  12.463  0.0965  1.0341  1.7860
  926TIP3   OH224192   2.615   3.897  13.205 -0.1423  0.3360 -0.1379
  926TIP3    H124193   2.585   3.834  13.270  1.5621 -0.9844 -0.6103
  926TIP3    H224194   2.593   3.857  13.121 -1.6569  1.6963 -0.4067
  927TIP3   OH224195   0.153   6.567   4.441  0.0856  0.7419  0.0314
  927TIP3    H124196   0.103   6.646   4.418 -0.0105  0.7202  0.1631
  927TIP3    H224197   0.086   6.498   4.450 -0.0371  1.0329  1.6585
  928TIP3   OH224198   6.414   2.765   1.948 -0.2527 -0.4327 -0.5443
  928TIP3    H124199   6.381   2.834   2.005  0.6400  0.7011 -1.3839
  928TIP3    H224200   6.338   2.708   1.934 -0.8163 -0.0156  0.7136
  929TIP3   OH224201   2.065   5.947  17.031 -0.4929 -0.4591  0.3439
  929TIP3    H124202   2.059   5.971  16.938  0.2135  1.4347  0.7767
  929TIP3    H224203   2.002   5.875  17.041 -0.0517 -1.1923 -1.7617
  930TIP3   OH224204   0.235   2.967  13.818 -0.5471  0.2950 -0.0887
  930TIP3    H124205   0.270   3.039  13.871 -0.9501 -0.5678  1.3685
  930TIP3    H224206   0.141   2.981  13.816 -0.5814  0.0580 -0.1839
  931TIP3   OH224207   0.868   4.489  13.688  0.5164 -0.3225  0.1422
  931TIP3    H124208   0.797   4.512  13.627  0.2607  1.2101  0.9897
  931TIP3    H224209   0.871   4.394  13.686 -2.3013 -0.4661  0.9173
  932TIP3   OH224210   5.740   5.532  10.435  0.2173 -0.0772 -0.1529
  932TIP3    H124211   5.804   5.602  10.451  0.9349 -0.8333  0.3520
  932TIP3    H224212   5.679   5.569  10.371  0.2206  1.2305  0.5922
  933TIP3   OH224213   3.296   6.301  14.912 -0.2420  0.4418 -0.5730
  933TIP3    H124214   3.215   6.282  14.960 -0.3638 -0.0987 -0.9929
  933TIP3    H224215   3.296   6.239  14.839  0.9766 -0.1520 -0.0835
  934TIP3   OH224216   3.186   5.478  13.720 -0.4689 -0.4416  0.4150
  934TIP3    H124217   3.217   5.547  13.662  1.4283  0.2320  2.1458
  934TIP3    H224218   3.091   5.492  13.725  0.0678  3.2789  2.2053
  935TIP3   OH224219   0.864   3.889   2.565  0.7619 -0.0626 -0.1692
  935TIP3    H124220   0.885   3.798   2.587 -0.7374 -0.5433 -0.6059
  935TIP3    H224221   0.787   3.882   2.508  0.2460  1.5096  0.3070
  936TIP3   OH224222   6.438   1.282   2.723 -0.4470  0.4583  0.0555
  936TIP3    H124223   6.413   1.372   2.746 -1.3704  0.4642 -0.8798
  936TIP3    H224224   6.361   1.230   2.745 -0.3772  0.0878 -0.5640
  937TIP3   OH224225   6.280   5.478  16.545  0.2230 -0.3691 -0.1545
  937TIP3    H124226   6.315   5.478  16.456  1.9397 -0.7314  0.4975
  937TIP3    H224227   6.229   5.559  16.551  1.2114  0.3317 -1.0389
  938TIP3   OH224228   2.917   2.919   0.159 -0.0021 -0.0666 -0.2688
  938TIP3    H124229   2.963   2.955   0.083 -0.4205  0.2003 -0.3983
  938TIP3    H224230   2.854   2.858   0.123  0.1174 -0.2886 -0.1033
  939TIP3   OH224231   6.200   0.373   3.403  0.5899  0.1756 -0.6597
  939TIP3    H124232   6.236   0.288   3.380  0.3580  0.1689 -1.0048
  939TIP3    H224233   6.156   0.359   3.487  0.9646  0.0684 -0.4835
  940TIP3   OH224234   0.610   1.189  12.016 -0.3287 -0.3012  0.0506
  940TIP3    H124235   0.555   1.110  12.020 -1.8502  0.6920 -0.6793
  940TIP3    H224236   0.564   1.247  11.955  0.6212  1.2825  0.8079
  941TIP3   OH224237   0.897   0.786  16.997  0.2094 -0.6055 -0.0677
  941TIP3    H124238   0.940   0.854  16.945  1.7372  1.3238  3.5621
  941TIP3    H224239   0.942   0.705  16.971  1.9918  0.5306 -0.6557
  942TIP3   OH224240   0.520   1.866  13.111 -0.4149 -0.2464 -0.2199
  942TIP3    H124241   0.593   1.898  13.059 -0.2208  1.6160  1.1455
  942TIP3    H224242   0.540   1.774  13.127  1.1723  0.0102 -0.6456
  943TIP3   OH224243   2.797   2.289   6.404 -0.3320 -0.2491  0.3805
  943TIP3    H124244   2.827   2.202   6.378  0.0316 -0.0429  0.1015
  943TIP3    H224245   2.867   2.348   6.375  0.2304 -0.0356  2.1283
  944TIP3   OH224246   0.422   1.652   3.741 -0.1832 -0.0519 -0.3476
  944TIP3    H124247   0.366   1.677   3.814  0.4481  2.1128 -0.5692
  944TIP3    H224248   0.491   1.599   3.781 -0.9877 -0.6137  0.3041
  945TIP3   OH224249   4.853   2.060   4.692  0.8669  0.2998  0.3192
  945TIP3    H124250   4.837   2.019   4.777  1.3524  0.0956  0.3132
  945TIP3    H224251   4.876   1.987   4.634  0.5985  0.4453  0.0263
  946TIP3   OH224252   5.452   0.112   5.729  0.3056 -0.2297  0.0606
  946TIP3    H124253   5.474   0.184   5.788 -1.7164  1.0661 -0.7050
  946TIP3    H224254   5.486   0.139   5.644  0.6628 -0.7698  0.0307
  947TIP3   OH224255   5.198   0.451  12.343 -0.1416  0.0383 -1.1372
  947TIP3    H124256   5.184   0.356  12.341 -2.8357  0.4060 -2.4852
  947TIP3    H224257   5.158   0.482  12.262  0.6761  2.3475 -0.6855
  948TIP3   OH224258   0.863   1.543   5.416 -0.2264  0.2806 -0.1001
  948TIP3    H124259   0.950   1.574   5.440 -0.6841  1.5234  0.0051
  948TIP3    H224260   0.810   1.556   5.495 -1.1574  2.1092 -0.9923
  949TIP3   OH224261   1.456   2.577  16.944 -0.2526  0.4475  0.6761
  949TIP3    H124262   1.488   2.636  17.011 -0.0010 -0.6810  1.5693
  949TIP3    H224263   1.391   2.522  16.989 -0.8290  0.3452 -0.2451
  950TIP3   OH224264   2.706   0.003  16.975 -0.1378 -0.2574 -0.2922
  950TIP3    H124265   2.663   0.048  16.902  1.3656  0.4430 -0.7660
  950TIP3    H224266   2.713  -0.088  16.946 -2.8057 -0.7834  0.4911
  951TIP3   OH224267   1.117   5.028   2.397 -0.0447  0.2370  0.2588
  951TIP3    H124268   1.137   4.959   2.461 -2.4900  0.6280  1.5146
  951TIP3    H224269   1.144   5.109   2.441  2.0558  0.1805 -0.8809
  952TIP3   OH224270   1.318   1.292   4.365  0.0078  0.2467 -0.1168
  952TIP3    H124271   1.406   1.261   4.343  0.9899  0.5870  3.0383
  952TIP3    H224272   1.271   1.212   4.390 -0.4182  0.1318 -1.2792
  953TIP3   OH224273   2.094   4.447  14.555  0.4508 -0.3696 -0.3204
  953TIP3    H124274   2.082   4.352  14.549 -1.7312 -0.0343 -2.0438
  953TIP3    H224275   2.117   4.474  14.466 -0.7878  0.9321 -0.2626
  954TIP3   OH224276   6.548   3.767   1.046  0.6051  0.0462  0.2524
  954TIP3    H124277   6.622   3.827   1.039 -0.3513  1.2500  0.3283
  954TIP3    H224278   6.498   3.780   0.965  0.2504 -0.4602  0.3843
  955TIP3   OH224279   6.097   4.642   1.431  0.2415 -0.2185 -0.1107
  955TIP3    H124280   6.102   4.553   1.396 -0.6762 -0.5049  0.4437
  955TIP3    H224281   6.183   4.659   1.469  1.1852  0.0329 -2.3268
  956TIP3   OH224282   1.465   6.683  13.884  0.3760  0.2209 -0.0514
  956TIP3    H124283   1.548   6.722  13.909 -0.5979  2.4494 -0.1691
  956TIP3    H224284   1.403   6.756  13.882 -1.1269 -1.0185 -2.0553
  957TIP3   OH224285   6.375   5.858  11.015  0.0589  0.0375  0.2656
  957TIP3    H124286   6.437   5.905  10.959 -0.5553 -0.5612 -0.9343
  957TIP3    H224287   6.312   5.925  11.043  1.7030  0.8326  2.1966
  958TIP3   OH224288   5.282   1.310  12.828 -0.2051  0.1028 -0.0086
  958TIP3    H124289   5.246   1.398  12.834 -0.4883 -0.0042 -0.1019
  958TIP3    H224290   5.241   1.263  12.901 -1.5717 -0.4772 -1.1149
  959TIP3   OH224291   5.304   1.619  16.609  0.5636 -0.1918  0.1225
  959TIP3    H124292   5.228   1.567  16.635  0.2125  0.2823  0.0480
  959TIP3    H224293   5.289   1.638  16.516  0.1441  0.9681  0.4182
  960TIP3   OH224294   4.665   3.111   0.042  0.1190 -0.0470 -0.2646
  960TIP3    H124295   4.667   3.049  -0.032 -1.7229  0.6107 -0.9055
  960TIP3    H224296   4.753   3.149   0.043  0.3120 -0.3757 -1.8564
  961TIP3   OH224297   4.608   1.420   2.105  0.3339  0.3178 -0.1884
  961TIP3    H124298   4.659   1.500   2.119  2.0647 -0.4966 -1.6019
  961TIP3    H224299   4.668   1.361   2.060 -2.5978  0.2496 -4.3751
  962TIP3   OH224300   5.344   2.647   6.222 -0.0695 -0.4058 -0.1357
  962TIP3    H124301   5.316   2.594   6.148 -1.5072 -2.0431  1.5053
  962TIP3    H224302   5.269   2.645   6.282  1.6369 -0.5020  2.0809
  963TIP3   OH224303   0.260   6.301   1.177  0.6698 -0.7417 -0.2085
  963TIP3    H124304   0.236   6.225   1.230 -1.8587  0.1133 -0.0737
  963TIP3    H224305   0.197   6.368   1.201  0.1490  0.0269 -3.4979
  964TIP3   OH224306   5.803   4.769  13.701 -0.6714 -0.4317  0.1421
  964TIP3    H124307   5.724   4.715  13.707 -0.4980 -0.4991  2.0438
  964TIP3    H224308   5.865   4.727  13.760  0.4351  0.2266 -0.5501
  965TIP3   OH224309   0.317   0.363  15.863  0.3653 -0.4222  0.3350
  965TIP3    H124310   0.253   0.418  15.817  1.5564  0.2413 -0.5576
  965TIP3    H224311   0.330   0.288  15.804  0.6502 -0.3938  0.3610
  966TIP3   OH224312   0.376   6.638  11.355  0.2888  0.5759  0.0594
  966TIP3    H124313   0.371   6.621  11.449  0.1219  0.1128 -0.0308
  966TIP3    H224314   0.316   6.712  11.341  0.3053  0.6375  0.3125
  967TIP3   OH224315   3.082   3.636   2.817  0.0178 -1.2807  0.3719
  967TIP3    H124316   3.177   3.648   2.822  0.2350 -1.8704 -1.7862
  967TIP3    H224317   3.050   3.714   2.772 -0.4261 -1.4664  0.3607
  968TIP3   OH224318   2.093   1.558   4.919  0.0371 -0.3122 -0.1986
  968TIP3    H124319   2.013   1.540   4.870 -0.7045  0.6875  0.6374
  968TIP3    H224320   2.133   1.633   4.874 -0.3673  0.2606  0.3802
  969TIP3   OH224321   6.392   0.308  11.604 -0.0497  0.4790 -0.1915
  969TIP3    H124322   6.409   0.216  11.587 -0.1584  0.5768 -0.8524
  969TIP3    H224323   6.445   0.355  11.540 -0.2438  0.8660 -0.0732
  970TIP3   OH224324   5.424   6.214   6.065  0.0268 -0.5067 -0.0078
  970TIP3    H124325   5.365   6.165   6.008  0.2755 -0.0126 -0.6977
  970TIP3    H224326   5.388   6.202   6.153 -0.4815 -1.0946 -0.2925
  971TIP3   OH224327   1.220   3.585  15.303  0.1357 -0.4006  0.4216
  971TIP3    H124328   1.279   3.584  15.379 -0.2227 -1.5152  0.7018
  971TIP3    H224329   1.145   3.637  15.332 -0.1105 -1.0281  0.9336
  972TIP3   OH224330   2.381   3.254   4.968  0.0378  0.4798 -0.0254
  972TIP3    H124331   2.318   3.197   5.012  0.0601 -0.1920 -0.8398
  972TIP3    H224332   2.375   3.337   5.015 -0.2536 -0.0838  0.9525
  973TIP3   OH224333   5.404   2.454  14.268  0.1717 -0.4095 -0.0204
  973TIP3    H124334   5.395   2.547  14.249 -0.8288 -0.7484 -1.3227
  973TIP3    H224335   5.344   2.411  14.207  1.0413 -1.9523  0.1673
  974TIP3   OH224336   5.395   6.245  13.166  0.0984 -0.1773  0.1236
  974TIP3    H124337   5.434   6.179  13.224  0.3437 -0.8170 -0.7589
  974TIP3    H224338   5.441   6.234  13.083 -0.2564  0.7308 -0.1962
  975TIP3   OH224339   1.582   2.947  12.756 -0.0749  0.0989  0.1304
  975TIP3    H124340   1.510   2.947  12.693  0.7538 -1.1776 -0.8645
  975TIP3    H224341   1.657   2.978  12.706  0.6859 -1.3349  0.3400
  976TIP3   OH224342   3.956   5.413  15.101  0.1316  0.0880  0.7326
  976TIP3    H124343   3.997   5.499  15.109  0.7774 -0.2426  0.9835
  976TIP3    H224344   3.875   5.421  15.151 -1.0687  1.3244 -1.2832
  977TIP3   OH224345   2.548   5.442   5.850 -0.2111  0.5631 -0.3345
  977TIP3    H124346   2.640   5.467   5.848 -0.2757  0.8930  0.6326
  977TIP3    H224347   2.540   5.373   5.785  0.9694 -0.3418  0.4650
  978TIP3   OH224348   6.302   2.842  11.159  0.0041  0.2236 -0.1109
  978TIP3    H124349   6.368   2.893  11.112 -0.2702  1.9171  1.2694
  978TIP3    H224350   6.326   2.852  11.251 -0.3407 -1.7961  0.2191
  979TIP3   OH224351   2.886   4.645   3.969  0.5012  0.4065 -0.3974
  979TIP3    H124352   2.925   4.567   4.006  1.0295  1.3777  1.1414
  979TIP3    H224353   2.793   4.640   3.993  0.5593  0.3173 -0.1985
  980TIP3   OH224354   5.230   5.448  13.736  0.0460  0.2847  0.0766
  980TIP3    H124355   5.215   5.457  13.641 -0.2854  0.4478  0.1438
  980TIP3    H224356   5.322   5.472  13.747  0.4520 -1.0401 -0.3739
  981TIP3   OH224357   1.553   6.099  15.609  0.3404  1.2564  0.2144
  981TIP3    H124358   1.594   6.182  15.632  2.3307  0.3740 -0.1103
  981TIP3    H224359   1.621   6.049  15.564 -0.7361 -0.6932  0.6693
  982TIP3   OH224360   3.447   0.622   5.019 -0.6838 -0.2068  0.2007
  982TIP3    H124361   3.450   0.651   4.927 -0.9336  0.5475  0.4246
  982TIP3    H224362   3.534   0.584   5.034 -0.6746 -0.4277 -0.3768
  983TIP3   OH224363   4.782   0.218   2.995  0.1326 -0.5303 -0.6917
  983TIP3    H124364   4.855   0.164   3.024 -0.8403 -1.0452  0.8245
  983TIP3    H224365   4.748   0.258   3.075 -0.7979  0.2817 -1.4760
  984TIP3   OH224366   2.394   2.220   6.285  0.6174 -0.8081 -0.0795
  984TIP3    H124367   2.436   2.150   6.237  0.7280 -1.6863  1.2705
  984TIP3    H224368   2.320   2.179   6.329  0.6560 -0.0754  0.6888
  985TIP3   OH224369   2.669   2.820  12.139 -0.1673  0.6411  0.1222
  985TIP3    H124370   2.707   2.908  12.143 -2.9606  2.0461 -1.9717
  985TIP3    H224371   2.638   2.803  12.227  0.4063  1.7562  0.5443
  986TIP3   OH224372   1.304   2.604   5.295 -0.3931  0.1063 -0.1506
  986TIP3    H124373   1.361   2.680   5.290 -1.3886  0.9670  1.0829
  986TIP3    H224374   1.360   2.535   5.331  0.3096  0.4543 -0.5526
  987TIP3   OH224375   4.626   4.745   0.677  0.5512 -0.3494 -0.3712
  987TIP3    H124376   4.581   4.767   0.759 -0.6744 -1.7645 -0.6524
  987TIP3    H224377   4.566   4.775   0.609  1.8245  1.3475 -0.7901
  988TIP3   OH224378   3.231   2.853  12.832 -0.1297  0.2269 -0.8166
  988TIP3    H124379   3.216   2.759  12.818  1.9158 -0.0777 -1.1155
  988TIP3    H224380   3.289   2.857  12.908  1.5702  1.1110 -2.1247
  989TIP3   OH224381   4.824   5.807   2.878  0.5112 -0.6020  0.2940
  989TIP3    H124382   4.781   5.740   2.932  0.5948 -0.2122  0.8490
  989TIP3    H224383   4.911   5.769   2.860 -0.6888 -2.2204 -2.4111
  990TIP3   OH224384   4.488   0.236  14.757  0.2379  0.4140  0.0218
  990TIP3    H124385   4.498   0.141  14.770  1.7279  0.7149  1.1182
  990TIP3    H224386   4.483   0.246  14.661 -2.7604 -1.0281 -0.0313
  991TIP3   OH224387   6.097   2.780   2.291  0.0939  0.0659  0.0782
  991TIP3    H124388   6.088   2.864   2.338  0.7257 -0.2374  0.7484
  991TIP3    H224389   6.187   2.752   2.308 -0.1520 -0.8121 -0.0396
  992TIP3   OH224390   3.787   1.530  16.886  0.0237  0.2195  0.4536
  992TIP3    H124391   3.875   1.545  16.919  0.0667 -2.0231  1.4534
  992TIP3    H224392   3.791   1.557  16.794  1.7211  0.1792  0.5026
  993TIP3   OH224393   4.635   1.135  15.643  0.1000 -0.4399 -0.4913
  993TIP3    H124394   4.656   1.213  15.694 -1.5433 -0.5201  0.3159
  993TIP3    H224395   4.631   1.167  15.552  1.8759 -0.0828 -0.4730
  994TIP3   OH224396   3.815   3.007   3.244  0.1353 -0.0367 -0.0058
  994TIP3    H124397   3.782   3.067   3.312  1.1783  1.3434 -0.6775
  994TIP3    H224398   3.835   2.926   3.291 -0.5539  0.4058  1.0708
  995TIP3   OH224399   2.970   4.901  13.444 -0.1336 -0.1225 -0.0884
  995TIP3    H124400   2.887   4.947  13.457 -0.0036  0.0861  0.0023
  995TIP3    H224401   2.945   4.818  13.404 -0.4136 -0.2041  0.2619
  996TIP3   OH224402   6.698   0.157   3.030  0.1475 -0.6607 -0.4052
  996TIP3    H124403   6.623   0.211   3.004 -1.4741 -1.7610  1.8064
  996TIP3    H224404   6.763   0.219   3.062  0.1011  0.2768 -2.0422
  997TIP3   OH224405   2.024   3.851  16.571 -0.1685  0.2485  0.1933
  997TIP3    H124406   2.076   3.773  16.549 -2.3210 -1.6451  1.5727
  997TIP3    H224407   2.047   3.915  16.504  2.2811 -1.2711 -0.4863
  998TIP3   OH224408   2.623   5.173  12.816  0.3188  0.3226  0.0013
  998TIP3    H124409   2.569   5.113  12.866 -0.3092  0.8065 -0.0956
  998TIP3    H224410   2.713   5.151  12.842 -0.0290  1.0318  1.8497
  999TIP3   OH224411   1.490   2.804   5.515 -0.1642 -0.2740  0.4394
  999TIP3    H124412   1.491   2.824   5.421  0.8086 -0.6276  0.3647
  999TIP3    H224413   1.583   2.808   5.540 -0.3345 -1.1127  1.1896
 1000TIP3   OH224414   4.036   5.799  14.899 -0.1110  0.1828 -0.0307
 1000TIP3    H124415   4.076   5.811  14.813 -4.6324  0.1244 -2.2590
 1000TIP3    H224416   4.003   5.885  14.923  0.0560 -0.0653  1.1356
 1001TIP3   OH224417   6.202   4.706  14.834  0.3688  0.3426 -0.5399
 1001TIP3    H124418   6.115   4.669  14.825  1.8391 -2.8134 -2.8658
 1001TIP3    H224419   6.206   4.737  14.925 -2.8248 -0.2146 -0.1443
 1002TIP3   OH224420   5.350   2.354   0.793 -0.1668 -0.2145  0.6206
 1002TIP3    H124421   5.418   2.286   0.798  0.6294  0.5605  0.4563
 1002TIP3    H224422   5.398   2.434   0.773 -1.0581  0.4718  1.2026
 1003TIP3   OH224423   6.301   6.089   5.634  0.4600  0.0010  0.2434
 1003TIP3    H124424   6.357   6.164   5.653  0.8756 -0.3585  0.4413
 1003TIP3    H224425   6.215   6.114   5.667  0.4243  0.6880 -0.3508
 1004TIP3   OH224426   0.344   5.868  15.998  0.5620  0.3672  0.8483
 1004TIP3    H124427   0.309   5.791  15.954 -0.6060  1.3691 -0.0141
 1004TIP3    H224428   0.270   5.903  16.047  1.1633  0.7688  1.4677
 1005TIP3   OH224429   6.363   5.380   4.453 -0.0426 -0.5436  1.0098
 1005TIP3    H124430   6.415   5.411   4.527  0.7751  0.3431  0.0873
 1005TIP3    H224431   6.416   5.401   4.376 -1.7662  0.4541  0.0404
 1006TIP3   OH224432   3.537   6.305   2.071  0.1932  0.0644  0.0287
 1006TIP3    H124433   3.491   6.222   2.068  0.6722 -0.1791 -0.6397
 1006TIP3    H224434   3.497   6.358   2.002  0.6444 -0.0161 -0.3015
 1007TIP3   OH224435   0.631   1.484  15.935  0.0512  0.2685 -0.4395
 1007TIP3    H124436   0.637   1.446  15.847  1.3092 -0.6902  0.0502
 1007TIP3    H224437   0.611   1.409  15.992  1.3492  0.5329  0.3767
 1008TIP3   OH224438   1.574   1.108  16.624 -0.0580  0.5756 -0.4117
 1008TIP3    H124439   1.535   1.194  16.609 -1.0413  0.2110  0.0382
 1008TIP3    H224440   1.503   1.046  16.608 -0.0707 -0.0252  1.8733
 1009TIP3   OH224441   1.668   4.266  14.704  0.2157  0.2658  0.1491
 1009TIP3    H124442   1.632   4.181  14.678  0.3580 -0.2177  1.4776
 1009TIP3    H224443   1.762   4.250  14.714  0.3470  0.7563 -0.2737
 1010TIP3   OH224444   2.395   2.072   5.111  0.6368 -0.3901 -0.7351
 1010TIP3    H124445   2.377   2.120   5.192 -0.1538 -1.3085 -0.3672
 1010TIP3    H224446   2.446   2.134   5.058 -1.1658  1.2220 -0.6624
 1011TIP3   OH224447   5.510   2.119  15.754 -0.4933  0.0281  0.1094
 1011TIP3    H124448   5.537   2.193  15.808 -0.1733  0.4026 -0.5633
 1011TIP3    H224449   5.415   2.111  15.769 -0.8881  1.8259 -1.3581
 1012TIP3   OH224450   6.777   1.114  12.692  0.1905  0.1252 -0.4191
 1012TIP3    H124451   6.745   1.032  12.655  0.0805  0.2606 -0.6209
 1012TIP3    H224452   6.727   1.124  12.774  0.4715 -0.1986 -0.2027
 1013TIP3   OH224453   3.807   5.502  15.799  0.0385 -0.0994  0.3391
 1013TIP3    H124454   3.807   5.547  15.715  0.9895 -0.6946  0.0154
 1013TIP3    H224455   3.801   5.572  15.864 -0.7175  0.3569 -0.2183
 1014TIP3   OH224456   4.441   5.920   0.504  0.0259  0.0671 -0.5912
 1014TIP3    H124457   4.406   5.992   0.453 -3.6113 -0.0766  1.5017
 1014TIP3    H224458   4.520   5.955   0.546 -1.5341  2.7736  0.1701
 1015TIP3   OH224459   0.623   6.119  12.814 -0.0003  0.1522 -0.0266
 1015TIP3    H124460   0.537   6.096  12.779 -0.5212  2.0863 -0.0922
 1015TIP3    H224461   0.677   6.133  12.736  0.4908 -1.4308  0.0174
 1016TIP3   OH224462   5.974   2.602   3.173 -0.3742 -0.0264  0.2351
 1016TIP3    H124463   5.994   2.677   3.228  1.3126  0.4318 -0.9664
 1016TIP3    H224464   5.879   2.608   3.158 -0.0880  2.5615 -0.8106
 1017TIP3   OH224465   6.237   5.045  16.791  0.2176 -0.4815 -0.1203
 1017TIP3    H124466   6.160   4.991  16.770  0.1960 -1.4387  2.2504
 1017TIP3    H224467   6.230   5.060  16.885  3.4470 -1.3915  0.3228
 1018TIP3   OH224468   4.579   4.041  11.764 -0.8117  0.2554  0.3218
 1018TIP3    H124469   4.599   4.061  11.855 -0.8405 -1.1015  0.6447
 1018TIP3    H224470   4.663   4.010  11.728 -0.9919 -0.0060  0.1206
 1019TIP3   OH224471   6.050   5.786   3.353 -0.4047  0.4881 -0.0674
 1019TIP3    H124472   5.990   5.771   3.426  1.8629  1.4422  2.0595
 1019TIP3    H224473   6.090   5.700   3.337 -0.2817  0.4578  0.3885
 1020TIP3   OH224474   4.963   1.959   5.574  0.0155  0.1864 -0.1914
 1020TIP3    H124475   4.881   1.920   5.605 -0.5692 -1.5237 -3.5987
 1020TIP3    H224476   5.029   1.931   5.638 -1.8087  0.4396  1.8434
 1021TIP3   OH224477   0.589   4.663   0.881  0.4100  0.5555  0.0657
 1021TIP3    H124478   0.624   4.748   0.854 -0.5346  0.8776 -0.1566
 1021TIP3    H224479   0.563   4.675   0.972 -1.4278  1.0476 -0.5091
 1022TIP3   OH224480   5.299   6.354   2.404  0.5874  0.3717 -0.3030
 1022TIP3    H124481   5.356   6.313   2.339  0.4903  0.1100 -0.2200
 1022TIP3    H224482   5.358   6.373   2.478  0.3087 -1.0382  0.2867
 1023TIP3   OH224483   0.093   3.005   5.396 -0.0223  0.2190  0.1109
 1023TIP3    H124484   0.010   2.990   5.440 -0.5906  0.7352 -0.7758
 1023TIP3    H224485   0.072   3.064   5.324  1.1930  0.7112  0.1536
 1024TIP3   OH224486   5.197   1.994  11.642 -0.1538  0.0515  0.1311
 1024TIP3    H124487   5.281   2.040  11.645 -0.6331  0.9410  0.0941
 1024TIP3    H224488   5.137   2.056  11.601 -0.7061 -0.7860 -0.3516
 1025TIP3   OH224489   2.806   1.160   4.291 -0.3046 -0.2700 -0.3646
 1025TIP3    H124490   2.858   1.080   4.295  1.7479  1.0753  0.2234
 1025TIP3    H224491   2.724   1.137   4.334  0.8743 -1.6016  1.2335
 1026TIP3   OH224492   4.424   4.403   1.432 -0.7176 -0.4121  0.0619
 1026TIP3    H124493   4.469   4.484   1.408  0.2868 -0.1883  2.5971
 1026TIP3    H224494   4.349   4.398   1.372  0.1415  1.5251 -1.2005
 1027TIP3   OH224495   2.889   6.396   2.166 -0.6259  0.1085  0.1879
 1027TIP3    H124496   2.961   6.353   2.120 -0.5354 -0.4415  0.8407
 1027TIP3    H224497   2.917   6.399   2.257 -1.2153  0.3407  0.3632
 1028TIP3   OH224498   0.372   2.263   5.745 -0.6377 -0.8627 -0.2140
 1028TIP3    H124499   0.293   2.313   5.763 -0.2137  0.2153 -1.3021
 1028TIP3    H224500   0.409   2.304   5.667  2.9615  1.0220  2.3575
 1029TIP3   OH224501   5.211   4.120   2.647 -0.1518 -0.3132 -0.5807
 1029TIP3    H124502   5.124   4.092   2.674 -0.5714 -0.9619 -2.5309
 1029TIP3    H224503   5.208   4.120   2.551  1.4233  1.4353 -0.6778
 1030TIP3   OH224504   5.245   3.378  14.401 -0.6793 -0.4671 -0.0716
 1030TIP3    H124505   5.250   3.384  14.496 -0.0674 -0.8423 -0.0816
 1030TIP3    H224506   5.165   3.326  14.385 -0.1653 -1.3765  0.2678
 1031TIP3   OH224507   3.483   2.613   0.917 -0.4916  0.4035 -0.0837
 1031TIP3    H124508   3.563   2.665   0.907 -0.8592  0.8231 -0.8698
 1031TIP3    H224509   3.497   2.536   0.862 -0.3844  0.1853  0.2473
 1032TIP3   OH224510   2.909   5.194  16.962  0.0862  0.5492  0.2125
 1032TIP3    H124511   2.934   5.157  17.047  1.2849  0.0718 -0.3356
 1032TIP3    H224512   2.929   5.125  16.899 -1.2170  0.7295 -0.4320
 1033TIP3   OH224513   4.169   5.133  13.480  0.3202 -0.0159  0.0167
 1033TIP3    H124514   4.083   5.144  13.439 -0.2174  2.8625  1.7452
 1033TIP3    H224515   4.206   5.221  13.480  2.7851 -1.0250  0.3618
 1034TIP3   OH224516   0.127   5.721   5.583 -0.1950  0.4156  1.1704
 1034TIP3    H124517   0.212   5.699   5.545  0.1206  1.0714  1.4891
 1034TIP3    H224518   0.128   5.817   5.591 -0.4324  0.3195  2.4320
 1035TIP3   OH224519   6.377   4.044  13.495  0.2434 -0.6979  0.2442
 1035TIP3    H124520   6.424   3.969  13.533 -0.1656 -1.9786 -1.6713
 1035TIP3    H224521   6.314   4.070  13.563 -0.0027 -2.4796  0.7371
 1036TIP3   OH224522   0.163   2.139  16.042 -0.0631 -0.4616  0.1704
 1036TIP3    H124523   0.090   2.088  16.077 -0.8359 -0.3011 -1.1686
 1036TIP3    H224524   0.183   2.203  16.110  1.2636 -2.8618  2.1067
 1037TIP3   OH224525   6.632   1.069   2.582 -0.8753  0.6775 -0.6383
 1037TIP3    H124526   6.704   1.060   2.520  0.1264 -1.7778  0.8138
 1037TIP3    H224527   6.663   1.134   2.645 -1.2924  2.0700 -1.8520
 1038TIP3   OH224528   3.045   0.726   3.492 -0.0518 -0.0937  0.1815
 1038TIP3    H124529   2.954   0.752   3.477 -0.1999 -0.7288 -0.0245
 1038TIP3    H224530   3.085   0.726   3.405 -0.6664 -2.8386 -0.1565
 1039TIP3   OH224531   1.745   2.442  13.701 -0.5571  0.3825  0.3133
 1039TIP3    H124532   1.676   2.432  13.636 -0.4297  2.4308 -0.1665
 1039TIP3    H224533   1.746   2.535  13.721  0.6374  0.0480  1.9006
 1040TIP3   OH224534   1.306   1.123   3.479 -0.8320  0.2654 -0.1985
 1040TIP3    H124535   1.348   1.134   3.564 -2.1143 -0.2511  0.5096
 1040TIP3    H224536   1.258   1.205   3.466 -2.2507 -0.4361  0.5006
 1041TIP3   OH224537   3.992   3.305  11.535  0.1697 -0.0827  0.2175
 1041TIP3    H124538   4.071   3.332  11.488 -0.2070  1.2609  0.3199
 1041TIP3    H224539   3.972   3.218  11.500  1.8026 -0.5178  0.3444
 1042TIP3   OH224540   4.686   0.420  17.173 -0.0293  0.0443 -0.0436
 1042TIP3    H124541   4.725   0.508  17.172 -2.1595  1.0661  2.1196
 1042TIP3    H224542   4.701   0.388  17.262 -2.3518 -0.3147  0.2464
 1043TIP3   OH224543   1.452   5.531  10.469 -0.0248  0.4204 -0.3540
 1043TIP3    H124544   1.388   5.464  10.446 -0.5804  0.3822  1.2670
 1043TIP3    H224545   1.448   5.593  10.396 -0.8622 -0.3370 -0.9637
 1044TIP3   OH224546   1.290   3.261  12.438  0.1929 -0.2827 -0.3669
 1044TIP3    H124547   1.228   3.230  12.371  1.7862  0.4084 -2.1953
 1044TIP3    H224548   1.252   3.343  12.469 -0.3018 -0.3521 -0.7811
 1045TIP3   OH224549   3.545   5.300  16.911  0.1123  0.1523  0.1311
 1045TIP3    H124550   3.476   5.356  16.874 -0.8409 -1.1123 -0.0107
 1045TIP3    H224551   3.598   5.360  16.964 -0.8126  1.2214 -0.1333
 1046TIP3   OH224552   5.252   0.890   4.798 -0.5948 -0.1873 -0.0669
 1046TIP3    H124553   5.292   0.948   4.733  1.8705 -2.2680 -0.4595
 1046TIP3    H224554   5.197   0.831   4.747 -1.3502  0.3438  0.1163
 1047TIP3   OH224555   6.343   4.477  14.703 -0.0450  0.1472 -0.2231
 1047TIP3    H124556   6.306   4.561  14.731 -1.0448 -0.3720  0.0677
 1047TIP3    H224557   6.324   4.418  14.776  1.2853 -0.1653 -0.1197
 1048TIP3   OH224558   0.983   5.280  17.114  0.2583  0.3989  0.2906
 1048TIP3    H124559   0.947   5.364  17.141 -1.0095 -0.5806  1.7888
 1048TIP3    H224560   0.953   5.268  17.024 -0.5903  0.9979  0.4841
 1049TIP3   OH224561   2.391   5.598  15.543  0.1335  0.0220 -0.3351
 1049TIP3    H124562   2.436   5.535  15.487  0.6862  1.0140 -1.0144
 1049TIP3    H224563   2.340   5.652  15.483 -1.7584 -0.9039  0.4001
 1050TIP3   OH224564   4.012   1.695  12.528  0.2200  0.0720 -0.1382
 1050TIP3    H124565   3.975   1.606  12.529  0.9156 -0.2228  2.1194
 1050TIP3    H224566   3.986   1.733  12.611  0.8458  1.6144 -0.6325
 1051TIP3   OH224567   4.485   1.198  12.638 -0.3662  0.2819 -0.5431
 1051TIP3    H124568   4.448   1.139  12.572 -0.8447  1.4298 -1.3177
 1051TIP3    H224569   4.455   1.285  12.612 -1.0798  0.6847  1.5481
 1052TIP3   OH224570   0.882   3.611   0.830  0.2524  0.4178  0.1537
 1052TIP3    H124571   0.906   3.633   0.741  0.6815  1.6922  0.5752
 1052TIP3    H224572   0.900   3.690   0.881  0.0953 -0.3108  1.3831
 1053TIP3   OH224573   5.183   0.655  11.189 -0.5506  0.2568 -0.5021
 1053TIP3    H124574   5.266   0.608  11.185  1.4807  3.6081  0.1754
 1053TIP3    H224575   5.143   0.629  11.272  1.3270  0.9275  0.6427
 1054TIP3   OH224576   2.245   1.729  11.762  0.3114  0.5681 -0.0531
 1054TIP3    H124577   2.177   1.675  11.722  0.6571  0.4854 -0.5202
 1054TIP3    H224578   2.202   1.766  11.839 -0.2801  0.5513 -0.3678
 1055TIP3   OH224579   2.764   3.791  11.196  0.3165 -0.0229  0.2942
 1055TIP3    H124580   2.747   3.883  11.174  1.5061  0.5698  1.7391
 1055TIP3    H224581   2.713   3.741  11.132 -0.2354  1.6392 -0.5993
 1056TIP3   OH224582   5.723   4.021   2.503  0.9520  0.3336  0.1159
 1056TIP3    H124583   5.630   4.003   2.515  1.1487  0.2735  1.7241
 1056TIP3    H224584   5.731   4.115   2.521  1.1650  0.3789 -0.2206
 1057TIP3   OH224585   4.908   2.615   0.493 -0.3212 -0.1323  0.2771
 1057TIP3    H124586   4.907   2.600   0.587 -3.3447  0.3309  0.3879
 1057TIP3    H224587   4.916   2.710   0.483 -2.1207  0.0244  0.1540
 1058TIP3   OH224588   2.728   4.724  12.205 -0.1789 -0.1996  0.1663
 1058TIP3    H124589   2.821   4.749  12.211  0.2196 -1.5231 -0.4249
 1058TIP3    H224590   2.712   4.675  12.286 -0.3746  0.0689  0.2893
 1059TIP3   OH224591   1.854   3.260  17.036  0.6763 -0.5210 -0.2044
 1059TIP3    H124592   1.835   3.347  17.071  2.6676  0.2424 -0.9613
 1059TIP3    H224593   1.902   3.215  17.105  0.7013 -0.5971 -0.2701
 1060TIP3   OH224594   3.076   6.455  10.498 -0.4823  0.2079  0.1212
 1060TIP3    H124595   2.994   6.438  10.452  0.4429  1.2637 -1.9668
 1060TIP3    H224596   3.086   6.550  10.496  0.0646  0.2070  1.6934
 1061TIP3   OH224597   5.896   3.575  16.576  0.1530 -0.6610  0.5197
 1061TIP3    H124598   5.802   3.563  16.566  0.1865 -0.6777  0.2102
 1061TIP3    H224599   5.906   3.622  16.659 -0.1482 -0.3458  0.3800
 1062TIP3   OH224600   0.029   3.417   4.897  0.3283 -0.3278  0.0306
 1062TIP3    H124601  -0.066   3.429   4.894  0.3876 -0.0111 -0.6562
 1062TIP3    H224602   0.061   3.491   4.950  0.3119  0.2941 -0.8218
 1063TIP3   OH224603   0.070   2.747  11.381  0.5017  0.3119  0.4567
 1063TIP3    H124604   0.165   2.752  11.369  0.3825 -0.3001 -0.8749
 1063TIP3    H224605   0.058   2.720  11.472  1.6656 -1.3745  0.1379
 1064TIP3   OH224606   1.441   0.224  16.455 -0.3516 -0.1091 -0.1239
 1064TIP3    H124607   1.359   0.272  16.467  0.3781  1.6076 -1.7470
 1064TIP3    H224608   1.450   0.216  16.360  2.0726  1.0064 -0.0221
 1065TIP3   OH224609   0.193   3.401   3.276 -0.5530  0.4826 -0.1537
 1065TIP3    H124610   0.118   3.444   3.319 -0.4622 -0.1376  0.6405
 1065TIP3    H224611   0.259   3.470   3.271  0.3434 -0.0598  3.0068
 1066TIP3   OH224612   5.355   6.170  11.650  1.1784  0.1111  0.5030
 1066TIP3    H124613   5.280   6.127  11.608  2.6916 -0.7989 -1.3447
 1066TIP3    H224614   5.331   6.263  11.651  0.5808  0.0018 -1.3106
 1067TIP3   OH224615   2.864   3.764  16.570  0.1273  0.1260 -0.2660
 1067TIP3    H124616   2.937   3.762  16.632  0.0505  1.0593 -0.1411
 1067TIP3    H224617   2.818   3.845  16.590  1.3335  1.5443 -2.9521
 1068TIP3   OH224618   2.576   2.170   2.710 -0.1378 -0.0465 -0.0508
 1068TIP3    H124619   2.536   2.207   2.631  0.7671  0.4042 -0.2943
 1068TIP3    H224620   2.635   2.102   2.677 -2.4350 -2.3482  0.4312
 1069TIP3   OH224621   3.754   3.120   1.079 -0.3322 -0.0596 -0.5503
 1069TIP3    H124622   3.736   3.031   1.049 -1.9404  0.0141  0.1354
 1069TIP3    H224623   3.739   3.175   1.002  2.7647 -0.5508 -1.5689
 1070TIP3   OH224624   2.760   3.167  12.642 -0.5248 -0.6343 -0.7852
 1070TIP3    H124625   2.841   3.219  12.646 -0.2667 -1.0293 -0.7756
 1070TIP3    H224626   2.787   3.086  12.598 -1.4416  0.2022 -2.9456
 1071TIP3   OH224627   2.325   6.722   2.734 -0.3159  0.0944 -0.0144
 1071TIP3    H124628   2.318   6.800   2.678 -0.8636 -0.4740 -0.7574
 1071TIP3    H224629   2.359   6.654   2.676  1.6788  0.1703  1.0289
 1072TIP3   OH224630   1.455   6.052  14.617  0.4934 -0.4164  0.2878
 1072TIP3    H124631   1.364   6.069  14.594  0.5615  0.3421  0.5466
 1072TIP3    H224632   1.502   6.055  14.534  0.1581 -1.6731  0.0489
 1073TIP3   OH224633   5.162   5.328  12.777  0.0338 -0.0105 -0.1650
 1073TIP3    H124634   5.096   5.272  12.736  0.1923  0.5426 -1.1842
 1073TIP3    H224635   5.135   5.417  12.754  1.3779  0.2001 -0.9639
 1074TIP3   OH224636   2.624   5.841  16.648  0.7680  0.3927  0.4185
 1074TIP3    H124637   2.567   5.892  16.705 -0.3000  1.0636 -1.1825
 1074TIP3    H224638   2.604   5.750  16.670  2.5561  0.6176  3.1646
 1075TIP3   OH224639   3.793   6.194   6.267  0.2868 -0.2311  0.3760
 1075TIP3    H124640   3.728   6.133   6.232 -1.5128  0.7804  1.8846
 1075TIP3    H224641   3.741   6.263   6.308  2.3168  1.2191  0.5539
 1076TIP3   OH224642   5.353   5.182   2.985 -0.2103 -0.2366  0.6928
 1076TIP3    H124643   5.272   5.212   2.945 -0.3163 -1.3509  0.0445
 1076TIP3    H224644   5.331   5.098   3.025  0.0634  0.5492  2.5434
 1077TIP3   OH224645   5.279   5.299  16.481  0.1932  0.0805  0.0017
 1077TIP3    H124646   5.221   5.238  16.526 -0.2518  0.4639 -0.0499
 1077TIP3    H224647   5.360   5.299  16.532 -0.3756  0.6667  0.9174
 1078TIP3   OH224648   0.055   2.889   0.898  0.2917  0.6041  0.1664
 1078TIP3    H124649   0.051   2.896   0.993 -1.5561  0.3251  0.1372
 1078TIP3    H224650   0.041   2.796   0.880  1.1381  0.5747 -0.3570
 1079TIP3   OH224651   3.775   2.866  14.108 -0.2261 -0.8572  0.1581
 1079TIP3    H124652   3.705   2.930  14.118  0.4083 -0.2758  0.9366
 1079TIP3    H224653   3.786   2.828  14.195 -1.4491 -2.9359 -0.5649
 1080TIP3   OH224654   5.484   3.247   4.840 -0.4338  0.0976 -0.4769
 1080TIP3    H124655   5.529   3.173   4.799 -0.6086 -0.0766 -0.3535
 1080TIP3    H224656   5.525   3.255   4.926 -1.4741 -0.8268  0.1038
 1081TIP3   OH224657   4.422   0.804   3.089 -0.1762 -0.0839  0.0895
 1081TIP3    H124658   4.454   0.894   3.085 -0.0974 -0.1187 -0.0649
 1081TIP3    H224659   4.460   0.762   3.012 -0.1661 -0.2637  0.1925
 1082TIP3   OH224660   4.770   5.487  10.955 -0.1101 -0.3037  1.4140
 1082TIP3    H124661   4.675   5.478  10.944  0.1195 -2.2276  0.8152
 1082TIP3    H224662   4.807   5.447  10.877  1.2364 -0.3838  2.0756
 1083TIP3   OH224663   0.427   3.981  16.200 -0.4741  0.1314 -0.3400
 1083TIP3    H124664   0.376   3.977  16.119 -0.5106  0.0764 -0.3130
 1083TIP3    H224665   0.464   4.069  16.200 -1.8567  0.7194  0.4308
 1084TIP3   OH224666   0.037   2.314   0.079  0.0949 -0.8694  0.0561
 1084TIP3    H124667   0.026   2.253   0.006  0.7856  0.6376 -1.3573
 1084TIP3    H224668   0.130   2.312   0.099  0.3641  0.6533 -0.8922
 1085TIP3   OH224669   3.617   1.890   1.968  0.2113  0.1215  0.0751
 1085TIP3    H124670   3.552   1.862   1.904  2.0750 -0.4135 -1.6304
 1085TIP3    H224671   3.649   1.974   1.936 -1.1958  1.4784  2.0979
 1086TIP3   OH224672   5.057   2.304  11.049  0.6369  0.2400 -0.2489
 1086TIP3    H124673   5.003   2.383  11.041 -0.0168 -0.2979 -1.1914
 1086TIP3    H224674   5.061   2.287  11.143 -1.4470 -0.1359 -0.2096
 1087TIP3   OH224675   4.043   6.719  15.140  0.1184  0.4305 -0.1615
 1087TIP3    H124676   4.093   6.782  15.190  1.4186 -0.3341 -0.4523
 1087TIP3    H224677   4.064   6.739  15.048  1.4741 -1.1211 -0.2264
 1088TIP3   OH224678   1.619   4.210   4.399  0.1695 -0.7880  0.3512
 1088TIP3    H124679   1.560   4.248   4.464 -0.1582  0.2112 -0.5257
 1088TIP3    H224680   1.675   4.282   4.371 -0.7106 -0.8341 -1.6159
 1089TIP3   OH224681   1.521   6.289   0.429 -0.3500  0.1358 -0.2006
 1089TIP3    H124682   1.510   6.293   0.334 -1.3470 -1.7165 -0.1792
 1089TIP3    H224683   1.560   6.203   0.445 -2.0868 -0.3896  1.2393
 1090TIP3   OH224684   5.236   2.099   0.380  0.0895 -0.6242 -0.3150
 1090TIP3    H124685   5.184   2.056   0.448  0.0513 -0.7518 -0.4259
 1090TIP3    H224686   5.307   2.037   0.361  0.4979 -0.2896  0.1048
 1091TIP3   OH224687   0.879   2.168   0.767 -0.2061  0.1591  0.2874
 1091TIP3    H124688   0.807   2.231   0.761 -0.6876 -0.4223 -0.0811
 1091TIP3    H224689   0.957   2.222   0.774 -0.5776  0.8056 -0.4379
 1092TIP3   OH224690   5.836   4.718  13.175  0.0028 -0.0569 -0.7853
 1092TIP3    H124691   5.896   4.781  13.135  1.1027 -0.5936 -0.0273
 1092TIP3    H224692   5.818   4.654  13.106 -0.3217  0.5438 -1.2541
 1093TIP3   OH224693   5.745   2.831  16.091  0.4591  0.1809 -0.2003
 1093TIP3    H124694   5.836   2.835  16.061  0.1182  0.0568 -1.2864
 1093TIP3    H224695   5.712   2.921  16.081  0.5701  0.3024  0.5317
 1094TIP3   OH224696   6.409   0.739   3.060  0.1156 -0.0644  0.3875
 1094TIP3    H124697   6.351   0.707   2.991 -0.3130 -0.8019  1.0795
 1094TIP3    H224698   6.365   0.817   3.095 -0.1096 -0.2172  0.4419
 1095TIP3   OH224699   4.962   5.327  11.384 -0.5591 -0.6244  0.2093
 1095TIP3    H124700   4.875   5.287  11.384 -1.5319  1.3989  0.7092
 1095TIP3    H224701   4.950   5.409  11.433  0.4559  2.1925 -4.0245
 1096TIP3   OH224702   6.282   1.018  13.746  0.0028 -0.1662 -0.2713
 1096TIP3    H124703   6.307   1.109  13.762 -0.9843  0.5173 -2.3712
 1096TIP3    H224704   6.208   1.002  13.805  1.7352 -0.4476  1.9145
 1097TIP3   OH224705   6.030   1.941  15.438 -0.0171 -0.1573 -0.3671
 1097TIP3    H124706   6.125   1.949  15.428  0.1718  2.6500  2.7751
 1097TIP3    H224707   6.018   1.879  15.510 -0.5864 -0.4971 -0.7472
 1098TIP3   OH224708   1.599   3.694  14.708  0.1953  0.2222  0.0281
 1098TIP3    H124709   1.590   3.698  14.804  2.3036  0.0608  0.2638
 1098TIP3    H224710   1.664   3.762  14.688  0.5354 -0.4452 -1.1676
 1099TIP3   OH224711   2.131   3.237   1.334  0.1145  0.0224 -0.1538
 1099TIP3    H124712   2.150   3.328   1.354  1.3277 -0.2087 -0.2246
 1099TIP3    H224713   2.217   3.196   1.321 -0.4575 -0.7763 -1.6520
 1100TIP3   OH224714   6.223   6.701   3.812 -0.2928  0.0955 -0.3329
 1100TIP3    H124715   6.168   6.703   3.891  0.6191  2.4060  0.2564
 1100TIP3    H224716   6.287   6.632   3.829 -2.6382 -2.3134 -0.8316
 1101TIP3   OH224717   4.910   4.313   0.062 -0.5030 -0.4162 -0.2797
 1101TIP3    H124718   4.860   4.338  -0.016 -1.1549 -3.3436 -0.8488
 1101TIP3    H224719   4.974   4.383   0.072 -2.0901  1.3390 -1.9222
 1102TIP3   OH224720   1.227   6.032   2.174  0.5994  0.3944  0.4438
 1102TIP3    H124721   1.314   5.999   2.198  0.6636 -0.0134 -0.3519
 1102TIP3    H224722   1.187   5.962   2.123  0.1490  0.9405  0.0314
 1103TIP3   OH224723   2.115   5.398   6.029 -0.3263 -0.3197  0.1544
 1103TIP3    H124724   2.205   5.428   6.044 -0.1523 -0.4396 -0.5937
 1103TIP3    H224725   2.123   5.303   6.021 -0.3760 -0.2454 -0.8475
 1104TIP3   OH224726   3.569   3.566  15.673  0.2918 -0.0899  0.1291
 1104TIP3    H124727   3.540   3.537  15.586  0.1101 -1.8521  0.7612
 1104TIP3    H224728   3.567   3.661  15.668  3.0036 -0.1116 -2.7247
 1105TIP3   OH224729   4.937   4.480   1.445  0.4122  0.2136 -0.1337
 1105TIP3    H124730   4.972   4.511   1.361  2.0492  2.1845  1.2007
 1105TIP3    H224731   4.871   4.545   1.469  2.4172  1.6458  1.7211
 1106TIP3   OH224732   2.308   1.754   2.497  0.5571  0.0727 -0.6978
 1106TIP3    H124733   2.249   1.785   2.428 -0.7116  1.4125  0.9469
 1106TIP3    H224734   2.335   1.833   2.543  0.8545 -0.8656  0.7718
 1107TIP3   OH224735   4.385   5.825  17.016 -0.4083 -0.5104 -0.3996
 1107TIP3    H124736   4.341   5.830  16.931 -1.2106  3.1294  0.1869
 1107TIP3    H224737   4.466   5.875  17.004 -0.9361  0.7462  1.2162
 1108TIP3   OH224738   4.266   4.906   3.074 -0.4905 -0.1099  0.0327
 1108TIP3    H124739   4.280   4.926   2.982 -3.2755  0.4332 -0.3137
 1108TIP3    H224740   4.235   4.815   3.075  0.0070 -0.2853  0.5048
 1109TIP3   OH224741   4.520   0.634  16.004 -0.4600  0.2379 -0.3938
 1109TIP3    H124742   4.550   0.663  16.090 -0.7163 -0.1396 -0.1729
 1109TIP3    H224743   4.525   0.712  15.948  1.1687  0.1298 -0.4325
 1110TIP3   OH224744   0.614   2.637   2.548  0.2704 -0.3565  0.0055
 1110TIP3    H124745   0.674   2.653   2.621  0.7133 -0.5046 -0.3289
 1110TIP3    H224746   0.550   2.708   2.555  1.1687  0.5041 -0.3565
 1111TIP3   OH224747   1.863   2.346   0.889 -0.4484  0.2448 -0.2175
 1111TIP3    H124748   1.863   2.332   0.984  0.0606 -1.7527 -0.4920
 1111TIP3    H224749   1.943   2.395   0.872 -0.7398  0.9644  0.4117
 1112TIP3   OH224750   6.099   4.214   2.922 -0.2102  0.0208 -0.5447
 1112TIP3    H124751   6.052   4.213   2.838 -1.4434  0.0304  0.1351
 1112TIP3    H224752   6.031   4.199   2.988  0.2702  2.9787  0.6787
 1113TIP3   OH224753   1.678   1.328  14.531  0.2703 -0.0018  0.5976
 1113TIP3    H124754   1.679   1.234  14.513  0.6348  0.0667  0.2620
 1113TIP3    H224755   1.756   1.344  14.584  0.7485  0.2735 -0.1768
 1114TIP3   OH224756   0.600   2.355   4.975  0.1836  0.8499 -0.2840
 1114TIP3    H124757   0.629   2.266   4.996 -0.8274  0.5025 -0.3108
 1114TIP3    H224758   0.528   2.372   5.036  0.1461  1.5223 -0.5088
 1115TIP3   OH224759   0.983   4.479  16.964  0.1946  0.1478 -0.7123
 1115TIP3    H124760   0.939   4.562  16.979  0.1235 -0.1436  0.7604
 1115TIP3    H224761   0.999   4.444  17.052  2.0105 -0.4541 -1.2709
 1116TIP3   OH224762   4.169   1.896   1.583 -0.3297 -0.3703 -0.1950
 1116TIP3    H124763   4.235   1.924   1.519  0.0663 -1.5185 -0.3081
 1116TIP3    H224764   4.162   1.969   1.643  2.0058 -0.7087  0.5679
 1117TIP3   OH224765   2.797   1.576  15.850  0.9386  0.2743  0.1912
 1117TIP3    H124766   2.749   1.654  15.825  0.1650 -0.0945  0.5085
 1117TIP3    H224767   2.778   1.513  15.780  0.3293 -0.1294  0.7257
 1118TIP3   OH224768   1.022   5.437  13.638 -0.2914  0.2347  0.3696
 1118TIP3    H124769   0.948   5.494  13.659 -0.1815  0.7513 -0.6132
 1118TIP3    H224770   1.013   5.363  13.697 -0.7855  0.9820  1.2372
 1119TIP3   OH224771   1.754   0.008   1.868  0.3759 -0.3474 -0.5834
 1119TIP3    H124772   1.775  -0.029   1.954 -0.8851 -3.2032 -1.4370
 1119TIP3    H224773   1.676   0.061   1.883 -0.7827 -2.1239 -0.2347
 1120TIP3   OH224774   3.115   3.436   6.284 -0.0967 -0.5621  0.2170
 1120TIP3    H124775   3.061   3.461   6.360  1.6396 -2.9597  2.2975
 1120TIP3    H224776   3.071   3.359   6.248 -1.4181  1.0898 -1.8295
 1121TIP3   OH224777   3.995   3.132  15.090 -0.1143  0.2268 -0.7765
 1121TIP3    H124778   4.020   3.066  15.155  0.6891 -0.2604 -1.5738
 1121TIP3    H224779   4.078   3.157  15.049 -0.3771  1.9227 -0.3045
 1122TIP3   OH224780   1.303   6.212  12.824  0.2314 -0.3598 -0.0922
 1122TIP3    H124781   1.254   6.132  12.841  0.3853  0.0921  2.6910
 1122TIP3    H224782   1.334   6.241  12.910  1.5332  1.8303 -1.2252
 1123TIP3   OH224783   3.266   3.004  12.152 -0.4528  0.3558  0.5965
 1123TIP3    H124784   3.254   3.059  12.074 -1.5523  0.0264  0.5293
 1123TIP3    H224785   3.235   3.058  12.225 -1.3999 -0.1039  0.5459
 1124TIP3   OH224786   6.097   3.778  16.999 -0.2652 -0.7479 -0.3665
 1124TIP3    H124787   6.110   3.717  17.072 -1.8167 -0.1231  0.4525
 1124TIP3    H224788   6.159   3.849  17.015 -1.9206  0.3383  1.4162
 1125TIP3   OH224789   0.206   2.138   4.055  0.1942  0.1318 -0.2993
 1125TIP3    H124790   0.277   2.160   4.116 -1.7424  1.5419  1.5090
 1125TIP3    H224791   0.146   2.084   4.107 -0.4879 -0.3579 -1.5783
 1126TIP3   OH224792   5.032   3.221  10.930 -0.1165  0.5187  0.5327
 1126TIP3    H124793   4.989   3.307  10.926 -0.0989  0.4965 -0.3519
 1126TIP3    H224794   4.975   3.164  10.878  0.7861  0.3989 -0.3330
 1127TIP3   OH224795   1.245   2.948   1.109  0.3950 -0.0875 -0.4499
 1127TIP3    H124796   1.156   2.945   1.074  0.7955  0.6136 -1.5501
 1127TIP3    H224797   1.271   2.856   1.116 -0.0953 -0.2727 -0.9541
 1128TIP3   OH224798   5.797   0.872  12.235 -0.3456  0.3786  0.3804
 1128TIP3    H124799   5.889   0.898  12.247 -0.4335  0.3076  1.3077
 1128TIP3    H224800   5.794   0.833  12.148  0.5348  0.2650  0.3962
 1129TIP3   OH224801   4.974   4.496  13.882 -0.3600 -0.3919 -0.4094
 1129TIP3    H124802   4.954   4.408  13.848 -0.2803 -0.8892  0.8024
 1129TIP3    H224803   4.890   4.542  13.880 -0.2969 -0.3063 -1.5644
 1130TIP3   OH224804   1.882   5.936  11.090  0.0460  0.6077 -0.1673
 1130TIP3    H124805   1.974   5.914  11.075  0.6998  2.6733  0.6848
 1130TIP3    H224806   1.870   5.924  11.184 -0.7897 -0.4174 -0.3902
 1131TIP3   OH224807   5.745   0.205   4.126 -0.3253 -0.1949  0.2783
 1131TIP3    H124808   5.805   0.158   4.183  0.9705  1.8363  0.6224
 1131TIP3    H224809   5.659   0.170   4.148  0.4224 -1.1609  1.7497
 1132TIP3   OH224810   1.123   5.438  15.735 -0.1781 -0.0414  0.1509
 1132TIP3    H124811   1.139   5.345  15.743 -1.3467 -0.1166  1.7190
 1132TIP3    H224812   1.129   5.455  15.641 -0.6906 -1.8308 -0.2236
 1133TIP3   OH224813   0.767   2.680  16.434 -0.3686  0.0155  0.1249
 1133TIP3    H124814   0.730   2.740  16.498  0.5964 -0.9137  1.5934
 1133TIP3    H224815   0.767   2.729  16.351  0.4504  2.0340  1.2899
 1134TIP3   OH224816   1.864   5.705  16.727 -0.0519 -0.2571 -0.2311
 1134TIP3    H124817   1.890   5.721  16.818  0.7208 -0.1218 -0.4694
 1134TIP3    H224818   1.776   5.669  16.733  0.2711 -0.9250  0.6258
 1135TIP3   OH224819   4.147   0.995  16.475 -0.2440 -0.2476  0.2518
 1135TIP3    H124820   4.175   0.968  16.387  0.7270  0.7045  0.2586
 1135TIP3    H224821   4.126   1.087  16.465 -1.0872 -0.3827  0.8019
 1136TIP3   OH224822   4.793   0.352  13.361 -0.2892 -0.2454  0.7758
 1136TIP3    H124823   4.871   0.331  13.309 -0.2341 -0.8576  1.1077
 1136TIP3    H224824   4.813   0.436  13.403  1.5056 -1.9814  3.4893
 1137TIP3   OH224825   4.762   4.337   3.245 -0.3600 -0.1736 -0.6599
 1137TIP3    H124826   4.812   4.305   3.170  0.0534 -1.7752  0.2745
 1137TIP3    H224827   4.818   4.402   3.286 -0.4391  0.4482 -1.5299
 1138TIP3   OH224828   4.442   4.488  15.938  0.0189  0.1762 -0.5617
 1138TIP3    H124829   4.397   4.450  15.862 -1.9452  0.9480  0.1760
 1138TIP3    H224830   4.445   4.582  15.919 -2.0390  0.6011  1.0648
 1139TIP3   OH224831   3.024   5.703   5.465  0.0897 -0.2926 -0.1772
 1139TIP3    H124832   3.004   5.788   5.426 -0.4226 -0.1546  0.3752
 1139TIP3    H224833   2.999   5.640   5.398 -2.8086 -0.1458  0.6972
 1140TIP3   OH224834   2.023   2.922   5.724  0.0753 -0.4766 -0.3023
 1140TIP3    H124835   2.071   3.000   5.697 -1.0336  0.1978 -0.3463
 1140TIP3    H224836   2.026   2.923   5.819 -1.7296  0.7672 -0.2420
 1141TIP3   OH224837   1.436   4.686  12.715  0.1706  0.3487 -0.0106
 1141TIP3    H124838   1.437   4.747  12.642  1.7581  1.4810  0.9053
 1141TIP3    H224839   1.429   4.742  12.793 -0.1369 -0.7375  0.7498
 1142TIP3   OH224840   4.909   3.076   3.017 -0.0943 -0.3960 -0.0451
 1142TIP3    H124841   4.941   2.993   3.054  0.0564 -0.4591 -0.3148
 1142TIP3    H224842   4.863   3.118   3.090  1.6871  0.2743  0.7285
 1143TIP3   OH224843   6.671   4.610   1.087  0.3961 -0.3155 -0.6125
 1143TIP3    H124844   6.766   4.623   1.097  0.1579  0.3011  1.0486
 1143TIP3    H224845   6.634   4.698   1.098 -0.5554 -0.9229  1.4137
 1144TIP3   OH224846   3.113   6.263   2.081 -0.2762  0.3228  0.1665
 1144TIP3    H124847   3.207   6.259   2.065 -0.2666  0.4993  0.1718
 1144TIP3    H224848   3.076   6.198   2.022 -0.1372  0.1426  0.2772
 1145TIP3   OH224849   2.250   2.229   1.187 -0.0271 -0.3266  0.1598
 1145TIP3    H124850   2.189   2.220   1.260 -0.9584 -1.8931 -0.7804
 1145TIP3    H224851   2.328   2.182   1.215  1.0272  2.1933  1.6128
 1146TIP3   OH224852   6.332   6.101  16.989  0.0724 -0.5843  0.0682
 1146TIP3    H124853   6.278   6.165  16.942  1.3189  1.1850  0.9851
 1146TIP3    H224854   6.282   6.019  16.984 -0.9176  0.1179 -2.2979
 1147TIP3   OH224855   6.295   3.708  15.935 -0.0417 -0.3149  0.0188
 1147TIP3    H124856   6.248   3.636  15.976 -1.4866  0.6163  0.0315
 1147TIP3    H224857   6.387   3.681  15.937 -0.6463 -2.5285 -0.7502
 1148TIP3   OH224858   4.712   4.779  12.225  0.1695 -0.2351 -0.0446
 1148TIP3    H124859   4.731   4.853  12.168  0.5791 -0.0987  0.2682
 1148TIP3    H224860   4.772   4.789  12.299 -0.9971  0.1131  0.8782
 1149TIP3   OH224861   3.505   5.900  14.726  0.0461 -0.0012  0.6988
 1149TIP3    H124862   3.581   5.957  14.714 -0.4538  0.7580  1.1710
 1149TIP3    H224863   3.432   5.948  14.688 -0.4359 -0.1800  1.3831
 1150TIP3   OH224864   2.162   1.426  13.049 -0.0739 -0.0417 -0.6064
 1150TIP3    H124865   2.147   1.351  13.107 -0.9951  1.5172  1.2374
 1150TIP3    H224866   2.256   1.424  13.032  0.5738  0.5609  2.5647
 1151TIP3   OH224867   3.566   3.070  14.011 -0.3510 -0.1716  0.0868
 1151TIP3    H124868   3.478   3.056  13.975  0.5855 -1.3672 -1.8198
 1151TIP3    H224869   3.551   3.090  14.103 -2.7576  1.8767 -0.6817
 1152TIP3   OH224870   3.039   4.040   1.425  0.7992 -0.1369  0.3026
 1152TIP3    H124871   2.997   4.106   1.370  0.0465  0.0912  1.1390
 1152TIP3    H224872   3.079   4.091   1.496  0.6827 -0.5295  0.6484
 1153TIP3   OH224873   0.875   0.296  15.396  0.3264  0.2354 -0.5197
 1153TIP3    H124874   0.833   0.367  15.346 -2.1987 -1.0941 -0.3768
 1153TIP3    H224875   0.855   0.217  15.346  1.1224 -0.6481  0.5470
 1154TIP3   OH224876   2.563   1.927  11.307 -0.2186  0.1353  0.7376
 1154TIP3    H124877   2.574   1.957  11.398  2.4248  1.0103  0.1774
 1154TIP3    H224878   2.498   1.987  11.270 -1.4347 -0.3164  2.0571
 1155TIP3   OH224879   0.577   4.150  12.970  0.4898 -0.7475  0.0586
 1155TIP3    H124880   0.561   4.187  12.883 -0.8468  0.4650  0.7866
 1155TIP3    H224881   0.574   4.056  12.957 -0.1489 -0.5752 -1.1389
 1156TIP3   OH224882   1.601   2.413   5.475 -0.4557  0.4381 -0.0616
 1156TIP3    H124883   1.567   2.324   5.462 -0.1351  0.2501  0.3667
 1156TIP3    H224884   1.558   2.444   5.555  1.4648 -0.3582  1.3298
 1157TIP3   OH224885   4.820   2.278   0.315  0.1650 -0.2176 -0.2469
 1157TIP3    H124886   4.908   2.278   0.353 -0.4259 -1.5037  1.1509
 1157TIP3    H224887   4.765   2.319   0.381 -0.5957 -1.0120 -0.3751
 1158TIP3   OH224888   1.234   0.958  10.954  0.4054 -0.2649 -0.9996
 1158TIP3    H124889   1.267   0.935  11.041  0.3441 -1.5055 -1.2929
 1158TIP3    H224890   1.313   0.966  10.900  0.4254  0.2153 -0.9027
 1159TIP3   OH224891   4.069   4.358   5.147  0.1044  0.3994  0.6643
 1159TIP3    H124892   4.048   4.302   5.072  1.4834  3.9412 -2.5695
 1159TIP3    H224893   4.153   4.324   5.179  0.0346 -0.4982 -0.0770
 1160TIP3   OH224894   0.098   1.576   1.685 -0.0325 -0.2889 -0.0898
 1160TIP3    H124895   0.102   1.652   1.742  1.4313 -1.4541  1.4308
 1160TIP3    H224896   0.139   1.506   1.736 -0.8847 -1.9601 -1.6484
 1161TIP3   OH224897   1.252   1.529   5.891 -0.2120  0.6405  0.7702
 1161TIP3    H124898   1.254   1.601   5.954  2.2499  1.8565 -0.5901
 1161TIP3    H224899   1.244   1.572   5.806  0.6604 -0.7001 -0.0143
 1162TIP3   OH224900   2.371   6.342  12.117  0.4697  0.2245 -0.0707
 1162TIP3    H124901   2.355   6.402  12.190  1.5066 -1.3218  1.4738
 1162TIP3    H224902   2.287   6.300  12.102  0.7617 -1.0401  1.7187
 1163TIP3   OH224903   3.339   4.014   0.326 -0.1749 -0.0987 -0.3482
 1163TIP3    H124904   3.329   3.938   0.383  0.8982  0.1626  0.2053
 1163TIP3    H224905   3.271   4.004   0.260 -0.8857 -0.8522  0.4860
 1164TIP3   OH224906   0.816   4.475  15.098  0.4681 -0.2968 -0.1284
 1164TIP3    H124907   0.794   4.565  15.076 -1.0140 -0.6196 -0.0411
 1164TIP3    H224908   0.897   4.481  15.148  1.0061  0.8819 -1.1224
 1165TIP3   OH224909   6.466   0.054   2.863  0.7312  0.5983  0.8701
 1165TIP3    H124910   6.383   0.066   2.817  1.8385 -0.5156 -1.4985
 1165TIP3    H224911   6.441   0.046   2.955 -1.7311  0.7476  0.2568
 1166TIP3   OH224912   4.642   1.076  11.410  0.0342  0.5991 -0.1308
 1166TIP3    H124913   4.675   0.989  11.434  1.2276  0.6274 -1.6049
 1166TIP3    H224914   4.616   1.068  11.319  1.1842  2.0540 -0.6200
 1167TIP3   OH224915   0.886   5.373   4.400  0.0049  0.6224  0.6090
 1167TIP3    H124916   0.810   5.383   4.458  0.0198  0.5826  0.6358
 1167TIP3    H224917   0.900   5.460   4.364 -1.2154  0.2370 -0.8587
 1168TIP3   OH224918   3.829   1.738  10.941 -0.7741 -0.6170 -0.1118
 1168TIP3    H124919   3.903   1.700  10.894 -1.3997 -1.4830 -0.4012
 1168TIP3    H224920   3.785   1.793  10.876  0.7509  1.5084  0.5925
 1169TIP3   OH224921   4.441   2.258   4.008  0.3189 -0.3676 -0.1728
 1169TIP3    H124922   4.350   2.246   3.981  0.2505 -0.5018  0.1058
 1169TIP3    H224923   4.451   2.353   4.019  1.1596 -0.0380 -3.4071
 1170TIP3   OH224924   5.140   5.293   0.752 -0.3526 -0.1058  0.6244
 1170TIP3    H124925   5.145   5.203   0.784  1.1122  0.5831  2.4394
 1170TIP3    H224926   5.222   5.306   0.704 -0.6369  0.2146  0.2246
 1171TIP3   OH224927   5.485   0.145  11.550 -0.2800 -0.1148 -0.1138
 1171TIP3    H124928   5.454   0.055  11.534  2.3355 -0.9751 -0.6369
 1171TIP3    H224929   5.496   0.150  11.645 -0.9990 -0.1570 -0.0281
 1172TIP3   OH224930   6.223   5.499  13.104 -0.3952 -0.0735  0.5274
 1172TIP3    H124931   6.260   5.545  13.029 -0.4630 -1.4983 -0.4055
 1172TIP3    H224932   6.210   5.409  13.073  0.1953 -0.8487  2.4439
 1173TIP3   OH224933   3.497   3.480  12.187  0.3511  0.0432  0.1280
 1173TIP3    H124934   3.557   3.412  12.157  1.6182  0.4778  1.5811
 1173TIP3    H224935   3.498   3.472  12.283  0.6084  2.1390  0.3245
 1174TIP3   OH224936   3.448   5.415  11.939 -0.1768  0.0834 -0.1850
 1174TIP3    H124937   3.451   5.333  11.890  2.6340 -0.9058  1.5580
 1174TIP3    H224938   3.534   5.455  11.926 -0.8049  1.7726  0.6414
 1175TIP3   OH224939   0.812   4.197  13.784  0.6357  0.4653  0.4253
 1175TIP3    H124940   0.876   4.194  13.855  2.2234  3.4067 -0.8009
 1175TIP3    H224941   0.849   4.141  13.715  0.0306 -0.8317  1.1325
 1176TIP3   OH224942   2.843   0.663   5.313  0.4802 -0.2228  0.3594
 1176TIP3    H124943   2.781   0.649   5.385  0.1396  0.7489  0.2556
 1176TIP3    H224944   2.835   0.584   5.260  0.3818 -0.7377  1.1306
 1177TIP3   OH224945   0.714   1.323   1.647 -0.1082 -0.0424 -0.6168
 1177TIP3    H124946   0.709   1.369   1.564  0.0682  0.0083 -0.5984
 1177TIP3    H224947   0.663   1.378   1.708 -1.0208 -0.5594 -0.9112
 1178TIP3   OH224948   5.577   3.932   2.210  0.2852 -0.5037  0.1843
 1178TIP3    H124949   5.665   3.935   2.248 -0.0469  1.1696  0.8713
 1178TIP3    H224950   5.556   4.023   2.191 -0.5158 -1.0989 -1.8409
 1179TIP3   OH224951   1.824   1.430  13.436 -0.2741  0.1099  0.8169
 1179TIP3    H124952   1.857   1.459  13.522  2.0826 -0.0028 -0.0030
 1179TIP3    H224953   1.824   1.510  13.383  0.4930 -0.2368  0.2803
 1180TIP3   OH224954   4.687   1.729   1.905  0.2594 -0.1709  0.1949
 1180TIP3    H124955   4.631   1.655   1.930 -1.1702  0.9954  0.5528
 1180TIP3    H224956   4.741   1.745   1.983 -1.2353  0.7689  1.0796
 1181TIP3   OH224957   5.486   0.244   0.091  0.3090  0.7579  0.2140
 1181TIP3    H124958   5.394   0.229   0.115  0.6316  0.0552  1.0349
 1181TIP3    H224959   5.536   0.205   0.162  1.2440  1.8919  0.1993
 1182TIP3   OH224960   5.358   1.137   0.639 -0.6897  0.2209  0.1415
 1182TIP3    H124961   5.344   1.043   0.633 -0.8424  0.2167  0.5251
 1182TIP3    H224962   5.422   1.148   0.709 -1.4151  0.4591  0.7790
 1183TIP3   OH224963   1.083   4.411   5.320 -0.0392  0.2642  0.2360
 1183TIP3    H124964   1.132   4.489   5.294 -0.5872  0.4348 -0.3193
 1183TIP3    H224965   1.051   4.430   5.408 -0.9552  1.0623 -0.2555
 1184TIP3   OH224966   3.312   0.093   4.749  0.0218  0.5608 -0.4769
 1184TIP3    H124967   3.272   0.146   4.680  0.1939  1.2332 -0.0651
 1184TIP3    H224968   3.241   0.035   4.779 -1.2593  3.0883  1.5914
 1185TIP3   OH224969   2.855   2.056  13.457 -0.0128  0.0819 -0.5508
 1185TIP3    H124970   2.926   2.012  13.410 -0.2924 -0.5779 -0.3624
 1185TIP3    H224971   2.869   2.149  13.440  1.1498 -0.0131 -0.1758
 1186TIP3   OH224972   2.855   3.593   3.782  0.6396 -0.4800  0.4717
 1186TIP3    H124973   2.883   3.682   3.803  0.4805 -0.0428 -1.0716
 1186TIP3    H224974   2.913   3.537   3.833  1.5902  0.4975  0.4879
 1187TIP3   OH224975   5.619   6.432   0.392  0.4346  0.4548  0.2811
 1187TIP3    H124976   5.627   6.461   0.301 -1.2558  0.4272  0.1167
 1187TIP3    H224977   5.655   6.344   0.392 -2.4813 -0.7912 -1.0526
 1188TIP3   OH224978   4.619   2.029   2.024 -0.2714 -0.5391  0.1858
 1188TIP3    H124979   4.550   1.995   1.967 -0.4041 -1.0998  0.6843
 1188TIP3    H224980   4.587   2.016   2.113  0.0537  0.0938  0.4005
 1189TIP3   OH224981   3.147   4.174  16.457 -0.4224  0.4767 -0.6374
 1189TIP3    H124982   3.087   4.100  16.450 -0.7714  0.6990 -0.0377
 1189TIP3    H224983   3.207   4.148  16.528  1.8465 -0.9022 -2.9655
 1190TIP3   OH224984   1.312   2.385   2.033 -0.0798  0.5219 -0.5026
 1190TIP3    H124985   1.244   2.344   2.085 -0.1112  1.0135 -0.1503
 1190TIP3    H224986   1.383   2.321   2.030  0.6539  1.1882  1.6523
 1191TIP3   OH224987   3.594   3.223   4.456  0.1006  0.0927 -0.0382
 1191TIP3    H124988   3.574   3.149   4.513 -0.9015  0.1109 -0.3407
 1191TIP3    H224989   3.573   3.192   4.368 -3.8759  1.8527  0.1594
 1192TIP3   OH224990   2.442   4.908   4.213 -0.0770 -0.2211 -0.0990
 1192TIP3    H124991   2.351   4.903   4.243 -0.1532 -2.1717 -0.6016
 1192TIP3    H224992   2.438   4.958   4.132 -0.6548 -0.0107  0.0527
 1193TIP3   OH224993   4.400   5.342   4.029 -0.1797 -0.1720  0.4858
 1193TIP3    H124994   4.488   5.382   4.027 -0.1419 -0.2839 -0.4999
 1193TIP3    H224995   4.387   5.317   4.120  0.2067  1.2005  0.9365
 1194TIP3   OH224996   5.924   4.271  11.461  0.9133 -0.5617 -0.2317
 1194TIP3    H124997   5.855   4.206  11.451  0.9150 -0.6331  0.1850
 1194TIP3    H224998   5.959   4.255  11.549  0.8982  0.0169 -0.1202
 1195TIP3   OH224999   1.509   4.896  10.856 -0.0023  0.0564  0.2275
 1195TIP3    H125000   1.440   4.890  10.790  1.3481 -1.6878 -1.0662
 1195TIP3    H225001   1.500   4.984  10.892  0.6767  1.9247 -3.8914
 1196TIP3   OH225002   4.269   6.759   4.005 -0.4549  0.1114  0.0743
 1196TIP3    H125003   4.199   6.736   3.944 -0.8700  1.8664 -0.1456
 1196TIP3    H225004   4.227   6.812   4.072  0.3633 -0.2070  0.8629
 1197TIP3   OH225005   0.431   1.243   1.181  0.1795 -0.5250  0.3035
 1197TIP3    H125006   0.495   1.314   1.189 -0.7220  0.4768 -1.1404
 1197TIP3    H225007   0.382   1.246   1.263 -0.1830  0.8661  0.0509
 1198TIP3   OH225008   3.738   5.225   0.018 -0.0849 -0.4821  0.8509
 1198TIP3    H125009   3.707   5.137   0.038  0.0283 -1.0381 -1.2692
 1198TIP3    H225010   3.833   5.218   0.020 -0.0759 -0.4180  0.7036
 1199TIP3   OH225011   6.292   5.534   2.314  0.3843 -0.1667  0.6351
 1199TIP3    H125012   6.353   5.505   2.382  1.3542  0.0864 -0.1016
 1199TIP3    H225013   6.282   5.628   2.329  0.4546 -0.1443  0.5402
 1200TIP3   OH225014   6.544   3.492  15.029  0.4245  0.3102 -0.6025
 1200TIP3    H125015   6.627   3.474  14.985  0.0826  0.0934 -1.1671
 1200TIP3    H225016   6.528   3.413  15.082 -0.1957 -0.3211 -1.7092
 1201TIP3   OH225017   5.180   3.899   1.359  0.6331  0.0675 -0.3749
 1201TIP3    H125018   5.265   3.943   1.363  0.8643 -0.3865 -0.2499
 1201TIP3    H225019   5.140   3.933   1.278  0.1543  1.6650  0.5059
 1202TIP3   OH225020   3.235   2.293   5.272 -0.0237  0.4932 -0.0305
 1202TIP3    H125021   3.210   2.383   5.294 -2.4737 -0.2604  0.3912
 1202TIP3    H225022   3.158   2.240   5.293  0.4980 -1.3982 -2.6164
 1203TIP3   OH225023   1.107   3.622   4.877  0.0704 -0.8187 -0.0020
 1203TIP3    H125024   1.022   3.595   4.841  0.1500 -1.4533  0.2748
 1203TIP3    H225025   1.095   3.714   4.899  0.1556 -0.2820 -2.0435
 1204TIP3   OH225026   6.022   0.133   4.862 -0.0597  0.1914  0.2593
 1204TIP3    H125027   6.052   0.121   4.952  1.6338 -0.5047 -0.3679
 1204TIP3    H225028   5.930   0.160   4.870 -0.1744 -0.7027  2.1506
 1205TIP3   OH225029   6.352   1.570  15.938  0.3499 -0.2807  0.2396
 1205TIP3    H125030   6.327   1.514  15.864  0.3996 -1.6414  1.2266
 1205TIP3    H225031   6.412   1.516  15.990  0.8112  0.8867  0.9511
 1206TIP3   OH225032   3.147   2.173   1.088  0.1040 -0.2180 -0.4815
 1206TIP3    H125033   3.132   2.216   1.004  0.4459 -0.4661 -0.6687
 1206TIP3    H225034   3.197   2.094   1.067  0.9061  0.1386  0.0347
 1207TIP3   OH225035   4.509   2.516  11.768  0.4381 -0.0488  0.1010
 1207TIP3    H125036   4.440   2.572  11.731 -0.7542 -0.0339  2.2828
 1207TIP3    H225037   4.514   2.442  11.708 -1.6530 -0.1713  0.0323
 1208TIP3   OH225038   1.312   3.175  11.259  0.7395  0.0918 -0.1998
 1208TIP3    H125039   1.279   3.092  11.296  0.3508 -0.0560 -0.8729
 1208TIP3    H225040   1.360   3.215  11.331 -0.9618  0.3322  0.8489
 1209TIP3   OH225041   1.816   1.702   3.059  0.0666 -0.5384 -0.1761
 1209TIP3    H125042   1.891   1.760   3.046  1.2160 -2.2388 -1.5272
 1209TIP3    H225043   1.850   1.631   3.114 -0.8605 -0.7286  0.1574
 1210TIP3   OH225044   5.670   5.735  12.409  0.1987 -0.3878 -0.6888
 1210TIP3    H125045   5.687   5.708  12.500 -1.0407  0.0411 -0.3283
 1210TIP3    H225046   5.725   5.676  12.357 -2.9374 -4.1588  0.0105
 1211TIP3   OH225047   6.203   2.501   4.620 -0.3524 -0.0170  0.0533
 1211TIP3    H125048   6.143   2.428   4.625 -0.9672  0.2409 -2.7903
 1211TIP3    H225049   6.183   2.544   4.536  2.5409  1.1294 -0.1327
 1212TIP3   OH225050   2.867   3.960   0.726 -0.1909  0.2076  0.3877
 1212TIP3    H125051   2.870   3.958   0.821  0.5446  1.9278  0.4185
 1212TIP3    H225052   2.870   4.053   0.704  0.8413 -0.2213 -1.3539
 1213TIP3   OH225053   0.894   2.524  12.349 -0.2466 -0.0619  0.1467
 1213TIP3    H125054   0.875   2.430  12.343 -1.3570  0.2410 -1.5272
 1213TIP3    H225055   0.974   2.530  12.400 -0.0830 -1.9370  0.1221
 1214TIP3   OH225056   1.778   0.581  11.335  0.3532  0.3933  0.4273
 1214TIP3    H125057   1.752   0.617  11.251 -0.7134 -1.4543 -0.0772
 1214TIP3    H225058   1.714   0.511  11.352  1.1211  0.0980  2.3019
 1215TIP3   OH225059   4.855   2.187  15.624  0.2988 -0.0611  0.1167
 1215TIP3    H125060   4.825   2.156  15.710  1.1257 -0.8347  0.1363
 1215TIP3    H225061   4.800   2.140  15.562  0.8577 -0.8057  0.1784
 1216TIP3   OH225062   1.648   5.516   0.516  0.1439 -0.0889 -0.0928
 1216TIP3    H125063   1.714   5.565   0.565 -0.2716 -0.1384  0.5145
 1216TIP3    H225064   1.601   5.465   0.582 -0.9260  0.4264 -0.4438
 1217TIP3   OH225065   6.671   5.064  14.275  0.3564  0.0077  0.4412
 1217TIP3    H125066   6.729   5.052  14.350  2.3285 -0.3652 -1.0980
 1217TIP3    H225067   6.645   4.975  14.250  2.0689 -0.0639 -1.1140
 1218TIP3   OH225068   5.096   4.843   1.237  0.1411  0.1938  0.7207
 1218TIP3    H125069   5.190   4.837   1.223 -0.0158 -0.1221 -0.2106
 1218TIP3    H225070   5.073   4.931   1.209  0.0839  0.1049  0.4857
 1219TIP3   OH225071   2.981   4.200  13.296 -0.8008  0.7045 -0.2922
 1219TIP3    H125072   3.016   4.201  13.385 -2.6631  2.5315  0.4551
 1219TIP3    H225073   2.973   4.107  13.274 -0.1652  0.2414  1.3675
 1220TIP3   OH225074   2.355   2.387  12.940  0.2151 -0.0503 -0.1244
 1220TIP3    H125075   2.311   2.426  13.015  0.7573  0.1397  0.0936
 1220TIP3    H225076   2.445   2.417  12.946  0.0154  0.8604 -1.4555
 1221TIP3   OH225077   2.826   0.422   2.963  0.1425  0.2824 -1.0027
 1221TIP3    H125078   2.891   0.356   2.941  2.4172  1.9555  0.4769
 1221TIP3    H225079   2.759   0.375   3.012  1.5543 -0.9946 -0.2799
 1222TIP3   OH225080   0.813   4.627   2.675  0.2501 -0.1612  0.0435
 1222TIP3    H125081   0.831   4.608   2.583 -0.6165  1.5397 -0.5039
 1222TIP3    H225082   0.825   4.722   2.682 -0.0882 -0.2252  1.5947
 1223TIP3   OH225083   3.126   0.232   1.767  0.0219  0.2191  0.0812
 1223TIP3    H125084   3.171   0.243   1.683  0.0739  0.3617  0.1269
 1223TIP3    H225085   3.197   0.233   1.832  0.0518 -0.7206  0.0572
 1224TIP3   OH225086   4.910   3.677   0.055  0.8937 -0.0291 -0.3021
 1224TIP3    H125087   4.920   3.618  -0.020 -0.2398  1.4657 -1.6548
 1224TIP3    H225088   4.957   3.756   0.029  0.3146  0.5738  0.4832
 1225TIP3   OH225089   4.762   1.464   0.382  0.2177 -0.2811  0.1129
 1225TIP3    H125090   4.785   1.426   0.467  0.1106 -1.1328 -0.2361
 1225TIP3    H225091   4.666   1.462   0.380  0.1851  0.6744  0.3892
 1226TIP3   OH225092   0.846   1.607   1.175  0.4882  0.1122  0.0922
 1226TIP3    H125093   0.926   1.659   1.177  1.0918 -0.7865 -0.1472
 1226TIP3    H225094   0.876   1.516   1.183 -0.6482 -0.1175  1.8743
 1227TIP3   OH225095   1.497   4.982   5.778  0.2121 -0.2225 -0.0603
 1227TIP3    H125096   1.447   5.022   5.849 -1.1838 -1.9661 -0.0478
 1227TIP3    H225097   1.432   4.960   5.712  1.3743  0.3951 -1.4400
 1228TIP3   OH225098   0.181   6.351  13.879 -0.1164 -0.0428  0.7665
 1228TIP3    H125099   0.253   6.380  13.934 -0.1030 -1.0763  1.3082
 1228TIP3    H225100   0.214   6.272  13.837 -1.0870 -0.7613  1.3499
 1229TIP3   OH225101   4.343   4.374  15.111 -0.0006 -0.0286  0.0106
 1229TIP3    H125102   4.290   4.426  15.171 -0.0080  0.7234 -0.6396
 1229TIP3    H225103   4.286   4.361  15.035  0.3549 -0.1446 -0.2371
 1230TIP3   OH225104   4.340   1.225   5.038 -0.0709  0.4283  0.0070
 1230TIP3    H125105   4.344   1.315   5.006  1.4893  0.4538  0.2186
 1230TIP3    H225106   4.289   1.178   4.972  0.6449  1.0994 -1.0338
 1231TIP3   OH225107   1.245   3.760   1.154  0.2400 -0.2464 -0.6487
 1231TIP3    H125108   1.272   3.671   1.130 -3.7318 -1.0226 -2.7724
 1231TIP3    H225109   1.249   3.809   1.071 -2.5932  0.1072 -0.6401
 1232TIP3   OH225110   5.070   4.268  14.611  0.1823  0.2074 -0.1184
 1232TIP3    H125111   5.085   4.192  14.555 -0.8136 -0.9453  1.1430
 1232TIP3    H225112   5.125   4.252  14.688  0.8716  1.3422 -0.3748
 1233TIP3   OH225113   6.581   5.456   5.382  0.1245 -0.1794 -0.5603
 1233TIP3    H125114   6.582   5.412   5.468 -1.5735  1.2059  0.1911
 1233TIP3    H225115   6.674   5.464   5.359  0.7268  1.4703  2.2203
 1234TIP3   OH225116   0.369   0.705  13.964 -0.1174  0.0925 -0.2311
 1234TIP3    H125117   0.382   0.674  14.053 -0.4941 -2.1441 -0.9121
 1234TIP3    H225118   0.284   0.748  13.965  0.0891  0.4777  0.5854
 1235TIP3   OH225119   1.871   3.511  15.453  0.8274  0.2542 -0.0006
 1235TIP3    H125120   1.818   3.501  15.532 -1.3818  2.0025 -1.1834
 1235TIP3    H225121   1.917   3.428  15.444 -0.3907 -0.6917  2.0310
 1236TIP3   OH225122   4.326   0.281   0.576 -0.2582 -0.0824 -0.1946
 1236TIP3    H125123   4.273   0.203   0.593 -1.1081  0.1745 -1.5605
 1236TIP3    H225124   4.264   0.354   0.579 -0.0066  0.2201 -1.8422
 1237TIP3   OH225125   3.753   4.050  12.699  0.0158  0.7246 -0.0232
 1237TIP3    H125126   3.823   4.099  12.741 -0.9554  0.8156  1.5393
 1237TIP3    H225127   3.731   4.100  12.620  1.3800  0.9248 -0.2828
 1238TIP3   OH225128   4.373   2.850   0.215  0.0592  0.0163  0.4145
 1238TIP3    H125129   4.300   2.792   0.193  0.3884 -0.3923  0.4090
 1238TIP3    H225130   4.414   2.868   0.131 -2.2944  3.2922 -0.1385
 1239TIP3   OH225131   1.023   1.476   2.125 -0.1126  0.0496  0.2267
 1239TIP3    H125132   0.997   1.431   2.045  1.1707 -0.2176 -0.0473
 1239TIP3    H225133   1.075   1.551   2.095 -2.8560  2.1999  0.6396
 1240TIP3   OH225134   4.730   6.650   4.061 -0.2254 -0.0066  0.2348
 1240TIP3    H125135   4.647   6.605   4.044 -0.3130  0.2572 -0.0524
 1240TIP3    H225136   4.728   6.725   4.002  0.0494  0.2122  0.5054
 1241TIP3   OH225137   0.730   2.166   5.320 -0.2353  0.0400 -0.0406
 1241TIP3    H125138   0.820   2.135   5.315 -0.6067 -1.1153  0.4241
 1241TIP3    H225139   0.719   2.192   5.411 -0.5660 -0.3792  0.0355
 1242TIP3   OH225140   4.819   1.890   4.229  0.4949  0.1057  0.2797
 1242TIP3    H125141   4.771   1.944   4.166 -0.5589 -2.8018 -1.4813
 1242TIP3    H225142   4.766   1.894   4.309  0.7088  2.0457  0.3636
 1243TIP3   OH225143   1.013   3.627  11.421  0.7771  0.4647 -0.0976
 1243TIP3    H125144   0.937   3.686  11.413  0.7705  0.3545 -0.9510
 1243TIP3    H225145   1.020   3.610  11.514 -0.2197  0.5281  0.0040
 1244TIP3   OH225146   4.459   4.852  12.351  0.0207  0.2178  0.2547
 1244TIP3    H125147   4.535   4.812  12.309  0.2451 -0.4748  1.2779
 1244TIP3    H225148   4.493   4.930  12.394  0.1213 -0.0092  0.5869
 1245TIP3   OH225149   4.398   2.188   6.138 -0.2992 -0.1969 -0.2035
 1245TIP3    H125150   4.431   2.271   6.172 -0.2505 -1.1370  2.1469
 1245TIP3    H225151   4.420   2.190   6.045  1.5311  1.5330  0.2293
 1246TIP3   OH225152   2.177   1.194  15.176  0.1584  0.4864 -0.4205
 1246TIP3    H125153   2.139   1.282  15.177 -1.3264 -0.1425  2.2507
 1246TIP3    H225154   2.199   1.176  15.267 -1.1180 -2.5664 -0.6560
 1247TIP3   OH225155   3.535   5.752  13.419 -0.7207 -0.5371 -0.3533
 1247TIP3    H125156   3.549   5.658  13.430 -0.4299 -0.4042  0.4450
 1247TIP3    H225157   3.449   5.759  13.378 -0.2972 -1.1914 -1.3721
 1248TIP3   OH225158   0.425   4.774  16.095  0.6674  0.3398  0.4663
 1248TIP3    H125159   0.409   4.847  16.035  0.5394 -0.9103 -1.0504
 1248TIP3    H225160   0.346   4.720  16.089  1.8139 -1.2646 -0.3903
 1249TIP3   OH225161   4.152   2.840  11.868  0.1799 -0.4482  0.6816
 1249TIP3    H125162   4.065   2.801  11.875 -0.7239  1.3269 -0.3663
 1249TIP3    H225163   4.167   2.883  11.952 -0.5089  0.3622  0.3906
 1250TIP3   OH225164   3.709   4.909   1.572  0.0695  0.2496  0.4699
 1250TIP3    H125165   3.739   4.930   1.484  2.1879  1.7368  1.4995
 1250TIP3    H225166   3.765   4.835   1.598  1.5672  1.7646  1.6654
 1251TIP3   OH225167   6.474   5.976  13.381 -0.6598  0.1829  0.6092
 1251TIP3    H125168   6.390   5.945  13.346  0.0342 -0.5268 -0.4903
 1251TIP3    H225169   6.483   5.930  13.464  0.1896 -2.4027 -0.8481
 1252TIP3   OH225170   4.493   6.392   3.089  0.2845  0.1399  0.1822
 1252TIP3    H125171   4.406   6.419   3.061 -0.6375 -1.6171  1.2370
 1252TIP3    H225172   4.523   6.332   3.020  0.2720  0.0396  0.2627
 1253TIP3   OH225173   0.956   4.322   6.092  0.1413 -0.0588  0.6826
 1253TIP3    H125174   0.892   4.393   6.088  0.0931  0.0054  2.3317
 1253TIP3    H225175   1.041   4.366   6.099  0.2371 -0.1683  0.2782
 1254TIP3   OH225176   1.827   2.316  17.152  0.1844 -0.6031  0.1450
 1254TIP3    H125177   1.758   2.257  17.182  0.7344 -0.9904  0.6309
 1254TIP3    H225178   1.798   2.342  17.064  0.3003 -2.1617 -0.3750
 1255TIP3   OH225179   6.070   6.666   4.038 -0.4438  0.0483 -0.0514
 1255TIP3    H125180   6.115   6.615   4.105  0.2503  0.4685 -0.1906
 1255TIP3    H225181   6.057   6.752   4.078  1.4736  0.8372 -1.0210
 1256TIP3   OH225182   5.809   0.313  16.202 -0.2365 -0.0451  0.6128
 1256TIP3    H125183   5.723   0.339  16.235 -0.6231 -1.4242  0.7197
 1256TIP3    H225184   5.865   0.388  16.220 -1.0714  0.2816  1.9447
 1257TIP3   OH225185   6.558   3.801   2.809 -0.3248 -0.0443  0.1219
 1257TIP3    H125186   6.551   3.718   2.856  0.8033 -0.4173 -0.3499
 1257TIP3    H225187   6.560   3.867   2.878  0.1611 -0.5067  0.5523
 1258TIP3   OH225188   4.418   2.188   5.629 -0.1529  0.3842 -0.3488
 1258TIP3    H125189   4.435   2.109   5.578 -0.2941  0.8644 -1.1438
 1258TIP3    H225190   4.444   2.165   5.718 -0.2012 -0.5574 -0.5775
 1259TIP3   OH225191   3.189   6.437   3.277 -0.2899  0.1557 -0.4479
 1259TIP3    H125192   3.215   6.522   3.242  0.9117 -0.2681 -0.5945
 1259TIP3    H225193   3.159   6.388   3.200 -2.7402  1.0596 -0.1162
 1260TIP3   OH225194   5.836   2.062  12.056  0.4620  0.3557 -0.0553
 1260TIP3    H125195   5.889   2.137  12.026 -1.0498  1.3605 -0.2908
 1260TIP3    H225196   5.747   2.096  12.060 -0.3818 -1.6877 -0.9574
 1261TIP3   OH225197   3.091   3.730  14.022 -0.1735 -0.1218  0.0298
 1261TIP3    H125198   3.059   3.741  13.932 -1.8768 -4.1193  0.0319
 1261TIP3    H225199   3.022   3.768  14.076  0.3754  1.3666 -0.2934
 1262TIP3   OH225200   2.819   3.052  16.026 -0.3938 -0.3329  0.4201
 1262TIP3    H125201   2.754   2.992  15.988 -1.0910  0.4973  0.2944
 1262TIP3    H225202   2.847   3.107  15.954  0.5242 -0.7528  0.4574
 1263TIP3   OH225203   2.146   1.663  17.152 -0.3509 -0.3027 -0.8339
 1263TIP3    H125204   2.216   1.620  17.200  0.1912  0.3131 -1.0645
 1263TIP3    H225205   2.183   1.682  17.066 -0.4867  0.8549 -0.6478
 1264TIP3   OH225206   0.418   6.420   5.093  0.0384 -0.2518 -0.2025
 1264TIP3    H125207   0.427   6.516   5.087 -1.2087  0.1173  2.9125
 1264TIP3    H225208   0.497   6.391   5.138 -0.7598 -0.3525  1.1714
 1265TIP3   OH225209   1.457   4.241   3.826  0.0944 -0.0064  0.0059
 1265TIP3    H125210   1.424   4.252   3.737  1.0371  1.0171 -0.2289
 1265TIP3    H225211   1.380   4.250   3.882 -0.3517  0.2858 -0.6506
 1266TIP3   OH225212   0.358   2.399   4.052  0.0661  0.2116 -0.1633
 1266TIP3    H125213   0.419   2.329   4.076 -1.2968 -0.9555 -0.0485
 1266TIP3    H225214   0.286   2.391   4.114 -1.2582  0.1597 -1.6741
 1267TIP3   OH225215   0.428   5.692   3.240 -0.9137  0.1209  0.2535
 1267TIP3    H125216   0.523   5.702   3.238 -0.8433 -0.2315  1.4051
 1267TIP3    H225217   0.397   5.736   3.161  0.0296  2.3415  1.0896
 1268TIP3   OH225218   1.072   6.328  15.967 -0.5135  0.0599  0.3646
 1268TIP3    H125219   1.139   6.395  15.956 -0.9690  0.4698  0.0936
 1268TIP3    H225220   1.116   6.247  15.940 -0.4131  0.4620 -0.7303
 1269TIP3   OH225221   5.550   1.576  16.055 -0.0696 -0.1865  0.1970
 1269TIP3    H125222   5.637   1.615  16.052  0.2753 -1.0091 -4.4016
 1269TIP3    H225223   5.489   1.650  16.053  0.5324  0.3047  0.0664
 1270TIP3   OH225224   6.305   6.439   3.558  0.3094  0.0110  0.5523
 1270TIP3    H125225   6.244   6.442   3.632 -1.4730  1.4797 -0.9224
 1270TIP3    H225226   6.268   6.373   3.499  0.2591  0.7506 -0.2508
 1271TIP3   OH225227   4.548   3.916   5.681 -0.3801  0.4568 -0.1603
 1271TIP3    H125228   4.595   3.902   5.763 -0.7210 -1.6832 -0.2868
 1271TIP3    H225229   4.585   3.851   5.621 -0.9019  1.2588 -1.3715
 1272TIP3   OH225230   5.651   1.388  16.780  0.5975  0.2393 -0.1671
 1272TIP3    H125231   5.691   1.452  16.839 -0.5512  3.1389 -2.4367
 1272TIP3    H225232   5.559   1.384  16.808  0.6994 -0.5696  0.0652
 1273TIP3   OH225233   5.539   0.782  15.880 -0.1737 -0.3813 -0.3035
 1273TIP3    H125234   5.487   0.711  15.841  0.6922 -0.4098 -1.4331
 1273TIP3    H225235   5.574   0.744  15.960 -2.0905 -0.2809  0.6244
 1274TIP3   OH225236   1.000   6.447  12.789  0.0534  0.0815 -0.4083
 1274TIP3    H125237   1.023   6.425  12.698  1.9816  1.7803 -0.3601
 1274TIP3    H225238   0.923   6.504  12.780  0.8830  1.1209 -1.0593
 1275TIP3   OH225239   3.020   4.905   0.506  0.4997 -0.2920 -0.0480
 1275TIP3    H125240   2.948   4.903   0.443  0.9806 -0.9841 -0.5795
 1275TIP3    H225241   3.070   4.825   0.489  0.2618 -0.8262  1.6693
 1276TIP3   OH225242   3.014   4.083   5.021 -0.0986 -0.2040 -0.2888
 1276TIP3    H125243   2.981   4.173   5.029  1.0754  0.3059 -1.0165
 1276TIP3    H225244   2.965   4.046   4.947 -1.7844 -0.7232  1.0673
 1277TIP3   OH225245   1.608   5.967  10.606  0.7746 -0.7400 -0.2212
 1277TIP3    H125246   1.655   6.015  10.673 -0.7222 -1.0346  1.0536
 1277TIP3    H225247   1.673   5.908  10.569  2.1011  0.7835 -0.3924
 1278TIP3   OH225248   0.191   2.722   0.387  0.6666 -0.4789 -0.3601
 1278TIP3    H125249   0.173   2.789   0.453 -1.4456 -0.2266 -1.1500
 1278TIP3    H225250   0.165   2.763   0.304  0.0004 -2.0180 -0.9280
 1279TIP3   OH225251   3.172   0.637  16.450  0.3156 -0.8871 -0.1234
 1279TIP3    H125252   3.243   0.681  16.404 -1.2157  0.6941 -1.0437
 1279TIP3    H225253   3.207   0.618  16.537  1.4092  1.0959 -0.1130
 1280TIP3   OH225254   0.295   5.850   2.640  0.4892 -0.4520 -0.4089
 1280TIP3    H125255   0.238   5.896   2.702  0.2798 -0.0958 -0.8674
 1280TIP3    H225256   0.271   5.757   2.650 -0.3858 -0.2714 -0.8272
 1281TIP3   OH225257   1.635   2.132   4.273  0.0053 -0.4267  0.2330
 1281TIP3    H125258   1.639   2.199   4.204  1.5389  0.7037  1.4140
 1281TIP3    H225259   1.542   2.131   4.298  0.2832  2.7634  1.6563
 1282TIP3   OH225260   1.002   4.760  11.592 -0.4059 -0.0049 -0.0862
 1282TIP3    H125261   0.966   4.680  11.555  1.2762 -0.1872 -1.3809
 1282TIP3    H225262   1.070   4.730  11.653 -0.1078  0.4156 -0.2086
 1283TIP3   OH225263   3.712   4.761   1.256 -0.3371  0.5182  0.4190
 1283TIP3    H125264   3.644   4.696   1.273  1.1960 -1.1119  0.4390
 1283TIP3    H225265   3.787   4.732   1.308  0.4352  2.1868  0.2573
 1284TIP3   OH225266   2.524   0.904  11.070 -0.2205 -0.3715  0.9344
 1284TIP3    H125267   2.587   0.870  11.134  0.6890 -0.1561  0.1724
 1284TIP3    H225268   2.553   0.994  11.053 -0.1177 -0.6036 -0.1882
 1285TIP3   OH225269   3.786   4.742   0.543  0.4574 -0.1412  0.1654
 1285TIP3    H125270   3.743   4.820   0.578 -0.8398 -0.7698  0.0162
 1285TIP3    H225271   3.778   4.751   0.448  2.9706  1.0066  0.0316
 1286TIP3   OH225272   1.720   2.824  10.882  0.6756  0.3708 -0.3915
 1286TIP3    H125273   1.698   2.731  10.875  1.3607  0.1488  0.2259
 1286TIP3    H225274   1.682   2.864  10.804 -1.1044 -0.1325  0.1832
 1287TIP3   OH225275   5.487   6.763   2.480  0.3716 -0.5355 -0.2496
 1287TIP3    H125276   5.482   6.714   2.562  1.4043 -0.6695 -0.2615
 1287TIP3    H225277   5.404   6.811   2.476 -0.1455 -1.3743  0.3315
 1288TIP3   OH225278   4.937   6.212  15.067 -0.2851 -0.0134  0.4739
 1288TIP3    H125279   4.985   6.178  15.142 -1.7146 -1.3724  0.7984
 1288TIP3    H225280   4.973   6.165  14.992  0.0913  0.2247  0.5091
 1289TIP3   OH225281   5.432   2.816  13.400  0.1387  0.4303  0.5175
 1289TIP3    H125282   5.371   2.875  13.356  0.2267 -0.3863 -0.7271
 1289TIP3    H225283   5.519   2.851  13.382  0.5005 -2.3785 -3.9000
 1290TIP3   OH225284   1.176   1.612  11.024 -0.0486 -0.3264  0.1983
 1290TIP3    H125285   1.215   1.699  11.036  2.0608 -1.2650  0.3053
 1290TIP3    H225286   1.233   1.568  10.961 -0.6129 -1.9452  0.7977
 1291TIP3   OH225287   6.201   0.840  15.771 -0.3813  0.3251 -0.3777
 1291TIP3    H125288   6.175   0.750  15.750 -0.2175  0.3373 -0.6422
 1291TIP3    H225289   6.225   0.837  15.863 -0.3962  0.0998 -0.3800
 1292TIP3   OH225290   2.279   1.205  13.702 -0.1951  0.1056  0.0639
 1292TIP3    H125291   2.281   1.290  13.746 -0.2293  0.4599 -0.6095
 1292TIP3    H225292   2.366   1.194  13.666 -0.2443 -0.0643 -0.0047
 1293TIP3   OH225293   6.207   5.257   2.392 -0.5672 -1.0536 -1.0032
 1293TIP3    H125294   6.152   5.221   2.322  1.4686 -1.8433 -2.2374
 1293TIP3    H225295   6.264   5.320   2.348  1.0774 -1.9213 -0.1527
 1294TIP3   OH225296   5.083   5.680  16.056  0.1029 -0.2039  0.6608
 1294TIP3    H125297   5.098   5.694  15.963 -0.0522  0.2164  0.6987
 1294TIP3    H225298   5.123   5.756  16.099  1.6806 -1.2191  1.0622
 1295TIP3   OH225299   4.690   5.913   5.850  0.1893 -0.0123 -0.1232
 1295TIP3    H125300   4.675   6.002   5.883  0.8378 -0.1835  0.6433
 1295TIP3    H225301   4.618   5.862   5.886  0.5387 -0.0652  0.5080
 1296TIP3   OH225302   4.862   5.681   2.608 -0.5635  0.4126 -0.3717
 1296TIP3    H125303   4.935   5.694   2.547  0.6033  0.7893  1.0639
 1296TIP3    H225304   4.903   5.642   2.685 -2.1615 -0.9513 -0.1801
 1297TIP3   OH225305   3.747   3.343  16.088  0.3000  0.1817  0.2381
 1297TIP3    H125306   3.744   3.262  16.139  1.4736  0.8762  1.4633
 1297TIP3    H225307   3.830   3.339  16.041 -0.2008  0.1256 -0.6541
 1298TIP3   OH225308   1.728   2.464   2.624 -0.2165 -0.2765  0.2598
 1298TIP3    H125309   1.638   2.435   2.639  0.1221 -1.0162  0.9309
 1298TIP3    H225310   1.741   2.533   2.689 -1.0973  1.5765 -1.4900
 1299TIP3   OH225311   2.494   6.426  11.867 -0.3029  0.0969  0.9255
 1299TIP3    H125312   2.428   6.494  11.879 -0.1248  0.2242  1.1886
 1299TIP3    H225313   2.474   6.361  11.935 -0.4723 -0.1160  0.6753
 1300TIP3   OH225314   0.282   6.125  13.011  0.2778 -0.0943 -0.1079
 1300TIP3    H125315   0.305   6.216  12.997  0.6008  0.0031  1.0096
 1300TIP3    H225316   0.321   6.078  12.937 -0.6073  0.7661 -1.1355
 1301TIP3   OH225317   2.668   1.759   2.723 -0.4424 -0.2131  0.3004
 1301TIP3    H125318   2.683   1.750   2.817 -1.5773 -1.6516  0.3640
 1301TIP3    H225319   2.613   1.685   2.700 -0.4209  0.2812 -1.4600
 1302TIP3   OH225320   3.211   4.818  11.121  0.5195 -0.2830  0.6610
 1302TIP3    H125321   3.174   4.904  11.141  0.1988 -0.0553 -0.8490
 1302TIP3    H225322   3.135   4.763  11.101  0.8907 -0.1333 -1.2453
 1303TIP3   OH225323   2.214   0.343  10.636  0.1481  0.4435  0.0689
 1303TIP3    H125324   2.132   0.391  10.631 -0.5468 -0.7721 -0.2937
 1303TIP3    H225325   2.221   0.299  10.551  0.5769 -0.4274  0.5516
 1304TIP3   OH225326   2.866   0.438  16.981 -0.0268 -0.6770 -0.0089
 1304TIP3    H125327   2.812   0.433  16.902  0.7723 -1.2414 -0.5293
 1304TIP3    H225328   2.855   0.354  17.024 -2.0431  0.3398  1.5597
 1305TIP3   OH225329   5.662   3.239  15.826  0.1040 -0.0378 -0.6597
 1305TIP3    H125330   5.684   3.148  15.806 -1.0880 -0.3667 -0.4945
 1305TIP3    H225331   5.568   3.245  15.809 -0.4887  0.2880  2.5488
 1306TIP3   OH225332   0.611   2.997   3.444 -0.0192 -0.1192 -0.4859
 1306TIP3    H125333   0.631   3.081   3.485  1.0743 -0.3582 -0.5283
 1306TIP3    H225334   0.612   3.016   3.350 -0.5705 -0.0102 -0.4744
 1307TIP3   OH225335   1.405   5.140  12.038  0.6094 -0.2051  0.0082
 1307TIP3    H125336   1.448   5.054  12.042  1.0583  0.0098 -0.1732
 1307TIP3    H225337   1.460   5.191  11.979  0.5403  0.3193  0.3949
 1308TIP3   OH225338   5.316   3.580  10.726 -0.2320  0.2629 -0.2101
 1308TIP3    H125339   5.406   3.570  10.693 -0.7773 -0.1524 -1.6357
 1308TIP3    H225340   5.269   3.619  10.652 -0.8473  2.0805  1.1154
 1309TIP3   OH225341   5.894   2.416  14.440 -0.4765 -0.0097 -0.3861
 1309TIP3    H125342   5.922   2.349  14.377 -1.1541 -0.3501 -0.3232
 1309TIP3    H225343   5.887   2.496  14.388  3.0254  0.6680  0.0523
 1310TIP3   OH225344   1.357   3.103   1.483  0.4628 -0.0416  0.4721
 1310TIP3    H125345   1.335   3.169   1.550  0.0069  1.3790 -1.0334
 1310TIP3    H225346   1.306   3.026   1.509 -2.8225  1.7274 -0.3463
 1311TIP3   OH225347   2.666   1.368   2.354  0.6272  0.3349 -0.3657
 1311TIP3    H125348   2.608   1.324   2.416  0.4719  1.2620  0.1516
 1311TIP3    H225349   2.659   1.461   2.376  0.9819  0.6177 -1.4246
 1312TIP3   OH225350   0.736   0.769   5.831  0.6889 -0.0184 -0.1445
 1312TIP3    H125351   0.770   0.850   5.868  0.2640 -0.0700  0.3710
 1312TIP3    H225352   0.651   0.793   5.794  0.6971 -0.1629 -0.2577
 1313TIP3   OH225353   3.948   5.502   2.894  0.4441 -0.3507  0.0097
 1313TIP3    H125354   3.896   5.536   2.967 -0.3250 -0.2375 -0.5792
 1313TIP3    H225355   4.027   5.467   2.935 -0.5098 -1.3614  1.0228
 1314TIP3   OH225356   3.366   5.505   5.094 -0.2981  0.2019  0.1540
 1314TIP3    H125357   3.313   5.476   5.168 -0.3823  0.1729  0.0821
 1314TIP3    H225358   3.457   5.491   5.122 -0.3574 -0.9166 -0.2075
 1315TIP3   OH225359   1.693   5.181   0.121 -0.3149 -0.1706  0.4786
 1315TIP3    H125360   1.613   5.205   0.075 -0.8107 -0.4209  1.2080
 1315TIP3    H225361   1.676   5.201   0.213  0.1698 -0.9567  0.7465
 1316TIP3   OH225362   0.298   5.294  16.888 -0.2313 -0.5610  0.4842
 1316TIP3    H125363   0.235   5.330  16.825 -0.9260 -2.0709  0.2988
 1316TIP3    H225364   0.373   5.354  16.884 -0.8639  0.1671 -0.7110
 1317TIP3   OH225365   1.780   1.784   0.927  0.1460  0.4697 -0.3911
 1317TIP3    H125366   1.745   1.835   0.854 -1.9385 -2.5094 -1.5905
 1317TIP3    H225367   1.815   1.705   0.886  0.4467 -0.5071  1.6964
 1318TIP3   OH225368   6.019   4.989   1.075 -0.2453 -0.3916 -0.7499
 1318TIP3    H125369   6.042   5.022   0.988 -1.0271  0.8409 -0.4841
 1318TIP3    H225370   6.103   4.967   1.114  0.1250 -0.8582 -1.7659
 1319TIP3   OH225371   1.988   5.676   1.548 -0.1404  0.0400 -0.3936
 1319TIP3    H125372   2.054   5.674   1.617 -1.9805  0.0829  1.3884
 1319TIP3    H225373   1.922   5.737   1.579 -0.9114  0.1913 -2.2804
 1320TIP3   OH225374   5.435   4.831  11.031 -0.5271 -0.4625 -0.1416
 1320TIP3    H125375   5.349   4.790  11.041 -0.7172 -0.5375 -1.8089
 1320TIP3    H225376   5.416   4.925  11.028 -0.0335 -0.1352  4.2399
 1321TIP3   OH225377   0.316   3.641   3.220 -0.3582  0.5934  0.2134
 1321TIP3    H125378   0.381   3.688   3.168  0.7977 -0.1249  0.9792
 1321TIP3    H225379   0.257   3.709   3.252  1.1417  1.5211  1.0810
 1322TIP3   OH225380   4.081   1.660  11.777 -0.1668  0.0010  0.2667
 1322TIP3    H125381   4.065   1.664  11.682  0.4322  2.3115  0.2304
 1322TIP3    H225382   4.112   1.748  11.799 -0.4226 -0.4927  2.6412
 1323TIP3   OH225383   0.016   6.498  10.376 -0.3800  0.1991  0.1655
 1323TIP3    H125384   0.061   6.578  10.402 -0.2137  0.2864 -0.3903
 1323TIP3    H225385  -0.054   6.488  10.440  0.5159 -0.0172  1.1208
 1324TIP3   OH225386   2.654   0.001  15.893 -0.7077 -0.1794  0.4942
 1324TIP3    H125387   2.643  -0.031  15.983 -0.6829 -0.3832  0.4260
 1324TIP3    H225388   2.614  -0.067  15.839  0.8275 -0.9099  0.2404
 1325TIP3   OH225389   6.159   1.540  14.568  0.0971  0.3973  0.3088
 1325TIP3    H125390   6.167   1.522  14.662  2.2675 -1.4655 -0.1945
 1325TIP3    H225391   6.179   1.457  14.525 -2.6765  0.7216 -1.8155
 1326TIP3   OH225392   2.499   1.605   1.711  0.2927 -0.4207  0.1740
 1326TIP3    H125393   2.433   1.606   1.780  0.9359  1.4606  0.8136
 1326TIP3    H225394   2.458   1.559   1.638 -2.2177  1.8639  0.0765
 1327TIP3   OH225395   5.246   4.800  14.119 -0.5389  0.2435 -0.4581
 1327TIP3    H125396   5.292   4.883  14.110  2.2088 -1.0313  1.1917
 1327TIP3    H225397   5.202   4.787  14.034  0.7292  2.3209 -1.4585
 1328TIP3   OH225398   5.289   1.953  12.479  0.3120  0.4620 -0.3393
 1328TIP3    H125399   5.307   1.985  12.391  2.0678 -1.0006 -0.5534
 1328TIP3    H225400   5.198   1.926  12.477 -0.0255  1.6322 -1.3186
 1329TIP3   OH225401   6.564   0.782  16.100 -0.2287  0.2247  0.0441
 1329TIP3    H125402   6.599   0.808  16.015 -0.1927 -0.3742 -0.1281
 1329TIP3    H225403   6.527   0.695  16.085  0.8349 -0.3909  0.9060
 1330TIP3   OH225404   6.069   4.368  13.049 -0.7241  0.5730 -0.2524
 1330TIP3    H125405   6.044   4.435  12.985  1.8348  1.4931 -0.3271
 1330TIP3    H225406   6.129   4.412  13.108 -1.6523 -0.7628  1.7491
 1331TIP3   OH225407   3.817   5.124  11.993  0.5825 -0.4571 -0.1412
 1331TIP3    H125408   3.909   5.111  12.016  0.3641 -1.3634  0.2396
 1331TIP3    H225409   3.815   5.115  11.897  1.2202  1.6714 -0.3916
 1332TIP3   OH225410   6.309   0.547   2.515  0.2817  0.5282 -0.1184
 1332TIP3    H125411   6.385   0.551   2.457 -0.6235  0.9967 -1.3169
 1332TIP3    H225412   6.274   0.459   2.503  1.7713 -0.3501  1.9377
 1333TIP3   OH225413   2.810   0.018   1.014 -0.0068 -0.5509 -0.2568
 1333TIP3    H125414   2.839   0.086   0.952  0.0531 -0.8325 -0.5397
 1333TIP3    H225415   2.759  -0.043   0.961  0.3152 -0.9664 -0.0928
 1334TIP3   OH225416   0.888   5.820   0.095 -0.5711  0.1384 -0.4796
 1334TIP3    H125417   0.925   5.830   0.007  0.1695 -3.2812 -0.6474
 1334TIP3    H225418   0.962   5.832   0.154 -0.9333  1.7459 -0.3274
 1335TIP3   OH225419   2.034   4.508  13.939 -0.2428 -0.0571  0.2471
 1335TIP3    H125420   1.982   4.479  13.865  0.5444 -1.6353  0.3031
 1335TIP3    H225421   1.974   4.506  14.014  0.2261 -3.2788  0.6014
 1336TIP3   OH225422   4.301   5.232  16.367  0.5231  0.1792  0.1518
 1336TIP3    H125423   4.249   5.157  16.336 -1.1203  1.0537  0.7644
 1336TIP3    H225424   4.288   5.299  16.300  3.0167 -0.4582 -1.0524
 1337TIP3   OH225425   3.538   4.570  15.059 -0.2739 -0.4881 -0.1871
 1337TIP3    H125426   3.593   4.620  15.119 -0.0184 -0.6109 -0.3159
 1337TIP3    H225427   3.523   4.628  14.985 -0.2719 -0.4723 -0.1761
 1338TIP3   OH225428   1.028   3.488   0.178 -0.5367 -0.2030 -0.6790
 1338TIP3    H125429   1.020   3.393   0.178 -1.7339 -0.1529 -3.5955
 1338TIP3    H225430   0.955   3.519   0.125  2.0613  2.0866 -3.0793
 1339TIP3   OH225431   0.835   5.249   1.234  0.2953  0.9127  0.4296
 1339TIP3    H125432   0.750   5.289   1.213 -1.1055 -1.9685  0.2971
 1339TIP3    H225433   0.850   5.188   1.162  1.8967  0.5195  1.0866
 1340TIP3   OH225434   5.037   2.926  12.705 -0.1703 -0.1993 -0.2793
 1340TIP3    H125435   4.960   2.921  12.649 -2.1591  0.8831  2.2595
 1340TIP3    H225436   5.064   2.835  12.719 -0.5139 -0.5353 -1.7835
 1341TIP3   OH225437   5.880   0.972   2.109  0.0603 -0.1739  0.0069
 1341TIP3    H125438   5.813   0.984   2.041 -1.2733 -0.1461  1.3093
 1341TIP3    H225439   5.839   0.915   2.174  1.0369  0.4425  1.1890
 1342TIP3   OH225440   2.687   6.777   2.702 -0.7373  0.4362  0.1394
 1342TIP3    H125441   2.732   6.714   2.758 -0.9595 -0.4957 -0.6955
 1342TIP3    H225442   2.642   6.836   2.762 -1.3284 -0.8052  0.9282
 1343TIP3   OH225443   4.140   0.501  11.228  0.2931  0.3166  0.2097
 1343TIP3    H125444   4.080   0.435  11.261  0.2110  0.3144  0.0542
 1343TIP3    H225445   4.226   0.475  11.263 -0.1048  1.4185  2.0674
 1344TIP3   OH225446   1.403   0.750   5.733 -0.0914  0.6102  0.3593
 1344TIP3    H125447   1.310   0.728   5.735 -0.2363  1.1156 -0.6468
 1344TIP3    H225448   1.406   0.839   5.698  0.7678  0.6132  0.4272
 1345TIP3   OH225449   3.465   1.356  11.884 -0.9804 -0.3423 -0.0170
 1345TIP3    H125450   3.536   1.363  11.948 -1.0509 -1.9934  0.2660
 1345TIP3    H225451   3.413   1.435  11.897  0.4867  0.6255  0.1540
 1346TIP3   OH225452   2.099   4.778   0.346 -0.1789  0.0495  0.2035
 1346TIP3    H125453   2.014   4.735   0.347  0.5954 -1.5171  2.0213
 1346TIP3    H225454   2.123   4.783   0.254 -1.1698 -1.6440 -0.1552
 1347TIP3   OH225455   3.985   4.456   3.077  0.1159 -0.1887 -0.2426
 1347TIP3    H125456   3.893   4.477   3.059  0.2634 -1.0681 -2.1541
 1347TIP3    H225457   3.984   4.363   3.101  0.7688 -0.8871 -2.7463
 1348TIP3   OH225458   3.644   1.513  12.503  0.4732 -0.5146 -0.5678
 1348TIP3    H125459   3.565   1.469  12.471 -0.6735  1.6915 -0.8216
 1348TIP3    H225460   3.699   1.521  12.425  0.5985 -1.3098 -0.5658
 1349TIP3   OH225461   2.417   1.970   3.141 -0.1660  0.1804 -0.0734
 1349TIP3    H125462   2.483   2.036   3.159 -0.3778  0.2277  0.5620
 1349TIP3    H225463   2.418   1.914   3.219 -2.7868  1.7824  1.2048
 1350TIP3   OH225464   3.933   6.005   4.641 -0.2124 -0.2733 -0.1246
 1350TIP3    H125465   3.876   5.990   4.717 -1.6825  1.3075 -0.8692
 1350TIP3    H225466   3.974   6.090   4.658 -1.8451  0.9106 -1.8132
 1351TIP3   OH225467   6.231   0.193   3.792 -0.2184  0.0930 -0.1780
 1351TIP3    H125468   6.227   0.255   3.865 -0.1197 -2.7286  2.3392
 1351TIP3    H225469   6.180   0.118   3.821  1.5230 -1.9475 -2.1514
 1352TIP3   OH225470   4.080   3.171   5.788  0.0840  0.2212  0.4376
 1352TIP3    H125471   4.140   3.221   5.844  0.9287  0.0027 -0.2710
 1352TIP3    H225472   4.000   3.225   5.786 -0.3311 -0.2628  2.6649
 1353TIP3   OH225473   5.489   6.439   4.963 -0.7242  0.0664  0.5146
 1353TIP3    H125474   5.426   6.509   4.946 -0.1733  0.6598  0.8653
 1353TIP3    H225475   5.511   6.405   4.876 -2.9675 -1.4603  0.5038
 1354TIP3   OH225476   6.360   4.191  16.690  0.1868 -0.1620  0.4126
 1354TIP3    H125477   6.292   4.249  16.722  0.1913  0.6955 -1.0994
 1354TIP3    H225478   6.330   4.164  16.603  1.5927 -0.0742 -0.1108
 1355TIP3   OH225479   2.602   4.158   1.100  0.6745  0.1708  0.1962
 1355TIP3    H125480   2.537   4.183   1.166  1.1405  0.1357  0.6760
 1355TIP3    H225481   2.619   4.239   1.052 -0.1715  0.0434 -0.3376
 1356TIP3   OH225482   1.214   0.600  17.028 -0.1132  0.1814  0.2804
 1356TIP3    H125483   1.249   0.614  16.940 -0.2310 -0.3501  0.1449
 1356TIP3    H225484   1.128   0.559  17.014 -0.0361 -0.1130  0.6469
 1357TIP3   OH225485   4.386   2.663  12.210  0.0288 -0.0988 -0.2979
 1357TIP3    H125486   4.448   2.593  12.192  0.5606 -0.1336  1.6192
 1357TIP3    H225487   4.439   2.742  12.215 -0.4320  0.2892 -1.3303
 1358TIP3   OH225488   4.597   4.286  15.410 -0.0952 -0.3832 -0.3198
 1358TIP3    H125489   4.663   4.351  15.387  0.9358 -1.3095  0.0219
 1358TIP3    H225490   4.565   4.252  15.327  3.0164 -3.1151 -0.4819
 1359TIP3   OH225491   5.768   6.168  11.429  0.1109  0.2696 -0.4330
 1359TIP3    H125492   5.810   6.208  11.353  0.2370 -1.5841 -1.3683
 1359TIP3    H225493   5.691   6.124  11.394 -0.4848  0.3849  0.6959
 1360TIP3   OH225494   4.588   3.916   3.257  0.1351  0.1139 -0.1114
 1360TIP3    H125495   4.512   3.924   3.199  0.4539  0.4519 -0.4814
 1360TIP3    H225496   4.660   3.892   3.199  0.5240  0.7566  0.1012
 1361TIP3   OH225497   2.681   1.534  11.211  0.3348 -0.5381  0.4593
 1361TIP3    H125498   2.679   1.535  11.115 -1.2928 -2.5379  0.4189
 1361TIP3    H225499   2.725   1.615  11.235 -1.7110  1.3881 -1.9192
 1362TIP3   OH225500   6.266   3.089   1.790 -0.4013  0.2643 -0.3178
 1362TIP3    H125501   6.176   3.122   1.799 -0.6312 -1.1516  3.1275
 1362TIP3    H225502   6.319   3.152   1.839  0.5636  1.1208 -2.3823
 1363TIP3   OH225503   1.605   2.708  12.259  0.3227  0.4205 -0.5243
 1363TIP3    H125504   1.699   2.724  12.269  0.5535 -0.2505 -1.4917
 1363TIP3    H225505   1.591   2.708  12.164 -0.6199  0.3383 -0.3899
 1364TIP3   OH225506   0.709   5.946   3.728  0.6391  0.0094  0.0036
 1364TIP3    H125507   0.613   5.948   3.735  0.4886  0.3962 -1.8277
 1364TIP3    H225508   0.738   5.911   3.812 -1.0132  1.4595  1.2304
 1365TIP3   OH225509   2.648   4.625  13.044 -0.3742 -0.0761 -0.5183
 1365TIP3    H125510   2.575   4.626  12.982 -0.9517 -0.5767  0.1493
 1365TIP3    H225511   2.609   4.597  13.126  0.5567 -0.2469 -0.1317
 1366TIP3   OH225512   0.201   4.064   0.732 -0.5134  0.7100 -0.2153
 1366TIP3    H125513   0.191   3.976   0.696  0.2773  0.7832 -0.6365
 1366TIP3    H225514   0.269   4.055   0.800 -2.1152  0.5373  1.4014
 1367TIP3   OH225515   6.529   2.654  16.152  0.3933 -0.6133 -0.8700
 1367TIP3    H125516   6.520   2.720  16.221  0.3899 -0.3832 -1.0885
 1367TIP3    H225517   6.464   2.679  16.086  1.8360  0.4222 -1.9382
 1368TIP3   OH225518   0.504   0.116   3.289 -0.5493 -0.5795  0.3166
 1368TIP3    H125519   0.575   0.145   3.346 -2.3097  2.9730  0.8466
 1368TIP3    H225520   0.434   0.091   3.349 -0.4213 -2.3012 -0.2338
 1369TIP3   OH225521   4.487   0.095  12.362  0.3195  0.3823 -0.6475
 1369TIP3    H125522   4.554   0.129  12.421  1.3755 -0.4256 -1.3553
 1369TIP3    H225523   4.509   0.132  12.276  0.0203 -0.0849 -0.9311
 1370TIP3   OH225524   2.712   4.492   2.189 -0.1808  0.7268 -0.2010
 1370TIP3    H125525   2.707   4.576   2.235 -2.0313 -0.1423  1.2492
 1370TIP3    H225526   2.672   4.510   2.104  0.9860  1.7292 -0.5520
 1371TIP3   OH225527   4.569   6.252  11.615  1.0152  0.0918 -0.1221
 1371TIP3    H125528   4.538   6.257  11.524  3.7242  1.3182 -1.0197
 1371TIP3    H225529   4.575   6.159  11.633  1.9529 -0.1821 -1.7575
 1372TIP3   OH225530   3.602   0.035  10.935 -0.0838 -0.7581  0.5276
 1372TIP3    H125531   3.580   0.126  10.955 -1.7367 -0.8900 -0.5336
 1372TIP3    H225532   3.697   0.035  10.921 -0.2024  1.0063 -0.4447
 1373TIP3   OH225533   3.446   2.224   0.034  0.7610 -0.3252  0.0355
 1373TIP3    H125534   3.441   2.243   0.128  0.3017 -0.4856  0.0436
 1373TIP3    H225535   3.539   2.206   0.018  0.9848  0.5690  0.2878
 1374TIP3   OH225536   6.571   0.877  15.814 -0.2957 -0.5633  0.3188
 1374TIP3    H125537   6.579   0.918  15.728  1.2858 -0.3177  0.5830
 1374TIP3    H225538   6.532   0.791  15.795 -0.1531 -0.4275 -0.6169
 1375TIP3   OH225539   1.242   5.305   3.427 -0.3716 -0.1172 -0.7946
 1375TIP3    H125540   1.333   5.331   3.414 -0.0692  0.3049  1.7883
 1375TIP3    H225541   1.197   5.386   3.450 -1.5156 -0.2446 -2.5421
 1376TIP3   OH225542   4.066   0.850   0.733  0.7927  0.0008 -0.1602
 1376TIP3    H125543   4.085   0.942   0.750 -0.8505  0.5033 -0.9226
 1376TIP3    H225544   3.989   0.831   0.788  0.7994 -0.7613 -0.4097
 1377TIP3   OH225545   2.889   4.018   1.676  0.2408  0.5651  0.5201
 1377TIP3    H125546   2.937   3.943   1.642 -0.4411  1.6116 -2.9622
 1377TIP3    H225547   2.955   4.087   1.685 -0.0703  1.2493 -1.9009
 1378TIP3   OH225548   5.487   0.495  11.644  0.1361  0.0156 -0.3134
 1378TIP3    H125549   5.434   0.476  11.567 -0.5927 -0.5003  0.3033
 1378TIP3    H225550   5.509   0.588  11.637  0.9417 -0.2653 -1.6588
 1379TIP3   OH225551   0.053   2.222   2.407  0.1165  0.2285 -0.2332
 1379TIP3    H125552   0.073   2.280   2.481 -1.3447  1.7175 -0.9626
 1379TIP3    H225553   0.138   2.196   2.373  0.8121  1.6388  0.3722
 1380TIP3   OH225554   0.388   1.889   1.960 -0.2226 -0.5014 -0.0172
 1380TIP3    H125555   0.460   1.838   1.922 -1.1679 -1.5424 -0.4154
 1380TIP3    H225556   0.311   1.833   1.953 -1.8076  1.8440 -2.6528
 1381TIP3   OH225557   1.270   4.257   2.596 -0.3948 -0.2310  0.0148
 1381TIP3    H125558   1.293   4.233   2.686  1.7768 -4.2996 -1.4848
 1381TIP3    H225559   1.180   4.227   2.586  0.0995 -1.8633  0.2202
 1382TIP3   OH225560   4.471   3.824  16.009  0.1653  0.1984 -0.2252
 1382TIP3    H125561   4.474   3.731  15.988 -0.8964  0.5057 -1.7397
 1382TIP3    H225562   4.378   3.845  16.018  0.4035  1.0607  0.3698
 1383TIP3   OH225563   2.453   5.340  14.510  0.0520 -0.9273  0.5008
 1383TIP3    H125564   2.433   5.337  14.603 -0.6577  0.9576  0.4421
 1383TIP3    H225565   2.498   5.424  14.498  0.0114 -1.0909 -0.8720
 1384TIP3   OH225566   4.957   0.731  15.174  0.2669 -0.0454 -0.1688
 1384TIP3    H125567   4.907   0.771  15.246 -1.5824  0.1905 -1.5368
 1384TIP3    H225568   5.041   0.709  15.213 -0.7218 -0.0048  2.1114
 1385TIP3   OH225569   1.066   3.226   0.248 -0.0874  0.0427  0.1798
 1385TIP3    H125570   1.070   3.252   0.340 -2.4241 -1.7498  0.8307
 1385TIP3    H225571   1.128   3.153   0.241  0.4331  0.4757  0.2034
 1386TIP3   OH225572   5.928   4.745   0.887 -0.0641  0.5120 -0.3206
 1386TIP3    H125573   5.868   4.818   0.875  0.9225  1.2935 -0.5904
 1386TIP3    H225574   5.974   4.736   0.804  0.1948 -0.0790 -0.1247
 1387TIP3   OH225575   3.251   4.792  15.757 -0.1079 -0.1991  0.0146
 1387TIP3    H125576   3.253   4.843  15.676  1.2434  0.0691  0.1984
 1387TIP3    H225577   3.327   4.823  15.806 -1.3071  0.1275  1.6965
 1388TIP3   OH225578   3.374   1.215   5.211 -0.1074 -0.1213 -0.2538
 1388TIP3    H125579   3.328   1.204   5.127  0.6629  0.0534 -0.7033
 1388TIP3    H225580   3.461   1.178   5.196 -0.0686 -0.3791  0.5714
 1389TIP3   OH225581   5.100   3.252  17.072  0.1296  0.1505  0.6579
 1389TIP3    H125582   5.194   3.250  17.059  0.1682 -3.5457  1.0775
 1389TIP3    H225583   5.063   3.213  16.993 -1.0871  1.6560  0.4438
 1390TIP3   OH225584   0.064   1.582   2.892 -0.1740  0.3056  0.1313
 1390TIP3    H125585   0.078   1.500   2.940  0.0305  0.5762  0.5324
 1390TIP3    H225586   0.019   1.555   2.812 -2.3375  0.0898  1.3833
 1391TIP3   OH225587   2.611   1.048   3.105  0.0255 -0.2058  0.3584
 1391TIP3    H125588   2.538   1.091   3.150  1.5085  0.5992  2.0375
 1391TIP3    H225589   2.684   1.108   3.115  1.3383 -1.7211  0.0608
 1392TIP3   OH225590   6.246   2.759  13.894 -0.3056 -0.1867  0.2613
 1392TIP3    H125591   6.172   2.743  13.952  0.1949 -1.0692  0.6679
 1392TIP3    H225592   6.207   2.793  13.814 -1.2056 -1.2359  0.2426
 1393TIP3   OH225593   2.645   2.073   2.101  0.7565  0.6526  0.3258
 1393TIP3    H125594   2.600   1.997   2.138 -2.9469  2.1606 -0.8549
 1393TIP3    H225595   2.609   2.148   2.148  2.7887  1.8912  0.0023
 1394TIP3   OH225596   0.974   6.528   5.842  0.5209  0.2917 -0.1304
 1394TIP3    H125597   0.886   6.560   5.861 -0.4552 -2.3069 -0.0856
 1394TIP3    H225598   0.967   6.488   5.755  1.2184 -1.3395  0.5343
 1395TIP3   OH225599   5.816   6.077  15.738  0.2812 -0.1268 -0.1409
 1395TIP3    H125600   5.803   6.141  15.808  2.2687  2.1065 -1.6988
 1395TIP3    H225601   5.829   5.994  15.783  1.0530  1.1803  2.1196
 1396TIP3   OH225602   4.982   4.009   2.720  0.2973 -0.0346 -0.8635
 1396TIP3    H125603   4.899   4.048   2.693 -0.0723 -1.4167 -1.7593
 1396TIP3    H225604   4.959   3.923   2.754  0.9564  0.9978  2.3920
 1397TIP3   OH225605   4.941   0.141   0.777 -0.7129  0.2401  0.2595
 1397TIP3    H125606   4.898   0.133   0.692  1.0654  1.2508 -0.7540
 1397TIP3    H225607   5.030   0.109   0.763 -0.3937  0.4224  1.7392
 1398TIP3   OH225608   4.994   2.714   5.743  0.1543  0.4285 -0.3143
 1398TIP3    H125609   4.985   2.799   5.700 -0.5732  0.4096 -0.2064
 1398TIP3    H225610   4.942   2.655   5.690 -1.1261  0.4949  0.8502
 1399TIP3   OH225611   1.434   2.206   5.380 -0.0044  0.0782 -0.6715
 1399TIP3    H125612   1.345   2.231   5.357 -0.9720 -1.6753  0.9919
 1399TIP3    H225613   1.457   2.138   5.317  0.5402  1.2469 -1.7340
 1400TIP3   OH225614   3.825   0.101  17.003  0.0510  0.2725 -0.1090
 1400TIP3    H125615   3.870   0.186  17.008  3.9821 -1.7802  1.2911
 1400TIP3    H225616   3.856   0.062  16.922 -0.4166 -0.5037  0.0865
 1401TIP3   OH225617   1.696   1.735  12.935  0.7326  0.9598  0.5822
 1401TIP3    H125618   1.783   1.740  12.896  0.5067  1.4302  0.1398
 1401TIP3    H225619   1.685   1.642  12.955  0.7124  0.6527 -0.7933
 1402TIP3   OH225620   3.600   5.645  13.079  0.5718  0.5207 -0.3059
 1402TIP3    H125621   3.598   5.740  13.063 -0.7107  0.1984 -2.2536
 1402TIP3    H225622   3.673   5.633  13.140  1.1948  2.6757 -0.5542
 1403TIP3   OH225623   1.865   3.243  11.773 -0.1467  0.2539 -0.2732
 1403TIP3    H125624   1.940   3.235  11.714  0.0068  0.7358 -0.1471
 1403TIP3    H225625   1.816   3.319  11.740  0.3092  0.9484  0.6246
 1404TIP3   OH225626   5.055   5.114   3.173  0.7561  0.0503  0.1199
 1404TIP3    H125627   5.058   5.165   3.254 -1.0667  1.7426 -0.8327
 1404TIP3    H225628   5.019   5.030   3.198  0.2822  0.5383  1.0777
 1405TIP3   OH225629   4.875   0.256   2.082 -0.0152 -0.0306  0.1370
 1405TIP3    H125630   4.909   0.192   2.144 -0.2227 -0.0102  0.2762
 1405TIP3    H225631   4.813   0.207   2.028 -1.2606  0.3586  1.1870
 1406TIP3   OH225632   3.367   1.331   1.937 -0.8024 -0.0022  0.1403
 1406TIP3    H125633   3.336   1.330   1.846  0.0835  1.1810 -0.1859
 1406TIP3    H225634   3.287   1.324   1.990 -1.3533 -0.3290 -0.7215
 1407TIP3   OH225635   4.430   0.689  13.181  0.1394  0.3819  0.2664
 1407TIP3    H125636   4.375   0.731  13.115  0.9615  0.0629 -0.6404
 1407TIP3    H225637   4.369   0.646  13.240 -0.6643  1.7840  0.4832
 1408TIP3   OH225638   1.983   3.035  16.372 -0.1290 -0.0427  0.0656
 1408TIP3    H125639   2.073   3.021  16.341  0.3182  4.5455 -1.0659
 1408TIP3    H225640   1.937   3.071  16.296 -2.7007 -1.4352  0.9062
 1409TIP3   OH225641   1.776   2.844  15.356 -0.0456  0.0190  0.7954
 1409TIP3    H125642   1.849   2.905  15.362 -0.0715  0.1206  0.1070
 1409TIP3    H225643   1.722   2.878  15.284  0.7053 -1.6271 -0.5785
 1410TIP3   OH225644   0.156   3.121  14.456 -0.1886  0.0055 -0.7446
 1410TIP3    H125645   0.145   3.149  14.366  2.9798  2.0438 -0.5639
 1410TIP3    H225646   0.080   3.157  14.502 -1.3944 -0.3541 -2.4323
 1411TIP3   OH225647   0.191   2.466   5.887  0.2064 -0.0115 -0.0723
 1411TIP3    H125648   0.153   2.531   5.946  0.5072 -0.5185  0.6966
 1411TIP3    H225649   0.253   2.515   5.833 -0.7260  0.6180 -0.5755
 1412TIP3   OH225650   1.027   1.631  15.915  0.3585  0.0856 -0.3902
 1412TIP3    H125651   0.934   1.638  15.938  0.5398 -0.8092  0.6829
 1412TIP3    H225652   1.057   1.722  15.912  0.2180  0.3019  2.6936
 1413TIP3   OH225653   3.826   3.176   0.427  0.3222 -0.0277 -0.5081
 1413TIP3    H125654   3.869   3.193   0.510 -0.5165  0.8674 -0.2486
 1413TIP3    H225655   3.864   3.094   0.396  2.6702  1.0350 -0.5915
 1414TIP3   OH225656   3.483   3.497  13.453 -0.0076  0.0314  0.0967
 1414TIP3    H125657   3.531   3.514  13.534  1.0271 -0.8030 -0.3356
 1414TIP3    H225658   3.405   3.553  13.459 -0.0390 -0.1616  1.7550
 1415TIP3   OH225659   0.906   1.318   4.180 -0.7228  0.6521 -0.3059
 1415TIP3    H125660   0.850   1.377   4.129 -0.6378 -0.1770 -1.3745
 1415TIP3    H225661   0.883   1.230   4.149  1.9353  0.3567 -1.5420
 1416TIP3   OH225662   4.077   3.192   2.109  0.1758  0.4413  0.3569
 1416TIP3    H125663   4.071   3.230   2.197  2.0901 -0.5068  0.9415
 1416TIP3    H225664   4.105   3.264   2.054 -0.3308  0.8738  0.6587
 1417TIP3   OH225665   5.593   5.290  11.350 -0.0865  0.0335  0.3143
 1417TIP3    H125666   5.612   5.202  11.320 -2.0407 -0.3589  0.1582
 1417TIP3    H225667   5.592   5.343  11.270 -1.1168 -0.2285  0.1455
 1418TIP3   OH225668   4.235   2.247   1.880 -0.3825  0.3731 -0.1461
 1418TIP3    H125669   4.182   2.265   1.803  1.1449  1.3795 -0.9765
 1418TIP3    H225670   4.206   2.310   1.945  1.3152  2.4328 -1.3346
 1419TIP3   OH225671   0.783   0.789  16.190 -0.7311 -0.8313 -0.0124
 1419TIP3    H125672   0.724   0.724  16.152 -1.2509 -0.0435 -0.5590
 1419TIP3    H225673   0.865   0.777  16.141 -0.6241 -1.5059  0.3266
 1420TIP3   OH225674   6.159   6.576   1.569 -0.6364  0.1736  0.5722
 1420TIP3    H125675   6.174   6.487   1.602 -0.1160 -0.2511 -0.7869
 1420TIP3    H225676   6.084   6.568   1.511  0.3222  0.3249 -0.7098
 1421TIP3   OH225677   0.435   0.884  16.505 -0.0260  0.0234  0.0752
 1421TIP3    H125678   0.413   0.869  16.597  1.8345  0.2998  0.5829
 1421TIP3    H225679   0.518   0.839  16.491 -0.9689 -1.1897 -1.8540
 1422TIP3   OH225680   0.286   1.260   2.233  0.5182 -0.5587 -0.0493
 1422TIP3    H125681   0.224   1.202   2.188 -0.5325 -0.1386  0.8436
 1422TIP3    H225682   0.349   1.201   2.274  1.4604 -0.9537 -2.0163
 1423TIP3   OH225683   6.775   1.154  14.691  0.1644  0.1131 -0.7033
 1423TIP3    H125684   6.810   1.065  14.687 -0.7592 -0.2112 -1.7308
 1423TIP3    H225685   6.686   1.143  14.723  0.8747  0.9208  1.6855
 1424TIP3   OH225686   5.036   2.691  16.121  0.2032  0.1837  0.2413
 1424TIP3    H125687   5.118   2.675  16.168  0.7679  0.0268 -0.7827
 1424TIP3    H225688   5.030   2.787  16.117  0.5921  0.1930 -0.1281
 1425TIP3   OH225689   0.627   3.093  16.228 -0.0556 -0.3289 -0.5602
 1425TIP3    H125690   0.577   3.091  16.309 -0.0632 -0.4097 -0.5680
 1425TIP3    H225691   0.649   3.001  16.210  2.0353 -0.1043  0.6510
 1426TIP3   OH225692   2.878   3.589   0.752 -0.3726  0.0861 -0.6372
 1426TIP3    H125693   2.879   3.543   0.836 -0.5238 -0.8779 -1.1554
 1426TIP3    H225694   2.786   3.611   0.737 -0.5826 -1.2173 -1.3339
 1427TIP3   OH225695   2.150   2.690  14.105 -0.4812  0.1741  0.1804
 1427TIP3    H125696   2.136   2.627  14.175  0.6285 -0.8658 -0.5142
 1427TIP3    H225697   2.126   2.774  14.144  0.3712 -0.3456  1.8784
 1428TIP3   OH225698   1.595   5.845   4.369  0.0045  0.2149 -0.2077
 1428TIP3    H125699   1.644   5.833   4.287 -0.0684 -1.9876  0.0559
 1428TIP3    H225700   1.654   5.815   4.437 -1.1804 -1.1061  0.2490
 1429TIP3   OH225701   4.446   1.765  15.660  0.3898  0.3730 -0.3737
 1429TIP3    H125702   4.525   1.718  15.637  0.4209 -0.2432  0.9700
 1429TIP3    H225703   4.475   1.835  15.719 -0.2954 -1.1096  1.7807
 1430TIP3   OH225704   4.979   3.345   0.401 -0.0769  0.1243 -0.2104
 1430TIP3    H125705   4.897   3.362   0.355 -0.3196  1.7772  0.7935
 1430TIP3    H225706   5.045   3.335   0.332 -0.8196  0.4704 -0.9669
 1431TIP3   OH225707   1.959   2.578  12.087  0.0647  0.0931 -0.1900
 1431TIP3    H125708   1.943   2.661  12.041  0.5222  0.6539  0.6554
 1431TIP3    H225709   2.031   2.538  12.038  1.2006  1.1368  0.5967
 1432TIP3   OH225710   2.672   3.197   3.158 -0.4151 -0.5038 -0.5181
 1432TIP3    H125711   2.752   3.246   3.178 -1.3660  1.8200 -2.1348
 1432TIP3    H225712   2.683   3.113   3.203  2.3905  0.2279  0.2687
 1433TIP3   OH225713   3.226   5.181   5.846  0.7816 -0.0344 -0.5716
 1433TIP3    H125714   3.227   5.206   5.939  0.5892  1.1824 -0.9005
 1433TIP3    H225715   3.236   5.086   5.848  0.2463 -0.0753  0.7192
 1434TIP3   OH225716   3.310   0.328  12.924  0.6645 -0.4623  0.2259
 1434TIP3    H125717   3.262   0.246  12.927  0.8419 -0.5330  3.0596
 1434TIP3    H225718   3.391   0.310  12.973  1.7933  0.7413 -1.1514
 1435TIP3   OH225719   5.900   6.579   3.555 -0.1626 -0.4735  0.0210
 1435TIP3    H125720   5.827   6.519   3.571  0.7318 -2.3441 -2.4579
 1435TIP3    H225721   5.976   6.533   3.591 -0.1696  1.5052  2.6728
 1436TIP3   OH225722   0.197   3.165   5.149  0.7895 -0.1242  0.1936
 1436TIP3    H125723   0.216   3.118   5.067  0.8345 -0.1506  0.2197
 1436TIP3    H225724   0.283   3.193   5.181  0.7752 -0.1502  0.2545
 1437TIP3   OH225725   1.443   2.237   1.755  0.6892 -0.4235  0.0628
 1437TIP3    H125726   1.440   2.177   1.829  0.8923  0.5818  0.9014
 1437TIP3    H225727   1.401   2.189   1.683  0.0984 -1.2445  0.9440
 1438TIP3   OH225728   5.933   6.604   5.132 -0.3036  0.8056  0.0236
 1438TIP3    H125729   5.859   6.593   5.072  0.0131 -1.9034  0.0655
 1438TIP3    H225730   6.009   6.614   5.074 -0.2261 -0.0846 -0.0327
 1439TIP3   OH225731   4.802   4.764   6.207 -0.2511  0.2258  0.2293
 1439TIP3    H125732   4.834   4.720   6.129 -0.8333  1.4683 -0.7201
 1439TIP3    H225733   4.845   4.849   6.207 -1.5036  0.8715  0.3770
 1440TIP3   OH225734   0.983   1.373   3.510  0.3695 -0.0712 -0.1809
 1440TIP3    H125735   0.954   1.454   3.550  0.6074 -0.0027 -0.1448
 1440TIP3    H225736   0.929   1.305   3.552 -1.2142  0.2620 -1.6523
 1441TIP3   OH225737   4.994   1.030  13.061 -0.3207  0.6949  0.4859
 1441TIP3    H125738   5.026   1.083  12.989  1.6474  0.6788  1.3073
 1441TIP3    H225739   5.047   0.949  13.057 -3.4961 -1.3891 -0.9716
 1442TIP3   OH225740   2.641   3.564  17.013 -0.7308 -0.1071 -0.2710
 1442TIP3    H125741   2.718   3.572  17.069  0.0119  1.2131 -1.4565
 1442TIP3    H225742   2.575   3.523  17.069  0.6404 -0.7218  0.9343
 1443TIP3   OH225743   4.087   1.088  11.179  0.0227 -0.1718 -0.2107
 1443TIP3    H125744   4.172   1.092  11.222 -0.3516  0.3754  0.5088
 1443TIP3    H225745   4.073   1.177  11.144 -0.6382  0.0041  0.4700
 1444TIP3   OH225746   3.383   3.753  16.030 -0.2092  0.3178  0.2227
 1444TIP3    H125747   3.437   3.823  15.994  0.1065  0.6264  1.2742
 1444TIP3    H225748   3.443   3.678  16.037 -0.4726  0.0231 -0.6293
 1445TIP3   OH225749   6.126   4.455   0.436 -0.1017 -1.1038  0.3511
 1445TIP3    H125750   6.156   4.381   0.383 -0.0645 -1.1545  0.4426
 1445TIP3    H225751   6.128   4.422   0.526 -1.1718 -1.3655  0.2939
 1446TIP3   OH225752   0.505   5.262   1.514  0.6651 -0.5221  0.1644
 1446TIP3    H125753   0.600   5.263   1.529  0.5163  0.1929  1.1439
 1446TIP3    H225754   0.470   5.319   1.583 -0.5183 -1.1773  0.1147
 1447TIP3   OH225755   6.486   3.667   0.295  0.4292 -0.6960 -0.0008
 1447TIP3    H125756   6.539   3.603   0.247  0.6906  1.2260 -2.3560
 1447TIP3    H225757   6.399   3.661   0.255  0.3071  0.0529  0.1566
 1448TIP3   OH225758   1.614   3.569   3.355  0.3035  0.6509 -0.0349
 1448TIP3    H125759   1.595   3.530   3.440 -1.8896  0.8123 -0.4028
 1448TIP3    H225760   1.641   3.658   3.375  0.7514  0.3876  0.5483
 1449TIP3   OH225761   5.467   3.246   5.454 -0.0950  0.4216 -0.0463
 1449TIP3    H125762   5.490   3.243   5.361 -0.6221  0.0105 -0.1648
 1449TIP3    H225763   5.479   3.156   5.484 -2.6985 -0.0871 -0.3922
 1450TIP3   OH225764   1.189   3.584  11.207 -0.1460 -0.0809 -0.3326
 1450TIP3    H125765   1.133   3.636  11.264  1.6516  0.2617  1.2032
 1450TIP3    H225766   1.237   3.526  11.266  1.6302  0.1415 -1.4821
 1451TIP3   OH225767   6.543   5.957  15.296 -0.1208  0.1186  0.3839
 1451TIP3    H125768   6.512   5.880  15.344 -1.7728  0.3148 -0.3245
 1451TIP3    H225769   6.519   5.940  15.205  0.0946  1.1798  0.1219
 1452TIP3   OH225770   1.268   3.219   2.115 -0.1586 -0.2503  0.1541
 1452TIP3    H125771   1.339   3.181   2.064  0.3435  1.5482 -0.5288
 1452TIP3    H225772   1.190   3.208   2.060 -0.0681 -0.5441  0.0840
 1453TIP3   OH225773   3.378   0.218  11.120 -0.3421  0.4234  0.8387
 1453TIP3    H125774   3.392   0.123  11.122  0.0232  0.4893  1.5865
 1453TIP3    H225775   3.450   0.251  11.067 -0.6810  0.2462  0.2650
 1454TIP3   OH225776   3.474   5.154   0.883 -0.3137 -0.0544  0.1407
 1454TIP3    H125777   3.442   5.215   0.817 -0.1746  0.0984  0.2153
 1454TIP3    H225778   3.560   5.126   0.851 -0.6398 -0.6911 -0.2081
 1455TIP3   OH225779   2.154   3.664  16.149  0.3866 -0.8589  0.2437
 1455TIP3    H125780   2.180   3.573  16.137  1.1385 -0.5438 -0.6187
 1455TIP3    H225781   2.229   3.714  16.117  0.4956  0.0610  1.8525
 1456TIP3   OH225782   4.682   4.832   5.439  0.2272  0.5457  0.2325
 1456TIP3    H125783   4.697   4.912   5.389 -1.0187  0.5316 -0.1884
 1456TIP3    H225784   4.769   4.797   5.456  0.6942  0.4624 -2.0939
 1457TIP3   OH225785   0.267   4.089  14.508  0.0290 -0.8473  0.4154
 1457TIP3    H125786   0.339   4.081  14.570  1.8329 -0.4506 -1.5738
 1457TIP3    H225787   0.188   4.089  14.562  1.6443  1.4347  2.8503
 1458TIP3   OH225788   6.345   5.281  15.630  0.7806 -0.0024  0.3968
 1458TIP3    H125789   6.318   5.240  15.712  0.7816 -0.3531  0.2232
 1458TIP3    H225790   6.332   5.213  15.564  1.2561  0.1145  0.1824
 1459TIP3   OH225791   5.170   4.718  14.925  0.3834 -0.2713  0.4685
 1459TIP3    H125792   5.250   4.711  14.872  0.9913 -0.1986  1.3537
 1459TIP3    H225793   5.130   4.799  14.897  0.0368 -0.8541 -0.7712
 1460TIP3   OH225794   3.865   1.738   0.769  0.2667 -0.2785 -0.0119
 1460TIP3    H125795   3.923   1.814   0.763  0.2351 -0.3907 -1.7806
 1460TIP3    H225796   3.844   1.716   0.679  0.4441 -2.5369  0.4563
 1461TIP3   OH225797   5.269   4.940  13.597 -0.1367 -0.1205  0.6719
 1461TIP3    H125798   5.350   4.961  13.644 -0.6299 -1.8271  2.3445
 1461TIP3    H225799   5.298   4.886  13.523  0.3891  0.4750  0.4369
 1462TIP3   OH225800   3.011   6.220   3.087  0.3281  0.0976  0.4345
 1462TIP3    H125801   2.952   6.234   3.161  0.9688 -0.0171  0.9645
 1462TIP3    H225802   3.020   6.124   3.082 -1.4141 -0.0123 -1.1244
 1463TIP3   OH225803   3.638   4.051   5.144 -0.2910 -0.1611  0.1844
 1463TIP3    H125804   3.672   4.136   5.116 -2.5065  0.1244 -1.8765
 1463TIP3    H225805   3.696   3.987   5.103  1.4493  0.3294  1.8338
 1464TIP3   OH225806   0.311   5.586  12.810  0.9970  0.3418 -0.2592
 1464TIP3    H125807   0.346   5.659  12.862  0.9051 -0.5965  1.1519
 1464TIP3    H225808   0.323   5.509  12.866  0.7139 -0.6616 -1.5649
 1465TIP3   OH225809   3.354   0.817  13.102 -0.1412 -0.0135 -0.0765
 1465TIP3    H125810   3.449   0.811  13.098 -0.0810  0.3452  0.7364
 1465TIP3    H225811   3.328   0.842  13.013  0.6176  1.1452  0.0147
 1466TIP3   OH225812   3.852   5.607  12.099  0.8837  0.5235  0.5040
 1466TIP3    H125813   3.818   5.696  12.111 -0.3302  0.1253  0.1150
 1466TIP3    H225814   3.855   5.570  12.187  0.0574  0.4785  0.5138
 1467TIP3   OH225815   0.506   4.612  10.801 -0.0678  0.7310  0.2283
 1467TIP3    H125816   0.423   4.649  10.770  0.5039  1.7108 -0.1603
 1467TIP3    H225817   0.571   4.646  10.740  0.8133  1.1641  1.3951
 1468TIP3   OH225818   6.771   4.107  11.549  0.0711  0.5111  0.5249
 1468TIP3    H125819   6.851   4.056  11.538 -1.2957 -1.7695  0.9992
 1468TIP3    H225820   6.721   4.091  11.469 -1.1130 -0.2716  1.4092
 1469TIP3   OH225821   4.868   6.629   2.150  0.0878  0.1854 -0.3646
 1469TIP3    H125822   4.779   6.623   2.184  0.6443 -0.0036  1.1406
 1469TIP3    H225823   4.910   6.548   2.179  0.2472 -0.5555 -2.6322
 1470TIP3   OH225824   1.396   4.239   3.547 -0.2381 -0.1508 -0.6719
 1470TIP3    H125825   1.328   4.177   3.522 -1.9796  1.2031  0.5439
 1470TIP3    H225826   1.402   4.299   3.473 -0.1033 -0.4921 -0.9381
 1471TIP3   OH225827   5.677   1.898  10.629 -0.7175 -0.8660  0.7978
 1471TIP3    H125828   5.668   1.819  10.575 -1.5362 -0.1784 -0.0944
 1471TIP3    H225829   5.690   1.865  10.718 -1.6097 -1.9997  0.5138
 1472TIP3   OH225830   3.321   3.548   5.227  0.2335  0.1846  0.3610
 1472TIP3    H125831   3.260   3.479   5.254 -0.0088  1.1921  2.4547
 1472TIP3    H225832   3.378   3.506   5.162 -1.4048 -1.3161 -0.1401
 1473TIP3   OH225833   4.250   3.160   2.860  0.0028 -0.2323 -0.4517
 1473TIP3    H125834   4.238   3.237   2.804  0.0949  0.7037  0.7942
 1473TIP3    H225835   4.163   3.122   2.868  0.1876 -1.1115 -2.2412
 1474TIP3   OH225836   3.722   5.381   0.237  0.0013  0.3053  0.2262
 1474TIP3    H125837   3.760   5.354   0.154  1.7195  0.8133  0.8258
 1474TIP3    H225838   3.761   5.322   0.302 -0.3627  0.7237  0.8320
 1475TIP3   OH225839   5.807   2.548   0.266  0.3379 -0.0662 -0.1106
 1475TIP3    H125840   5.796   2.454   0.280  2.2611 -0.4160 -0.8574
 1475TIP3    H225841   5.725   2.575   0.223 -0.8559 -1.0863  1.4638
 1476TIP3   OH225842   1.857   5.323  16.756 -0.1996  0.2988  0.1786
 1476TIP3    H125843   1.901   5.296  16.837 -1.7301  1.5236  1.4327
 1476TIP3    H225844   1.784   5.262  16.747  0.2587 -0.1484 -0.5593
 1477TIP3   OH225845   1.630   1.018   0.745  0.0883  0.3957  0.1103
 1477TIP3    H125846   1.715   1.062   0.753 -0.7086  1.8801  0.8026
 1477TIP3    H225847   1.574   1.082   0.702 -0.7597 -0.4555 -0.0677
 1478TIP3   OH225848   0.536   3.667  13.933 -0.1136 -0.6758  0.3605
 1478TIP3    H125849   0.511   3.695  13.845  0.3512  0.3988  0.5603
 1478TIP3    H225850   0.455   3.672  13.984 -0.2803 -0.8297  0.1121
 1479TIP3   OH225851   5.408   2.327   0.312  0.1334 -0.4835 -0.1809
 1479TIP3    H125852   5.484   2.341   0.368  1.4870 -2.3017 -1.4931
 1479TIP3    H225853   5.344   2.283   0.369  0.6211 -0.2888  0.5235
 1480TIP3   OH225854   1.744   2.408   6.208 -0.0488  0.7241 -0.1996
 1480TIP3    H125855   1.803   2.341   6.242  1.7273  1.5586 -1.5950
 1480TIP3    H225856   1.731   2.468   6.281 -0.9074 -0.6054  0.7709
 1481TIP3   OH225857   5.360   6.612  13.838  0.5897 -0.5566  0.1321
 1481TIP3    H125858   5.427   6.581  13.900 -0.2024 -2.3295  0.1239
 1481TIP3    H225859   5.312   6.679  13.887  1.4074 -0.3334  0.6477
 1482TIP3   OH225860   1.745   4.039   2.605 -0.0468  0.0403 -0.1430
 1482TIP3    H125861   1.747   4.134   2.599  0.3321 -0.0765 -2.6902
 1482TIP3    H225862   1.652   4.017   2.614 -0.5006  0.5448 -3.0826
 1483TIP3   OH225863   6.441   4.100  14.492  0.2514  0.6671  0.6556
 1483TIP3    H125864   6.348   4.085  14.509  0.8507 -0.2926  3.2770
 1483TIP3    H225865   6.453   4.194  14.507 -0.1319  0.6425  1.1205
 1484TIP3   OH225866   0.916   3.194   0.713  0.6082  0.1714 -0.0071
 1484TIP3    H125867   0.828   3.157   0.723  1.0035 -0.3161  1.8036
 1484TIP3    H225868   0.906   3.285   0.741  0.8324 -0.0748  0.8706
 1485TIP3   OH225869   4.406   2.281  12.516  0.0364  0.0929  0.3861
 1485TIP3    H125870   4.372   2.192  12.528  0.8642 -0.1388  1.0599
 1485TIP3    H225871   4.408   2.293  12.421 -2.4930  0.3377  0.3338
 1486TIP3   OH225872   2.153   1.631  14.471  0.2116  0.6828  1.0314
 1486TIP3    H125873   2.118   1.546  14.496  1.0790 -0.2792 -0.8831
 1486TIP3    H225874   2.219   1.611  14.404  0.4242  2.8575  0.5449
 1487TIP3   OH225875   5.303   0.050   5.978  0.0566 -0.1092 -0.2784
 1487TIP3    H125876   5.334   0.139   5.961 -0.2214 -0.2117 -1.3552
 1487TIP3    H225877   5.372   0.010   6.031 -0.0123  0.8803  0.5727
 1488TIP3   OH225878   4.191   4.770   3.779 -0.0235  0.5322 -0.0306
 1488TIP3    H125879   4.102   4.787   3.749 -0.5862 -1.8124  0.1777
 1488TIP3    H225880   4.243   4.764   3.698 -0.7043 -1.3649 -0.3629
 1489TIP3   OH225881   5.068   0.263  10.866  0.1721  0.2038 -0.4263
 1489TIP3    H125882   4.985   0.216  10.878  1.7191 -2.0774  1.8062
 1489TIP3    H225883   5.073   0.323  10.940  0.7030  0.0143 -0.3039
 1490TIP3   OH225884   6.654   2.610   6.328 -0.2230  0.3548 -0.4159
 1490TIP3    H125885   6.658   2.547   6.400 -3.9007  0.8670  0.3686
 1490TIP3    H225886   6.741   2.650   6.326  0.6734 -1.3179  2.1954
 1491TIP3   OH225887   4.205   3.770   2.933 -0.2353 -0.3397 -0.5607
 1491TIP3    H125888   4.196   3.835   2.864 -1.1683  1.0777  0.8717
 1491TIP3    H225889   4.117   3.733   2.943 -0.3865  0.3666  0.7451
 1492TIP3   OH225890   0.747   3.516   5.375  0.4122  0.9832  0.6258
 1492TIP3    H125891   0.819   3.454   5.385  1.4194  2.1851  0.9193
 1492TIP3    H225892   0.717   3.504   5.285  0.3609 -0.1780  0.7967
 1493TIP3   OH225893   4.978   6.735  14.324  0.0304  0.0057  0.2517
 1493TIP3    H125894   4.961   6.821  14.363 -1.8301 -0.0689 -0.3409
 1493TIP3    H225895   4.948   6.673  14.390 -0.0605 -0.1663  0.0472
 1494TIP3   OH225896   3.822   0.004  12.552 -0.2784  0.4620  0.6550
 1494TIP3    H125897   3.757  -0.021  12.618 -1.3024  0.4053 -0.3472
 1494TIP3    H225898   3.819  -0.067  12.487 -1.0203  1.6516 -0.6579
 1495TIP3   OH225899   3.871   4.819   4.491  0.6475  0.7408 -0.5518
 1495TIP3    H125900   3.881   4.731   4.526 -0.8017  0.6219 -0.3961
 1495TIP3    H225901   3.923   4.820   4.411 -1.0387 -0.9106 -1.6907
 1496TIP3   OH225902   2.919   3.979   5.287 -0.5074 -0.3584 -0.3778
 1496TIP3    H125903   2.927   4.008   5.196  0.3423 -0.5357 -0.3588
 1496TIP3    H225904   2.846   4.031   5.322  0.0234  0.6728 -0.7791
 1497TIP3   OH225905   5.401   1.123  10.429  0.4055 -0.4285  0.7436
 1497TIP3    H125906   5.479   1.081  10.467  0.8287 -2.9161 -2.6904
 1497TIP3    H225907   5.330   1.062  10.449  0.0156  0.0054  0.6580
 1498TIP3   OH225908   4.825   3.102   4.125  0.4872  0.6059 -0.3803
 1498TIP3    H125909   4.868   3.119   4.041 -0.1468  1.0495 -0.6177
 1498TIP3    H225910   4.861   3.018   4.154  1.9618  1.2749 -0.2804
 1499TIP3   OH225911   5.110   1.587   5.110  0.0480 -0.4606  0.0771
 1499TIP3    H125912   5.123   1.493   5.097 -1.2002 -0.6332 -0.0084
 1499TIP3    H225913   5.187   1.616   5.159  0.6016 -1.4615 -0.2004
 1500TIP3   OH225914   4.008   5.850  14.254 -1.6196 -0.8540 -0.0576
 1500TIP3    H125915   3.988   5.928  14.306 -2.3045 -1.2792  0.3208
 1500TIP3    H225916   4.007   5.881  14.164 -1.2824 -0.2937  0.1261
 1501TIP3   OH225917   0.411   5.608   3.508 -0.8151  0.0869  0.1005
 1501TIP3    H125918   0.344   5.545   3.480  1.0439 -1.9542  0.0912
 1501TIP3    H225919   0.460   5.628   3.428 -0.7018  0.7066  0.3229
 1502TIP3   OH225920   4.484   6.037   4.701  0.0334 -0.1882  0.3553
 1502TIP3    H125921   4.522   6.019   4.787  0.3618  0.7357  0.4191
 1502TIP3    H225922   4.557   6.026   4.640  0.2933  1.0305  0.4166
 1503TIP3   OH225923   3.594   4.049   4.802  0.4765 -0.5015  0.2447
 1503TIP3    H125924   3.628   4.111   4.868  1.0650  0.3344 -0.8342
 1503TIP3    H225925   3.559   3.977   4.854 -0.8881  1.0693  1.5705
 1504TIP3   OH225926   6.075   3.370  11.925  0.1628  0.0754 -0.0499
 1504TIP3    H125927   6.023   3.397  12.000  0.6612 -1.2435  0.7820
 1504TIP3    H225928   6.104   3.452  11.885  0.0482  0.7846  1.2961
 1505TIP3   OH225929   1.683   0.413  12.619  0.2226  0.9375 -0.6731
 1505TIP3    H125930   1.682   0.509  12.623 -3.1552  1.0698 -2.4641
 1505TIP3    H225931   1.639   0.385  12.699  0.2205  0.9405 -0.6737
 1506TIP3   OH225932   1.045   4.665   1.028 -0.5738 -0.0027  0.2912
 1506TIP3    H125933   1.044   4.570   1.043 -0.0566 -0.0746 -0.1361
 1506TIP3    H225934   1.011   4.676   0.939  0.0946  0.1640  0.0566
 1507TIP3   OH225935   6.103   3.758   0.421 -0.0330 -0.6253 -0.0219
 1507TIP3    H125936   6.088   3.663   0.420  0.1525 -0.6461 -0.8048
 1507TIP3    H225937   6.016   3.795   0.439 -0.0649 -0.9526  0.4983
 1508TIP3   OH225938   6.629   6.659  14.993  0.0020 -0.1549  0.0437
 1508TIP3    H125939   6.658   6.750  15.001  1.1851 -0.3479 -1.7468
 1508TIP3    H225940   6.534   6.663  15.004  0.3849  0.7995  3.6370
 1509TIP3   OH225941   6.247   5.904   3.197  0.4387 -0.0746  0.1556
 1509TIP3    H125942   6.178   5.883   3.260  1.4405  0.9576  1.6242
 1509TIP3    H225943   6.305   5.828   3.197 -0.0511 -0.4474 -0.1923
 1510TIP3   OH225944   2.520   4.307  13.872 -0.2307  0.3088 -0.0677
 1510TIP3    H125945   2.484   4.221  13.847  0.4815 -0.1790  0.5472
 1510TIP3    H225946   2.585   4.325  13.804 -0.7934  0.6437 -0.5260
 1511TIP3   OH225947   6.472   4.607  14.482  0.1931 -0.6028  0.3445
 1511TIP3    H125948   6.450   4.546  14.553 -0.9383 -0.3713  0.2066
 1511TIP3    H225949   6.429   4.571  14.405 -1.7318  1.1371  0.5628
 1512TIP3   OH225950   5.848   1.051   1.325  0.1207  0.1242  0.6672
 1512TIP3    H125951   5.874   1.142   1.340  1.5505 -0.1233 -0.2681
 1512TIP3    H225952   5.852   1.011   1.412  2.1061  0.3058  0.6941
 1513TIP3   OH225953   5.713   6.707   5.500 -0.1000  0.4750 -0.4634
 1513TIP3    H125954   5.737   6.658   5.579  2.9067  0.9323 -1.0232
 1513TIP3    H225955   5.693   6.795   5.531  1.3667  0.7359 -0.2134
 1514TIP3   OH225956   3.867   1.435  11.419  0.0972  0.4143  0.5412
 1514TIP3    H125957   3.854   1.346  11.384  0.8340  0.4870  0.0550
 1514TIP3    H225958   3.899   1.485  11.344 -2.2661  1.6115  0.3040
 1515TIP3   OH225959   5.287   4.849  16.657 -0.6076  0.2956 -0.4663
 1515TIP3    H125960   5.213   4.818  16.606 -0.9162 -0.7450  0.5822
 1515TIP3    H225961   5.300   4.782  16.724 -0.7671  2.0172  1.3528
 1516TIP3   OH225962   3.577   3.813   4.236 -0.3182 -0.2576  0.0914
 1516TIP3    H125963   3.550   3.731   4.195 -1.0094  0.0909 -0.1706
 1516TIP3    H225964   3.566   3.879   4.166  1.5250 -0.1499 -0.1242
 1517TIP3   OH225965   5.301   2.959  12.874 -0.1100  0.2764  0.5365
 1517TIP3    H125966   5.310   2.896  12.945  0.5827 -1.7333 -1.2890
 1517TIP3    H225967   5.226   2.928  12.823 -2.1916  3.1034  1.7415
 1518TIP3   OH225968   6.355   3.450  12.926  0.8877 -0.2806 -0.2391
 1518TIP3    H125969   6.341   3.364  12.887 -1.5258  0.2803 -0.7087
 1518TIP3    H225970   6.365   3.509  12.852 -0.4004  0.2830  0.0273
 1519TIP3   OH225971   3.175   5.669   4.995 -0.3320  0.3393  0.1882
 1519TIP3    H125972   3.254   5.615   4.997 -0.2250  0.4807 -0.1966
 1519TIP3    H225973   3.179   5.719   5.076 -1.7151 -2.0453  1.7960
 1520TIP3   OH225974   0.322   5.167  13.755  0.2225 -0.5887 -0.3091
 1520TIP3    H125975   0.373   5.089  13.777 -0.4775 -1.0682 -0.3451
 1520TIP3    H225976   0.346   5.186  13.664  0.2482 -0.8820 -0.3651
 1521TIP3   OH225977   5.167   4.596   4.963 -0.0724  0.0831 -0.0237
 1521TIP3    H125978   5.193   4.568   4.875  1.2338 -1.2724  0.7578
 1521TIP3    H225979   5.155   4.514   5.011 -2.2491  0.7677  0.6796
 1522TIP3   OH225980   3.378   2.926  12.545 -0.6661  0.4583  0.4424
 1522TIP3    H125981   3.344   2.888  12.626 -0.4780 -0.4673  0.0944
 1522TIP3    H225982   3.420   3.007  12.573  0.3277 -0.3751  1.4275
 1523TIP3   OH225983   4.918   3.196   0.090  0.6728  0.2853  0.2093
 1523TIP3    H125984   4.904   3.281   0.132 -1.4025  0.3702 -0.5896
 1523TIP3    H225985   5.002   3.205   0.046  1.4161  1.2418  1.7710
 1524TIP3   OH225986   3.623   6.392   0.832 -0.1728  0.0384  0.0922
 1524TIP3    H125987   3.717   6.397   0.846 -0.5622  1.7847  2.3731
 1524TIP3    H225988   3.587   6.366   0.917 -1.8758  1.2871 -0.2093
 1525TIP3   OH225989   1.040   5.245  13.804 -0.3115  0.1483  0.0265
 1525TIP3    H125990   1.076   5.185  13.869 -0.5181 -0.7909 -0.7094
 1525TIP3    H225991   0.975   5.296  13.851 -0.9739 -1.0247  0.4030
 1526TIP3   OH225992   0.681   5.530   0.640  0.3034 -0.0262 -0.8902
 1526TIP3    H125993   0.616   5.509   0.707  0.6882 -2.5218 -1.2207
 1526TIP3    H225994   0.683   5.452   0.585  4.3090 -0.4732 -0.2575
 1527TIP3   OH225995   2.002   5.498  16.155  0.1101 -0.4571 -0.2543
 1527TIP3    H125996   2.090   5.464  16.138  0.1657 -0.9692  1.0145
 1527TIP3    H225997   1.948   5.421  16.166 -0.3554 -0.1376 -0.2953
 1528TIP3   OH225998   0.967   2.659  11.299  0.2787  0.1794  0.3481
 1528TIP3    H125999   1.026   2.602  11.348 -0.7303 -1.7896 -0.6668
 1528TIP3    H226000   0.966   2.622  11.211 -4.1657 -1.2066  0.8776
 1529TIP3   OH226001   3.861   5.095   4.438 -0.0022  0.2267  0.8527
 1529TIP3    H126002   3.857   5.104   4.342  1.3711 -0.3744  0.7392
 1529TIP3    H226003   3.826   5.008   4.455  0.4263  0.0557  0.8502
 1530TIP3   OH226004   1.734   4.791  11.840 -0.5313  0.1152 -0.3819
 1530TIP3    H126005   1.678   4.717  11.817 -1.8224  1.1816 -0.7488
 1530TIP3    H226006   1.696   4.865  11.793 -0.1691  1.3085  1.1709
 1531TIP3   OH226007   4.261   1.269  13.759 -0.9052 -0.0616  0.2712
 1531TIP3    H126008   4.288   1.218  13.836  0.6409 -0.6475 -0.6355
 1531TIP3    H226009   4.191   1.217  13.720 -0.3756 -0.7385  0.2089
 1532TIP3   OH226010   5.264   0.360  17.051  0.4340  0.7814 -0.7065
 1532TIP3    H126011   5.302   0.272  17.058  0.3183  0.7294 -0.7252
 1532TIP3    H226012   5.326   0.417  17.096 -0.0171  0.5390  0.2237
 1533TIP3   OH226013   5.223   4.073  11.872  0.4442 -0.0998  0.0722
 1533TIP3    H126014   5.258   4.160  11.892  1.7470 -0.3104 -1.1744
 1533TIP3    H226015   5.234   4.064  11.777 -3.5657  0.0176 -0.4909
 1534TIP3   OH226016   6.377   4.771   0.980 -0.0128  0.3884 -0.0099
 1534TIP3    H126017   6.370   4.771   1.075  0.7081  1.7638  0.0542
 1534TIP3    H226018   6.467   4.798   0.962 -0.1720  0.2532 -1.0777
 1535TIP3   OH226019   1.836   2.789  11.747  0.1378 -0.2341  0.1189
 1535TIP3    H126020   1.799   2.846  11.814  0.2688 -0.2835  0.2334
 1535TIP3    H226021   1.801   2.823  11.664 -1.3401 -1.1588  0.3381
 1536TIP3   OH226022   1.910   2.636   1.641  0.2266 -0.1650 -0.1252
 1536TIP3    H126023   1.977   2.570   1.661  0.7246  0.2749 -0.3237
 1536TIP3    H226024   1.889   2.675   1.726  0.2077 -0.3215 -0.0584
 1537TIP3   OH226025   1.560   2.720  11.996 -0.3590 -0.5846  0.4147
 1537TIP3    H126026   1.606   2.661  11.937 -1.9167 -1.7502  0.3269
 1537TIP3    H226027   1.469   2.715  11.967 -0.6381  1.2400  0.9288
 1538TIP3   OH226028   5.344   2.245  11.400  0.0916  0.4437 -0.2344
 1538TIP3    H126029   5.412   2.178  11.388  0.2851  0.4080  0.9688
 1538TIP3    H226030   5.268   2.195  11.430 -0.2313  0.5761 -0.8414
 1539TIP3   OH226031   2.741   6.727  10.439 -0.2554  0.4582  0.4189
 1539TIP3    H126032   2.784   6.813  10.442 -3.5682  2.2650 -0.9061
 1539TIP3    H226033   2.703   6.717  10.526 -0.7394  0.8028  0.2468
 1540TIP3   OH226034   2.508   5.742   5.073  0.0662  0.5654 -0.5198
 1540TIP3    H126035   2.569   5.668   5.072  0.2094  0.6467  1.1125
 1540TIP3    H226036   2.422   5.704   5.056  0.1271  0.0081  0.4091
 1541TIP3   OH226037   4.253   5.704   3.655 -0.7078 -0.4368  0.4217
 1541TIP3    H126038   4.340   5.684   3.620 -0.6799 -1.5303  1.0944
 1541TIP3    H226039   4.215   5.763   3.590  0.2167 -0.6059 -0.2984
 1542TIP3   OH226040   5.765   4.919   4.650 -0.1054 -0.4428 -0.8122
 1542TIP3    H126041   5.794   4.856   4.584  0.5523 -0.5519 -0.4251
 1542TIP3    H226042   5.834   4.918   4.716  0.3034  1.3003 -1.2070
 1543TIP3   OH226043   2.937   5.749   1.877 -0.5868  0.2038  0.0672
 1543TIP3    H126044   2.974   5.833   1.849 -1.8030  0.3839 -1.0058
 1543TIP3    H226045   2.874   5.772   1.945  0.2937 -0.0041  0.9803
 1544TIP3   OH226046   0.782   1.571  15.617  0.2237 -0.0978  0.1984
 1544TIP3    H126047   0.869   1.609  15.606  1.2049 -1.7551  1.9414
 1544TIP3    H226048   0.756   1.544  15.529  1.0979  1.1458 -0.4626
 1545TIP3   OH226049   5.233   1.654  15.392  0.4638  0.0836 -0.1145
 1545TIP3    H126050   5.212   1.748  15.395  1.2175  0.2411  0.3333
 1545TIP3    H226051   5.159   1.615  15.344  1.2427  1.2354 -2.3592
 1546TIP3   OH226052   2.691   1.244  11.718  0.5159  0.2064 -0.0070
 1546TIP3    H126053   2.783   1.259  11.695  0.1864  2.0438 -0.2247
 1546TIP3    H226054   2.671   1.312  11.782 -0.6628 -0.2355  0.1039
 1547TIP3   OH226055   0.758   2.328  11.675 -0.2663 -0.2602 -0.2142
 1547TIP3    H126056   0.843   2.372  11.676 -1.7882  2.8166 -0.0194
 1547TIP3    H226057   0.745   2.298  11.765 -1.1255  2.8697  0.7568
 1548TIP3   OH226058   0.587   0.216  11.557  0.4786 -0.3811  0.2439
 1548TIP3    H126059   0.655   0.251  11.499  0.8103 -2.1424 -0.4628
 1548TIP3    H226060   0.530   0.290  11.575  0.7338  0.3431 -1.8147
 1549TIP3   OH226061   4.230   5.437  15.194  0.1588 -0.6912  0.0305
 1549TIP3    H126062   4.298   5.472  15.252 -0.2471  0.2006 -0.0160
 1549TIP3    H226063   4.171   5.512  15.179 -0.4825 -1.2853 -0.4323
 1550TIP3   OH226064   2.205   6.381   5.769 -0.6403  0.0335  0.1862
 1550TIP3    H126065   2.153   6.444   5.720 -0.7754 -0.1003  0.1569
 1550TIP3    H226066   2.140   6.324   5.811 -0.5601  0.8439  1.4394
 1551TIP3   OH226067   1.684   2.610   0.861 -0.5457  0.3930  0.3173
 1551TIP3    H126068   1.733   2.642   0.937 -1.4009 -1.9476  1.9069
 1551TIP3    H226069   1.717   2.522   0.847 -2.7838 -0.4378  0.0773
 1552TIP3   OH226070   1.449   4.523  16.786  0.0358 -0.8509 -0.1515
 1552TIP3    H126071   1.520   4.585  16.802 -1.2777  1.3411 -2.4150
 1552TIP3    H226072   1.486   4.459  16.726  0.6226 -0.7532  0.1035
 1553TIP3   OH226073   2.700   3.338  15.321  0.6016 -0.3291  0.0503
 1553TIP3    H126074   2.620   3.388  15.339  0.3185 -1.5314  2.2853
 1553TIP3    H226075   2.750   3.394  15.262 -1.8635  0.4691 -1.3671
 1554TIP3   OH226076   0.191   6.636  12.553 -0.4856  0.0091  0.0476
 1554TIP3    H126077   0.135   6.678  12.618 -0.2865  1.8818 -0.9297
 1554TIP3    H226078   0.236   6.710  12.510  1.6441 -1.3531 -0.1505
 1555TIP3   OH226079   0.632   4.585   1.177 -0.3458 -0.1999  0.0040
 1555TIP3    H126080   0.549   4.632   1.186 -0.9483 -1.4703  1.0885
 1555TIP3    H226081   0.691   4.628   1.239 -1.0837 -1.2757  1.4684
 1556TIP3   OH226082   3.455   1.475   5.775 -0.1657 -0.5432  0.1512
 1556TIP3    H126083   3.543   1.507   5.794  0.9103 -3.4395  0.2605
 1556TIP3    H226084   3.448   1.479   5.679 -0.0331 -0.0407  0.1608
 1557TIP3   OH226085   2.771   2.902  10.777 -0.0346  0.4391  0.1752
 1557TIP3    H126086   2.756   2.819  10.732  1.5654  0.3232 -0.1611
 1557TIP3    H226087   2.705   2.903  10.847 -0.7807 -0.5966 -0.4873
 1558TIP3   OH226088   2.663   1.387  16.199  0.1672 -0.8318 -0.3257
 1558TIP3    H126089   2.758   1.380  16.205  0.1101 -0.0951  1.6611
 1558TIP3    H226090   2.629   1.314  16.251 -0.3493 -0.4644 -0.1360
 1559TIP3   OH226091   5.817   5.748  10.688 -0.6969 -0.3745  0.2622
 1559TIP3    H126092   5.808   5.718  10.778  1.0470  2.7632  1.5280
 1559TIP3    H226093   5.904   5.720  10.662 -0.1899  0.9838  0.4632
 1560TIP3   OH226094   4.708   0.968  13.058 -0.0270  0.2609 -0.0386
 1560TIP3    H126095   4.799   0.991  13.037 -0.5733  1.8516 -0.7302
 1560TIP3    H226096   4.695   0.883  13.016  1.9871 -1.3461  2.4505
 1561TIP3   OH226097   4.209   5.179   5.186  0.2454  0.1228 -0.0948
 1561TIP3    H126098   4.146   5.231   5.236  0.4569 -0.0799  0.3832
 1561TIP3    H226099   4.241   5.114   5.248  2.7441  1.7382  0.4079
 1562TIP3   OH226100   6.225   0.366   1.937  0.3461 -0.0361 -0.4560
 1562TIP3    H126101   6.175   0.317   2.002 -0.3259  2.6129  1.0916
 1562TIP3    H226102   6.303   0.397   1.984  0.5082  0.8133 -1.2661
 1563TIP3   OH226103   0.496   1.728  12.740  0.2534 -0.1185  0.0821
 1563TIP3    H126104   0.554   1.656  12.762  1.1001  0.3476 -0.5912
 1563TIP3    H226105   0.408   1.691  12.747  0.5841 -0.6294  1.8634
 1564TIP3   OH226106   2.642   3.099   3.470 -0.0927  0.0082 -0.3110
 1564TIP3    H126107   2.652   3.040   3.396  0.2203  1.0879 -1.1441
 1564TIP3    H226108   2.571   3.159   3.444 -0.3795  0.0266  0.4977
 1565TIP3   OH226109   2.211   0.800   3.303 -0.4994  0.4260  0.0344
 1565TIP3    H126110   2.241   0.891   3.300  0.0909  0.2724  1.1484
 1565TIP3    H226111   2.176   0.790   3.391  0.0110 -0.6156  0.1206
 1566TIP3   OH226112   5.829   2.836   1.396 -0.7604  0.3395 -0.2500
 1566TIP3    H126113   5.785   2.913   1.359 -0.3734  0.6099 -0.1548
 1566TIP3    H226114   5.885   2.804   1.326 -1.1820 -0.0615 -0.4019
 1567TIP3   OH226115   4.827   6.077  13.122 -0.4821 -0.5633  0.2841
 1567TIP3    H126116   4.869   6.133  13.057 -0.9030 -0.5388  0.0371
 1567TIP3    H226117   4.823   5.991  13.080 -0.2917 -0.6677  0.4734
 1568TIP3   OH226118   5.131   3.762   0.872 -0.1918  0.5982 -0.3854
 1568TIP3    H126119   5.069   3.794   0.807 -1.1179 -0.6125 -0.0976
 1568TIP3    H226120   5.077   3.720   0.939  0.8830  0.1351  0.2071
 1569TIP3   OH226121   1.198   0.126  14.492 -0.1686 -0.2510 -0.7081
 1569TIP3    H126122   1.123   0.116  14.551 -0.1690  1.5718 -0.3393
 1569TIP3    H226123   1.215   0.038  14.459 -1.7961 -0.8717  0.0289
 1570TIP3   OH226124   5.666   4.808   4.379  0.0960  0.4211 -0.0043
 1570TIP3    H126125   5.592   4.753   4.352 -1.1735  1.2991  1.5938
 1570TIP3    H226126   5.743   4.757   4.356 -1.0365 -1.2215 -0.2476
 1571TIP3   OH226127   4.681   4.190  13.076  0.0351 -0.5806 -0.1560
 1571TIP3    H126128   4.596   4.155  13.104  0.2974 -0.8028  0.3738
 1571TIP3    H226129   4.665   4.283  13.060  0.0060 -0.3303  1.2905
 1572TIP3   OH226130   2.671   1.460  13.620  0.0875 -0.6702  0.1331
 1572TIP3    H126131   2.669   1.527  13.688 -0.5956 -0.8284  0.2755
 1572TIP3    H226132   2.708   1.383  13.663  0.6364 -0.4637  0.0362
 1573TIP3   OH226133   1.623   0.734  14.566  0.2764  0.1321  0.8225
 1573TIP3    H126134   1.703   0.733  14.620  1.4151 -0.8287 -0.8408
 1573TIP3    H226135   1.607   0.827  14.550  2.5976  0.2878 -0.9738
 1574TIP3   OH226136   5.832   3.771   2.576 -0.5255 -0.0067  0.0208
 1574TIP3    H126137   5.790   3.850   2.541  1.6423  1.4383  0.5892
 1574TIP3    H226138   5.916   3.767   2.531  0.0194 -1.1522  1.1177
 1575TIP3   OH226139   1.754   6.328  12.288  0.0520  0.1949 -0.5942
 1575TIP3    H126140   1.694   6.258  12.261  1.7931 -1.6187  0.1513
 1575TIP3    H226141   1.703   6.381  12.350 -0.4582 -1.9127  0.8226
 1576TIP3   OH226142   6.354   4.359   2.693 -0.6215 -0.1416  0.0950
 1576TIP3    H126143   6.373   4.396   2.780  1.3961 -1.2260  0.1276
 1576TIP3    H226144   6.259   4.369   2.684 -0.5743  1.9275  1.5225
 1577TIP3   OH226145   6.379   6.769   1.571 -0.0350  0.1814 -0.0288
 1577TIP3    H126146   6.344   6.688   1.536 -3.7638  1.2725  0.9628
 1577TIP3    H226147   6.457   6.743   1.621 -1.3658 -2.7882  0.5354
 1578TIP3   OH226148   1.430   5.463  13.917  0.0975 -0.0173  0.3037
 1578TIP3    H126149   1.402   5.382  13.876 -0.7759  0.5597 -0.2538
 1578TIP3    H226150   1.349   5.502  13.951  0.6067  0.2625  1.2048
 1579TIP3   OH226151   0.923   0.799   0.741  0.1628  0.0848 -0.4145
 1579TIP3    H126152   0.934   0.891   0.765 -4.0378  0.8366 -0.9925
 1579TIP3    H226153   0.907   0.754   0.824 -0.1005  0.2773 -0.3605
 1580TIP3   OH226154   1.929   2.370  14.353 -0.1245  0.0429  0.4022
 1580TIP3    H126155   2.017   2.405  14.366 -0.9673  1.9738  1.0066
 1580TIP3    H226156   1.926   2.348  14.260  0.9139  0.1855  0.3249
 1581TIP3   OH226157   0.861   6.778  15.672 -0.3290 -0.4127  0.3599
 1581TIP3    H126158   0.868   6.689  15.707 -0.2954 -0.9638 -1.0093
 1581TIP3    H226159   0.948   6.798  15.638 -0.8973 -0.6863 -1.2740
 1582TIP3   OH226160   6.656   5.971   6.175  0.6350  0.7116 -0.6491
 1582TIP3    H126161   6.692   6.037   6.234  0.5799 -1.1677  1.5554
 1582TIP3    H226162   6.717   5.898   6.181 -0.0919 -0.0113 -1.9213
 1583TIP3   OH226163   5.815   5.515  17.159 -0.2207 -0.1388  0.4972
 1583TIP3    H126164   5.727   5.476  17.164  0.1595 -0.9239  1.1618
 1583TIP3    H226165   5.828   5.553  17.245  0.3671 -0.6242  0.6215
 1584TIP3   OH226166   2.581   6.525  16.578  0.0519 -0.9459  0.1513
 1584TIP3    H126167   2.521   6.458  16.545  0.2122 -1.0067 -0.0221
 1584TIP3    H226168   2.628   6.556  16.501 -0.4777 -0.1709  0.1435
 1585TIP3   OH226169   3.106   3.462  12.445 -0.2501 -0.2137 -0.4116
 1585TIP3    H126170   3.028   3.472  12.390 -0.0120 -0.6681 -0.8385
 1585TIP3    H226171   3.140   3.551  12.454 -0.8083 -0.0148 -0.2367
 1586TIP3   OH226172   0.487   0.932  12.043  0.3795  0.4341 -0.0208
 1586TIP3    H126173   0.517   0.851  12.083 -0.5207  0.7702  1.3989
 1586TIP3    H226174   0.405   0.952  12.089  0.4583  2.0004 -0.5251
 1587TIP3   OH226175   5.203   5.833  15.146 -0.2255 -0.1611 -0.1892
 1587TIP3    H126176   5.140   5.778  15.098 -1.2987  0.8606  0.0344
 1587TIP3    H226177   5.283   5.827  15.095 -0.7021 -0.9175 -0.8643
 1588TIP3   OH226178   5.252   0.143   1.219 -0.3382  0.5013 -0.0005
 1588TIP3    H126179   5.293   0.158   1.134 -3.3447  0.0868 -1.6074
 1588TIP3    H226180   5.232   0.230   1.252 -2.7967  0.6452 -1.6636
 1589TIP3   OH226181   0.460   0.392   3.555 -0.4690  0.2879 -0.5264
 1589TIP3    H126182   0.458   0.327   3.625  1.0711  0.4273 -0.3270
 1589TIP3    H226183   0.386   0.450   3.573  0.8792  1.3095  1.9502
 1590TIP3   OH226184   1.669   6.578  12.819  0.3889  0.3382  0.0962
 1590TIP3    H126185   1.587   6.607  12.779  0.2153 -2.1043 -1.4215
 1590TIP3    H226186   1.641   6.523  12.892  0.7069  0.6035  0.4199
 1591TIP3   OH226187   3.205   6.596  16.671 -0.1262  0.3185 -0.1175
 1591TIP3    H126188   3.243   6.683  16.675 -3.1679  1.7217 -0.4367
 1591TIP3    H226189   3.276   6.540  16.639  1.6928  2.7666 -0.4717
 1592TIP3   OH226190   2.499   2.219   2.291  0.4702 -0.7112 -0.3574
 1592TIP3    H126191   2.456   2.157   2.350  2.1129 -1.0776  0.5035
 1592TIP3    H226192   2.447   2.299   2.298  0.2595 -0.9648  1.0844
 1593TIP3   OH226193   4.757   2.437   6.526 -0.1522  0.3724 -0.2494
 1593TIP3    H126194   4.742   2.532   6.528 -1.3038  0.1883  0.0375
 1593TIP3    H226195   4.768   2.417   6.433  0.1159  0.7913 -0.3095
 1594TIP3   OH226196   0.666   5.540   1.418  0.1541  0.2908 -0.0561
 1594TIP3    H126197   0.702   5.594   1.489 -1.9227  0.3487  1.0012
 1594TIP3    H226198   0.692   5.451   1.440 -1.6105  0.1334  1.5661
 1595TIP3   OH226199   0.234   1.820  12.489 -0.0209 -0.2111 -0.3858
 1595TIP3    H126200   0.190   1.873  12.556 -0.5010 -0.4709 -0.5001
 1595TIP3    H226201   0.294   1.881  12.446  1.4205 -0.3977  1.3162
 1596TIP3   OH226202   1.855   3.223  16.202 -0.1753  0.0646  0.1751
 1596TIP3    H126203   1.761   3.204  16.206 -0.9584  3.8081  1.1507
 1596TIP3    H226204   1.862   3.291  16.135  2.1666 -1.7395 -1.4727
 1597TIP3   OH226205   1.848   5.882   0.182 -0.2204 -0.0065  0.7230
 1597TIP3    H126206   1.773   5.832   0.215  0.4221 -2.1079 -0.9430
 1597TIP3    H226207   1.924   5.840   0.223  0.3962 -1.0902 -1.4948
 1598TIP3   OH226208   0.237   3.003  13.541 -0.5344 -0.0302  0.2402
 1598TIP3    H126209   0.234   3.005  13.636  1.2181 -0.1066  0.3244
 1598TIP3    H226210   0.198   3.086  13.514  1.2739  1.1369  1.1220
 1599TIP3   OH226211   1.466   5.524  16.628  0.3109  0.0674 -0.5970
 1599TIP3    H126212   1.502   5.579  16.698 -0.1195 -1.9547  1.2969
 1599TIP3    H226213   1.543   5.484  16.587  0.5235  0.4927 -0.6107
 1600TIP3   OH226214   4.878   5.713  14.476 -1.0065  0.3896 -0.7432
 1600TIP3    H126215   4.956   5.748  14.431 -0.2582  0.8122  0.8498
 1600TIP3    H226216   4.886   5.618  14.467 -0.5330  0.4513 -0.9809
 1601TIP3   OH226217   3.584   1.678   5.505 -0.0925 -0.0101 -0.3019
 1601TIP3    H126218   3.627   1.595   5.483  0.6399  0.1671  0.4196
 1601TIP3    H226219   3.637   1.714   5.577 -1.7526 -0.0357  0.9693
 1602TIP3   OH226220   3.013   0.341  16.672 -0.2301 -0.0023  0.0366
 1602TIP3    H126221   2.938   0.283  16.685  0.1828 -0.8194 -1.1233
 1602TIP3    H226222   3.001   0.376  16.583  1.0955 -0.6437 -0.4153
 1603TIP3   OH226223   1.643   5.336   4.604 -0.4626 -0.1303  0.8837
 1603TIP3    H126224   1.560   5.320   4.648 -0.7752 -0.6560  0.1131
 1603TIP3    H226225   1.657   5.258   4.550 -0.9415  1.2682 -1.2861
 1604TIP3   OH226226   4.644   4.516  15.234 -0.0465  0.1576 -0.1686
 1604TIP3    H126227   4.672   4.515  15.143 -0.1623 -0.9731 -0.2033
 1604TIP3    H226228   4.558   4.558  15.232  0.1065  0.4615 -0.5230
 1605TIP3   OH226229   1.259   4.961  12.489  0.4060  0.0463  0.4176
 1605TIP3    H126230   1.243   4.984  12.397  0.6741  0.4641  0.4717
 1605TIP3    H226231   1.194   4.894  12.509  0.5248 -0.2431 -0.1613
 1606TIP3   OH226232   3.935   5.810   3.269  0.0681 -0.1374  0.0762
 1606TIP3    H126233   3.968   5.880   3.213  0.7065  0.4784  1.1992
 1606TIP3    H226234   3.960   5.837   3.358  0.4423 -1.8510  0.5081
 1607TIP3   OH226235   1.279   3.369   5.995 -0.4095 -0.2641  0.0991
 1607TIP3    H126236   1.324   3.289   6.023  0.2884 -0.3629 -1.2561
 1607TIP3    H226237   1.202   3.374   6.052  1.7790  0.4355  3.1661
 1608TIP3   OH226238   4.464   2.487  14.897 -0.6566  0.2600 -0.1745
 1608TIP3    H126239   4.507   2.567  14.929 -0.8043 -0.1043  0.9606
 1608TIP3    H226240   4.535   2.435  14.860 -0.5641  0.9255 -0.9527
 1609TIP3   OH226241   2.110   5.907  12.640 -0.1109  0.1065  0.7036
 1609TIP3    H126242   2.087   5.962  12.714 -1.9780  0.3187 -0.0190
 1609TIP3    H226243   2.100   5.964  12.564 -2.2763 -1.2511 -0.0789
 1610TIP3   OH226244   6.535   4.345   4.487 -0.0468  0.2323  0.3669
 1610TIP3    H126245   6.523   4.306   4.574 -1.1777 -0.8913 -0.2717
 1610TIP3    H226246   6.450   4.385   4.467 -0.8772 -2.2883 -1.5337
 1611TIP3   OH226247   1.435   3.723   2.602 -0.2172  0.0139 -0.3373
 1611TIP3    H126248   1.498   3.793   2.591 -0.7235  0.3860 -0.8697
 1611TIP3    H226249   1.367   3.740   2.536 -0.4224 -0.8773 -0.3681
 1612TIP3   OH226250   6.392   3.698  11.245 -0.3977  0.1850 -0.6316
 1612TIP3    H126251   6.355   3.733  11.163 -0.2563  0.2290 -0.6766
 1612TIP3    H226252   6.473   3.748  11.257 -1.8761  2.2558  1.0878
 1613TIP3   OH226253   5.604   5.928   0.325 -0.2664 -0.1335  0.1293
 1613TIP3    H126254   5.544   5.933   0.399 -0.1834 -0.9360  0.2544
 1613TIP3    H226255   5.587   5.843   0.285  1.5769 -0.8689  0.8516
 1614TIP3   OH226256   4.631   5.480   4.022 -0.0560  0.3317  0.2943
 1614TIP3    H126257   4.723   5.496   4.004 -0.3164  1.8790  0.2701
 1614TIP3    H226258   4.597   5.565   4.052 -2.1268  0.5962 -2.5550
 1615TIP3   OH226259   2.115   6.443   3.868  0.9328  0.1886  0.1810
 1615TIP3    H126260   2.058   6.367   3.856 -0.9642  1.5157  0.5750
 1615TIP3    H226261   2.108   6.465   3.961  1.6172  0.7256  0.1110
 1616TIP3   OH226262   6.015   0.820   3.755 -0.5764  0.2828  0.0880
 1616TIP3    H126263   5.943   0.837   3.694 -0.8833 -2.1618 -0.2951
 1616TIP3    H226264   5.974   0.814   3.841 -0.4719  1.3958  0.2179
 1617TIP3   OH226265   4.121   4.217   3.725  0.0595  0.4186 -0.2387
 1617TIP3    H126266   4.070   4.233   3.645  0.3006 -1.8610 -0.8721
 1617TIP3    H226267   4.176   4.142   3.704  1.3639  0.8499  1.5267
 1618TIP3   OH226268   2.247   3.521   3.245  0.3963  0.4528  0.2381
 1618TIP3    H126269   2.290   3.563   3.171 -0.8769 -0.5770 -1.1205
 1618TIP3    H226270   2.168   3.573   3.260  0.5313  0.5203  0.7404
 1619TIP3   OH226271   3.303   1.585  15.974  0.1818 -0.3763  0.3593
 1619TIP3    H126272   3.231   1.648  15.979 -0.3278 -0.8056 -1.2001
 1619TIP3    H226273   3.326   1.584  15.881  1.0768 -1.5073  0.5885
 1620TIP3   OH226274   6.588   2.586  10.850 -0.0631  0.0608  0.3763
 1620TIP3    H126275   6.524   2.567  10.782  0.5554 -0.1506 -0.1572
 1620TIP3    H226276   6.609   2.679  10.839 -1.5661  0.5725  1.6678
 1621TIP3   OH226277   0.770   2.851  11.143 -0.1615 -0.5893 -0.2574
 1621TIP3    H126278   0.688   2.884  11.108 -0.6515  0.2387  1.6226
 1621TIP3    H226279   0.769   2.757  11.124 -0.7943 -0.3082 -1.6638
 1622TIP3   OH226280   0.675   3.919   5.978  0.3068  0.2711 -0.3478
 1622TIP3    H126281   0.606   3.869   6.022 -1.7740  2.2665 -1.2339
 1622TIP3    H226282   0.728   3.853   5.933 -0.4741 -1.3661  1.0852
 1623TIP3   OH226283   0.247   1.999  15.002  0.9154 -0.1201 -0.2778
 1623TIP3    H126284   0.329   1.960  15.032  0.3217 -1.9466 -0.9483
 1623TIP3    H226285   0.219   2.054  15.075  0.9736 -2.2234  1.4018
 1624TIP3   OH226286   5.938   3.586  13.650  0.5123  0.1449 -0.3803
 1624TIP3    H126287   5.889   3.506  13.671 -0.1941 -0.1687 -3.0705
 1624TIP3    H226288   6.028   3.556  13.636  0.2121 -0.2410 -1.5693
 1625TIP3   OH226289   5.675   0.549  11.414 -1.0065 -0.6666 -0.3411
 1625TIP3    H126290   5.745   0.498  11.373  1.1087  0.8442  1.2495
 1625TIP3    H226291   5.697   0.549  11.508 -1.7975  1.8430 -0.1209
 1626TIP3   OH226292   0.161   1.719   2.546 -0.0601 -0.2914 -0.2076
 1626TIP3    H126293   0.193   1.716   2.636  1.3207  2.8720 -0.5036
 1626TIP3    H226294   0.239   1.711   2.492 -0.4310  1.2608 -1.0313
 1627TIP3   OH226295   6.756   0.138  14.720 -0.1283 -0.4657  0.0542
 1627TIP3    H126296   6.803   0.221  14.705  0.0352 -0.5350  0.1830
 1627TIP3    H226297   6.664   0.163  14.724  0.0678 -0.0109  2.1096
 1628TIP3   OH226298   2.533   0.344  15.407  0.5384  0.1888  0.1300
 1628TIP3    H126299   2.612   0.314  15.362 -0.6420 -1.3363 -0.9796
 1628TIP3    H226300   2.535   0.439  15.399  1.6815  0.0882 -0.8540
 1629TIP3   OH226301   0.943   3.347  14.961 -0.4095 -0.1215  0.3439
 1629TIP3    H126302   0.930   3.292  14.884 -1.6762  0.8036 -0.1178
 1629TIP3    H226303   0.868   3.327  15.018 -0.4903  0.5875  0.4907
 1630TIP3   OH226304   1.417   5.237  13.112 -0.1622  0.4960  0.3748
 1630TIP3    H126305   1.419   5.317  13.164  1.4874 -1.5929  3.7344
 1630TIP3    H226306   1.356   5.179  13.159  1.0530 -1.3060 -0.1996
 1631TIP3   OH226307   2.992   6.629  15.906  0.4658  0.2255  0.3672
 1631TIP3    H126308   2.989   6.701  15.843  0.9777 -0.1846 -0.1407
 1631TIP3    H226309   2.970   6.551  15.855  0.7478 -0.0943  0.7232
 1632TIP3   OH226310   2.887   4.501   4.476  0.6532 -0.2662 -0.2011
 1632TIP3    H126311   2.932   4.483   4.393 -1.9773 -0.0903 -1.7173
 1632TIP3    H226312   2.819   4.433   4.482 -0.7602  1.1817  0.5668
 1633TIP3   OH226313   3.353   3.898   2.160 -0.2396  0.2706  0.3452
 1633TIP3    H126314   3.279   3.860   2.114 -0.5777 -0.5390  1.5180
 1633TIP3    H226315   3.331   3.991   2.169 -1.3456 -0.0616  1.1235
 1634TIP3   OH226316   1.115   2.618  14.439  0.1147  0.4076 -0.9187
 1634TIP3    H126317   1.054   2.545  14.430  1.7183 -1.2503  1.0461
 1634TIP3    H226318   1.082   2.668  14.514  0.0894  0.6395 -1.0821
 1635TIP3   OH226319   4.454   3.042   5.597 -0.4182  0.2607  0.5159
 1635TIP3    H126320   4.421   3.053   5.508  0.2640 -0.1851  0.1994
 1635TIP3    H226321   4.376   3.038   5.652 -0.8115  1.7307  0.0789
 1636TIP3   OH226322   4.105   4.977   2.676 -0.1841 -0.4806 -0.2439
 1636TIP3    H126323   4.070   4.989   2.764 -0.4500  1.7620 -0.6318
 1636TIP3    H226324   4.200   4.969   2.689  0.0987  2.7683  0.0362
 1637TIP3   OH226325   6.481   1.541  14.516 -0.0450  0.6065 -0.9822
 1637TIP3    H126326   6.409   1.603  14.499  1.2576  2.3391 -0.3665
 1637TIP3    H226327   6.542   1.591  14.570  0.6338 -1.5484  0.2826
 1638TIP3   OH226328   3.974   4.432  11.321  0.3962 -0.0591 -0.2996
 1638TIP3    H126329   3.949   4.422  11.413  0.9668  2.9823  0.2433
 1638TIP3    H226330   3.906   4.386  11.272 -0.6911 -0.4972  1.5940
 1639TIP3   OH226331   4.326   2.824  16.606 -0.3920  0.3947  0.8837
 1639TIP3    H126332   4.384   2.884  16.560  0.1725 -1.3553 -0.7592
 1639TIP3    H226333   4.380   2.790  16.678 -0.7483  1.9061  1.8797
 1640TIP3   OH226334   1.835   5.952  15.832 -0.0264 -0.4684  0.1333
 1640TIP3    H126335   1.797   5.918  15.914 -0.8951  2.5628  1.0489
 1640TIP3    H226336   1.899   5.886  15.807  0.7249 -1.1958  3.6188
 1641TIP3   OH226337   6.725   6.047   2.538  0.1206 -0.2773  0.8680
 1641TIP3    H126338   6.685   6.113   2.595  0.1247  0.6739 -0.2127
 1641TIP3    H226339   6.819   6.059   2.551  0.1263  0.0900  0.5024
 1642TIP3   OH226340   0.070   4.735  13.751  0.5827  0.4800  0.1158
 1642TIP3    H126341   0.060   4.680  13.674  0.4795  0.3050  0.2548
 1642TIP3    H226342   0.131   4.688  13.807  0.1304  0.2758  0.4437
 1643TIP3   OH226343   2.979   0.767  12.539 -0.0724  0.0712 -0.2993
 1643TIP3    H126344   3.024   0.836  12.587  0.3869  0.3939 -1.1733
 1643TIP3    H226345   2.963   0.805  12.452 -0.6249 -0.5981 -0.4886
 1644TIP3   OH226346   0.298   0.386  11.980 -0.2302  0.2868 -0.4232
 1644TIP3    H126347   0.393   0.386  11.972 -0.2364 -1.3468 -0.5742
 1644TIP3    H226348   0.280   0.434  12.061  0.5478  3.4057 -2.0285
 1645TIP3   OH226349   2.289   6.053   4.512  0.1361 -0.0096 -0.7663
 1645TIP3    H126350   2.232   6.072   4.586  0.0733  0.3660 -0.9081
 1645TIP3    H226351   2.337   5.974   4.537 -1.2049 -0.9446 -1.0795
 1646TIP3   OH226352   6.520   2.368   2.888  0.0842 -0.0289  0.0706
 1646TIP3    H126353   6.601   2.336   2.927 -0.8880 -1.1001  1.2313
 1646TIP3    H226354   6.475   2.289   2.858 -0.3195  0.5969 -1.0133
 1647TIP3   OH226355   6.434   4.616   2.853  0.4929  0.5032 -0.1033
 1647TIP3    H126356   6.477   4.672   2.918  1.0303  2.2679 -1.9312
 1647TIP3    H226357   6.342   4.614   2.880  1.3774 -2.1879  3.0573
 1648TIP3   OH226358   6.730   3.627   5.897 -0.2882 -0.4107  0.2499
 1648TIP3    H126359   6.700   3.540   5.870  1.3887 -1.2950  1.2027
 1648TIP3    H226360   6.666   3.687   5.859 -2.1274 -2.1303  0.5666
 1649TIP3   OH226361   5.426   0.576   5.675 -0.5678 -0.1342  0.0629
 1649TIP3    H126362   5.521   0.558   5.675 -0.5664 -0.2119  1.8658
 1649TIP3    H226363   5.419   0.669   5.697 -0.9585 -0.5692  1.8540
 1650TIP3   OH226364   1.248   3.580   3.948  0.3186  0.5662 -0.1937
 1650TIP3    H126365   1.305   3.636   4.002 -0.5026  0.6815  0.5680
 1650TIP3    H226366   1.161   3.618   3.959 -0.1122 -0.3859 -0.3326
 1651TIP3   OH226367   5.235   5.588  11.085 -0.3673  0.0096  0.5961
 1651TIP3    H126368   5.188   5.518  11.038  0.2102 -0.7800  1.1861
 1651TIP3    H226369   5.173   5.617  11.152 -0.0357 -1.0105  1.3569
 1652TIP3   OH226370   3.745   5.383  11.032  0.1623 -0.0747  0.4722
 1652TIP3    H126371   3.663   5.339  11.012  0.2465 -0.5690  1.1727
 1652TIP3    H226372   3.793   5.385  10.950  0.2976 -1.5935  0.4999
 1653TIP3   OH226373   1.669   4.790  13.410  0.2981 -0.2594  0.5410
 1653TIP3    H126374   1.642   4.698  13.414 -0.4484  0.0153  2.5975
 1653TIP3    H226375   1.762   4.789  13.432  0.8728 -0.7308 -1.7783
 1654TIP3   OH226376   2.487   6.699   3.686 -0.0989  0.7659 -0.3835
 1654TIP3    H126377   2.568   6.747   3.669 -0.6252  1.2873 -1.4274
 1654TIP3    H226378   2.482   6.694   3.782  2.4255 -1.4060 -0.3137
 1655TIP3   OH226379   0.762   0.427   1.868 -0.0503 -0.5200 -0.4421
 1655TIP3    H126380   0.850   0.432   1.831  0.0691 -1.5893 -0.3096
 1655TIP3    H226381   0.773   0.379   1.950 -0.7114 -0.3842 -0.2682
 1656TIP3   OH226382   4.606   5.095   3.819 -0.2015 -0.5962 -0.1996
 1656TIP3    H126383   4.580   5.013   3.776  0.9252 -0.8227 -0.4751
 1656TIP3    H226384   4.678   5.128   3.765  0.2284 -0.1082  0.6727
 1657TIP3   OH226385   0.641   4.216   3.002  0.2414  0.2637  0.2047
 1657TIP3    H126386   0.636   4.310   3.015  1.6913  0.2771  0.7001
 1657TIP3    H226387   0.705   4.204   2.932 -0.2126 -0.3246 -0.1140
 1658TIP3   OH226388   2.578   1.708  16.454  0.3536 -0.3130 -0.2894
 1658TIP3    H126389   2.663   1.673  16.482  0.2968  0.2103  0.5455
 1658TIP3    H226390   2.525   1.708  16.533  0.3492  1.6706 -0.2831
 1659TIP3   OH226391   2.967   0.709   3.968 -0.5552 -0.0916 -0.5184
 1659TIP3    H126392   2.933   0.798   3.960 -2.4366 -1.0081 -3.3750
 1659TIP3    H226393   3.038   0.705   3.905  0.4998 -0.2039  0.6569
 1660TIP3   OH226394   4.733   6.568   6.017 -0.1454 -0.1794  0.0464
 1660TIP3    H126395   4.680   6.489   6.008  0.8207 -0.7254 -0.9526
 1660TIP3    H226396   4.772   6.561   6.105 -1.4363  0.0547  0.6468
 1661TIP3   OH226397   5.378   4.095  14.837 -0.0445  0.0945  0.0509
 1661TIP3    H126398   5.368   4.042  14.758 -1.7717 -2.2079  1.7465
 1661TIP3    H226399   5.311   4.163  14.829  1.1402  1.1447 -1.3787
 1662TIP3   OH226400   6.735   2.255   0.740  0.3138 -0.0082 -0.5910
 1662TIP3    H126401   6.679   2.312   0.687  0.9779 -0.1306 -1.4212
 1662TIP3    H226402   6.800   2.314   0.777 -0.1312  0.0722  0.0765
 1663TIP3   OH226403   3.982   3.407   6.123 -0.3035  0.7928 -0.6159
 1663TIP3    H126404   3.939   3.464   6.059 -0.3183  0.0093 -1.3123
 1663TIP3    H226405   3.948   3.320   6.104 -0.3618  0.5633  0.5131
 1664TIP3   OH226406   2.766   6.249  14.179 -0.6689 -0.1152 -0.0293
 1664TIP3    H126407   2.696   6.314  14.174 -0.7315 -0.1262  0.6683
 1664TIP3    H226408   2.839   6.289  14.130 -0.1683  1.1781  1.7287
 1665TIP3   OH226409   1.417   3.360   3.848  0.1796 -0.6863 -0.4089
 1665TIP3    H126410   1.437   3.411   3.927  1.4352 -0.4818 -0.8429
 1665TIP3    H226411   1.322   3.360   3.843  0.0296 -1.7826  1.8209
 1666TIP3   OH226412   2.287   0.362   3.054 -0.0218  0.2052 -0.8159
 1666TIP3    H126413   2.288   0.387   3.147 -0.5220  1.7445 -1.1990
 1666TIP3    H226414   2.305   0.444   3.008  1.9938 -0.8946 -2.0305
 1667TIP3   OH226415   4.441   0.309   3.889 -0.1274  0.1074  0.4951
 1667TIP3    H126416   4.436   0.272   3.978  0.1914  0.0043  0.4706
 1667TIP3    H226417   4.373   0.262   3.841  0.9169 -1.1505  0.2190
 1668TIP3   OH226418   1.838   2.080  14.402  0.3997 -0.3440 -0.4373
 1668TIP3    H126419   1.806   2.170  14.390  1.3260  0.0746  0.1156
 1668TIP3    H226420   1.864   2.077  14.494 -1.4267 -1.7859  0.0662
 1669TIP3   OH226421   6.566   6.558   1.258  0.0735  0.1599 -0.0890
 1669TIP3    H126422   6.484   6.544   1.211  0.0552 -0.1972  0.0447
 1669TIP3    H226423   6.573   6.482   1.316  1.0635 -0.3948 -0.9149
 1670TIP3   OH226424   3.165   2.304   0.840  0.0807 -0.0237 -0.2885
 1670TIP3    H126425   3.229   2.344   0.899  1.2091  1.4510 -2.4830
 1670TIP3    H226426   3.160   2.362   0.765 -1.2053 -1.9735 -1.7821
 1671TIP3   OH226427   6.760   6.202  12.377  0.3736  0.0483 -0.1401
 1671TIP3    H126428   6.780   6.236  12.465  0.3941 -0.0181 -0.1188
 1671TIP3    H226429   6.706   6.125  12.393  0.4075  0.0156 -0.1841
 1672TIP3   OH226430   5.944   5.713   2.765 -0.0219  0.2810 -0.5207
 1672TIP3    H126431   6.028   5.680   2.734  0.5155  1.2110 -0.0860
 1672TIP3    H226432   5.958   5.732   2.858 -0.8063  0.1526 -0.3666
 1673TIP3   OH226433   1.421   0.012   5.403 -0.1080  0.0630  0.0463
 1673TIP3    H126434   1.514   0.017   5.424  0.1618  2.3520 -1.5117
 1673TIP3    H226435   1.415  -0.055   5.336  0.4896  0.2827 -0.2303
 1674TIP3   OH226436   2.712   4.341  14.380 -0.1306 -0.2525  0.5697
 1674TIP3    H126437   2.660   4.339  14.299  1.8604 -3.6687 -0.6941
 1674TIP3    H226438   2.689   4.260  14.426  2.2756 -0.6689  1.1132
 1675TIP3   OH226439   3.656   0.979  13.630 -0.4082  0.1410  0.0612
 1675TIP3    H126440   3.645   1.024  13.546 -1.6711  0.1566  0.2249
 1675TIP3    H226441   3.680   1.048  13.691 -0.8766  0.3617  0.0001
 1676TIP3   OH226442   1.592   5.006  12.363 -0.6241  0.7706 -0.1813
 1676TIP3    H126443   1.539   5.077  12.328 -0.2548  0.9795 -0.3221
 1676TIP3    H226444   1.656   4.987  12.294  0.5406  1.6433  0.6354
 1677TIP3   OH226445   1.765   1.625   5.186 -0.3731  0.2844  0.1981
 1677TIP3    H126446   1.694   1.677   5.225 -0.6555 -0.8197  1.1885
 1677TIP3    H226447   1.739   1.614   5.095 -0.0396  2.3340 -0.1706
 1678TIP3   OH226448   6.032   0.774  11.036  0.6471  0.3927  0.5650
 1678TIP3    H126449   6.056   0.808  11.122  1.7204 -1.2008  0.9369
 1678TIP3    H226450   6.018   0.680  11.051 -0.6950  0.3738 -0.6980
 1679TIP3   OH226451   6.548   5.269   3.859  0.2183  0.4406 -0.5372
 1679TIP3    H126452   6.610   5.276   3.931  0.5647 -1.3035 -0.6256
 1679TIP3    H226453   6.465   5.300   3.895  0.4145 -0.3082  0.5869
 1680TIP3   OH226454   1.333   4.617   1.821  0.1942 -0.0988  0.1688
 1680TIP3    H126455   1.395   4.668   1.769 -0.4010  0.8571  0.3697
 1680TIP3    H226456   1.317   4.538   1.770  0.9966 -0.0058 -0.2342
 1681TIP3   OH226457   4.592   3.668   6.024  0.0267 -0.1482 -0.1992
 1681TIP3    H126458   4.597   3.609   5.949 -2.3925 -0.6153 -0.0262
 1681TIP3    H226459   4.624   3.751   5.991  1.2866 -0.9654 -1.0739
 1682TIP3   OH226460   0.462   2.068  11.353  0.0859  0.1221  0.1335
 1682TIP3    H126461   0.398   2.066  11.282  0.3503 -0.4515 -0.0913
 1682TIP3    H226462   0.527   2.001  11.330  1.8556  2.0531 -0.6611
 1683TIP3   OH226463   0.497   6.000   4.137  0.0792 -0.2727 -0.1901
 1683TIP3    H126464   0.455   6.026   4.219  0.8941  0.2534  0.0672
 1683TIP3    H226465   0.424   5.985   4.077 -0.4736  2.4062 -0.2767
 1684TIP3   OH226466   3.058   2.271   2.802  0.6130 -0.0171  0.2522
 1684TIP3    H126467   3.087   2.348   2.851  0.8434 -0.2407  0.4691
 1684TIP3    H226468   3.005   2.221   2.864 -2.3071  1.6068 -0.8574
 1685TIP3   OH226469   6.472   5.241   3.577 -0.7102 -0.3261 -0.1465
 1685TIP3    H126470   6.509   5.257   3.664  0.8260 -2.5938 -0.3502
 1685TIP3    H226471   6.547   5.241   3.518 -1.5390 -0.5775 -1.2224
 1686TIP3   OH226472   3.593   1.688  10.728 -0.0880 -0.3185 -0.4306
 1686TIP3    H126473   3.536   1.734  10.790 -1.4599  1.0733 -2.6972
 1686TIP3    H226474   3.658   1.753  10.703 -0.2950 -0.4860 -1.4130
 1687TIP3   OH226475   4.311   0.777  11.450 -0.0483 -0.0678  0.2332
 1687TIP3    H126476   4.229   0.778  11.401  0.4966  0.1038 -0.6982
 1687TIP3    H226477   4.339   0.685  11.447  0.3297  0.0635 -0.3761
 1688TIP3   OH226478   0.459   2.799  13.547 -0.0234  0.1731 -0.7480
 1688TIP3    H126479   0.382   2.854  13.561  0.9045  0.8457  2.3925
 1688TIP3    H226480   0.431   2.733  13.485 -3.0574  0.5576  0.1056
 1689TIP3   OH226481   1.258   1.872   1.730 -0.0199 -0.0793 -0.1434
 1689TIP3    H126482   1.345   1.855   1.766  0.7708 -0.6038 -2.2332
 1689TIP3    H226483   1.265   1.849   1.637 -1.9321  1.4413 -0.7104
 1690TIP3   OH226484   1.059   0.255  12.908 -0.0424  0.0218 -0.0061
 1690TIP3    H126485   1.045   0.207  12.827  0.2027  0.8806 -0.5617
 1690TIP3    H226486   1.137   0.214  12.947  1.5155  1.3899 -1.5833
 1691TIP3   OH226487   5.626   5.244  14.806  0.0937 -0.1984 -0.0491
 1691TIP3    H126488   5.532   5.238  14.790  0.0305  0.7093 -0.0597
 1691TIP3    H226489   5.650   5.158  14.841 -0.7803 -0.3690  0.1567
 1692TIP3   OH226490   3.531   1.937   1.440 -0.0320  0.2443  0.5554
 1692TIP3    H126491   3.611   1.930   1.492  0.2545  1.6406  0.3376
 1692TIP3    H226492   3.461   1.910   1.500  0.5928 -0.9287  0.7621
 1693TIP3   OH226493   3.907   0.182   5.488 -0.1524  0.4722  0.0866
 1693TIP3    H126494   3.917   0.273   5.517  1.6404 -0.5038  2.7119
 1693TIP3    H226495   3.997   0.154   5.467 -0.7142 -0.6391 -0.9004
 1694TIP3   OH226496   2.544   2.443   1.122 -0.1464 -0.4730  0.3238
 1694TIP3    H126497   2.622   2.425   1.070  0.4193 -0.0211  1.0034
 1694TIP3    H226498   2.487   2.492   1.064 -0.2245 -1.4161 -0.4074
 1695TIP3   OH226499   6.549   6.703   1.895 -0.4209  0.4600  0.1880
 1695TIP3    H126500   6.595   6.770   1.946 -0.1389 -0.2745  0.9203
 1695TIP3    H226501   6.468   6.687   1.944 -0.9881  1.0419 -0.5663
 1696TIP3   OH226502   1.494   3.660   5.229  0.7294 -0.1238 -1.0557
 1696TIP3    H126503   1.575   3.665   5.280  0.1181  0.8860 -0.1650
 1696TIP3    H226504   1.501   3.731   5.166 -0.0533  0.8431 -0.0793
 1697TIP3   OH226505   2.727   1.482   4.889  0.0604  0.2946  0.0232
 1697TIP3    H126506   2.654   1.542   4.877 -0.8188 -0.1511  2.7298
 1697TIP3    H226507   2.805   1.537   4.884 -0.4656  0.8739 -2.2642
 1698TIP3   OH226508   0.073   2.624   6.064  0.0707  0.2019 -0.1192
 1698TIP3    H126509   0.076   2.679   6.141  0.8767 -0.5612  0.4083
 1698TIP3    H226510  -0.020   2.619   6.041 -0.0628  1.2640  0.1866
 1699TIP3   OH226511   2.658   0.089   6.116 -0.3896  0.0998 -0.4729
 1699TIP3    H126512   2.578   0.048   6.149  0.1946 -0.6477  0.0181
 1699TIP3    H226513   2.692   0.139   6.190 -1.2509  1.7311 -1.1523
 1700TIP3   OH226514   0.067   2.987   6.026 -0.2848 -0.5943  0.2181
 1700TIP3    H126515   0.148   2.937   6.033  1.0980  1.2757 -1.8743
 1700TIP3    H226516  -0.000   2.921   6.010  1.1233 -1.9956 -0.0482
 1701TIP3   OH226517   3.786   6.600   2.276 -0.1414 -0.9449  0.2105
 1701TIP3    H126518   3.716   6.536   2.262 -0.3137 -0.8093  0.4449
 1701TIP3    H226519   3.740   6.679   2.305  0.0144 -0.5282 -0.6613
 1702TIP3   OH226520   6.435   5.163  12.321  0.1641 -0.5903  1.2511
 1702TIP3    H126521   6.481   5.115  12.253  3.5190  1.0500  2.2441
 1702TIP3    H226522   6.489   5.152  12.399 -0.6288  2.1754  2.2588
 1703TIP3   OH226523   5.369   3.547   4.128 -0.1566  0.1260 -0.0706
 1703TIP3    H126524   5.281   3.527   4.096  0.5793 -1.2482 -1.2635
 1703TIP3    H226525   5.394   3.627   4.081 -1.3004  1.3193  1.3088
 1704TIP3   OH226526   2.624   6.277  10.869  0.3423  0.4259 -0.0242
 1704TIP3    H126527   2.631   6.306  10.779  0.8794  0.5281  0.0484
 1704TIP3    H226528   2.674   6.341  10.919 -0.6958  0.8766  0.4547
 1705TIP3   OH226529   0.508   3.146  13.873 -0.0751 -0.1669 -0.2173
 1705TIP3    H126530   0.462   3.197  13.806  2.2157 -1.2290 -2.6807
 1705TIP3    H226531   0.569   3.208  13.913 -2.2841  0.7830  1.8202
 1706TIP3   OH226532   5.289   5.753  15.409  0.0608 -0.1241  0.1268
 1706TIP3    H126533   5.381   5.761  15.386 -0.0306 -0.7848 -0.4724
 1706TIP3    H226534   5.242   5.779  15.329 -0.2588 -3.3473 -0.7802
 1707TIP3   OH226535   3.118   5.107  13.329 -0.0465 -0.2950  0.1112
 1707TIP3    H126536   3.051   5.046  13.361 -0.1038 -0.1676  0.2325
 1707TIP3    H226537   3.168   5.056  13.265  0.3901 -0.7066  0.7752
 1708TIP3   OH226538   5.870   5.209   2.948  0.0152  0.8066 -0.9472
 1708TIP3    H126539   5.781   5.233   2.973  0.2165  0.6150 -0.0109
 1708TIP3    H226540   5.868   5.113   2.943 -0.7320  0.9399 -4.4481
 1709TIP3   OH226541   4.968   6.390  14.259 -0.0868  0.4699  0.0969
 1709TIP3    H126542   4.877   6.371  14.237 -0.3034 -0.4119  1.6853
 1709TIP3    H226543   4.981   6.480  14.230 -1.3209  0.4424 -0.5760
 1710TIP3   OH226544   2.393   6.499   6.131  0.1526 -0.0222  0.2973
 1710TIP3    H126545   2.304   6.466   6.145 -0.7094  1.1231 -2.0519
 1710TIP3    H226546   2.395   6.583   6.176 -0.3832  0.5200 -0.6664
 1711TIP3   OH226547   0.242   2.506  13.799 -0.2116 -0.4696 -0.1147
 1711TIP3    H126548   0.193   2.432  13.834  1.0103 -1.9855 -1.4724
 1711TIP3    H226549   0.310   2.466  13.744 -0.3967  1.7016 -2.0394
 1712TIP3   OH226550   2.871   1.653   4.608  0.9250 -0.6142 -0.3914
 1712TIP3    H126551   2.890   1.642   4.701  0.9712 -2.9011 -0.6546
 1712TIP3    H226552   2.776   1.662   4.604  1.0024  0.4863 -0.0532
 1713TIP3   OH226553   3.099   5.218  14.632 -0.2758  0.8345  0.3457
 1713TIP3    H126554   3.148   5.293  14.599 -0.3601 -0.7977 -3.6544
 1713TIP3    H226555   3.164   5.164  14.677  0.1512  2.2656  1.4979
 1714TIP3   OH226556   5.048   4.862   0.695 -0.3539  0.4464  0.3513
 1714TIP3    H126557   5.094   4.860   0.611 -0.8337 -0.1268  0.0986
 1714TIP3    H226558   5.000   4.779   0.698 -1.2155  0.9496  0.6916
 1715TIP3   OH226559   3.742   4.756  11.604  0.3067  0.0929  0.9299
 1715TIP3    H126560   3.733   4.820  11.533  0.0035  1.5193  2.2521
 1715TIP3    H226561   3.668   4.696  11.592  1.7650 -1.3242 -1.5923
 1716TIP3   OH226562   0.625   5.281  17.176 -0.4485 -0.1569  0.1655
 1716TIP3    H126563   0.587   5.362  17.211  0.1066  1.0046 -1.8151
 1716TIP3    H226564   0.652   5.304  17.087 -0.0544 -2.4739 -0.3450
 1717TIP3   OH226565   3.503   3.379   0.225 -0.4813 -0.5935  0.2081
 1717TIP3    H126566   3.573   3.335   0.177 -0.5246 -0.5240  0.0823
 1717TIP3    H226567   3.495   3.329   0.306  0.1400 -0.2255  0.4981
 1718TIP3   OH226568   0.212   0.377   0.740 -0.2810  0.3248  1.1435
 1718TIP3    H126569   0.295   0.420   0.760  0.7026 -0.8614 -0.2441
 1718TIP3    H226570   0.196   0.319   0.815  0.2253  0.4442  1.3441
 1719TIP3   OH226571   3.992   0.572  16.485  0.1388 -0.2420  0.6078
 1719TIP3    H126572   4.069   0.567  16.429  0.3912  0.7084  0.8689
 1719TIP3    H226573   3.955   0.659  16.468 -0.7702 -0.6197  0.6158
 1720TIP3   OH226574   1.930   4.964  16.818 -0.6244  0.2562 -0.6264
 1720TIP3    H126575   1.954   4.984  16.727  1.1105 -1.4703 -0.5942
 1720TIP3    H226576   1.885   4.879  16.813  1.4400 -0.9489  0.3138
 1721TIP3   OH226577   4.283   5.195  12.469  0.1347  0.3354 -0.1413
 1721TIP3    H126578   4.216   5.154  12.414 -0.2009  0.9664 -0.2035
 1721TIP3    H226579   4.299   5.280  12.429 -0.5799  1.0752  1.0802
 1722TIP3   OH226580   2.399   4.107   2.246 -0.2838 -0.4158 -0.5604
 1722TIP3    H126581   2.452   4.045   2.296 -1.7636 -0.5709  0.8370
 1722TIP3    H226582   2.444   4.191   2.257 -1.3710 -0.1716  2.2376
 1723TIP3   OH226583   0.043   0.147   1.659 -0.0710  0.3754  0.2298
 1723TIP3    H126584   0.110   0.147   1.590  0.2142  0.3012  0.5030
 1723TIP3    H226585  -0.040   0.152   1.612  0.1546  1.1981 -0.0851
 1724TIP3   OH226586   5.977   6.470  10.054 -0.0991  0.4513 -0.1734
 1724TIP3    H126587   5.917   6.427  10.115 -0.5967  0.7274 -0.4615
 1724TIP3    H226588   5.992   6.406   9.985 -0.0883  0.3894 -0.1144
 1725TIP3   OH226589   5.946   6.758  11.975  0.5859  0.2721 -0.0405
 1725TIP3    H126590   5.901   6.842  11.964  0.2375  0.0159 -0.6474
 1725TIP3    H226591   5.914   6.725  12.059  0.2746  0.4851 -0.0723
 1726TIP3   OH226592   0.857   1.881  13.380 -0.1338 -0.0766  0.5225
 1726TIP3    H126593   0.927   1.903  13.319 -0.3393  1.3840  0.8033
 1726TIP3    H226594   0.840   1.962  13.427 -1.6223 -0.5728  0.8550
 1727TIP3   OH226595   2.802   0.356   2.376 -0.5565  0.3451  0.6853
 1727TIP3    H126596   2.862   0.302   2.325 -0.5351  0.3763  0.6777
 1727TIP3    H226597   2.791   0.308   2.459 -0.5016  0.3524  0.6966
 1728TIP3   OH226598   5.581   2.929  15.065 -0.2937 -0.0029  0.4568
 1728TIP3    H126599   5.524   3.003  15.087 -0.9375 -0.5347  0.6256
 1728TIP3    H226600   5.571   2.920  14.970 -1.7081 -1.0485  0.6787
 1729TIP3   OH226601   0.739   0.686   5.466  0.3905 -0.0805 -0.1219
 1729TIP3    H126602   0.706   0.679   5.376 -1.6843 -0.0502  0.6032
 1729TIP3    H226603   0.777   0.773   5.470 -1.3935  0.7451 -0.4098
 1730TIP3   OH226604   6.003   3.284  16.169  0.3115 -0.4028  0.3053
 1730TIP3    H126605   5.911   3.268  16.148 -0.1312  0.7458  1.2693
 1730TIP3    H226606   6.003   3.371  16.208  2.1264  0.5037 -1.6407
 1731TIP3   OH226607   0.750   2.605  11.033  0.6601 -0.1214 -0.1585
 1731TIP3    H126608   0.752   2.641  10.944  1.2565 -1.3820 -0.6625
 1731TIP3    H226609   0.672   2.548  11.033  0.9164 -0.4712 -0.0137
 1732TIP3   OH226610   4.857   6.614  14.535 -0.4463  0.7615 -0.7253
 1732TIP3    H126611   4.820   6.527  14.551  1.2363  0.6250  2.5853
 1732TIP3    H226612   4.830   6.666  14.610  1.7692  2.0761 -0.8166
 1733TIP3   OH226613   5.955   5.231   1.234  0.4310 -0.7292 -0.4605
 1733TIP3    H126614   5.967   5.172   1.159  2.1594 -2.0508  0.8094
 1733TIP3    H226615   5.896   5.183   1.293 -1.7963  0.7585 -1.3911
 1734TIP3   OH226616   3.064   0.177   2.478  0.4086  0.5856  0.2981
 1734TIP3    H126617   3.106   0.230   2.410  0.0285  0.7093  0.1587
 1734TIP3    H226618   3.049   0.092   2.436  1.4643  0.1999  0.6730
 1735TIP3   OH226619   6.521   4.486  12.427  0.0138  0.4566  0.3320
 1735TIP3    H126620   6.472   4.529  12.356  2.0949 -0.1163 -1.5021
 1735TIP3    H226621   6.560   4.558  12.476 -1.2176  0.8512  0.7492
 1736TIP3   OH226622   2.359   2.746  16.908 -0.3256 -0.1014  0.0565
 1736TIP3    H126623   2.333   2.682  16.975 -0.7414  0.7203  0.6948
 1736TIP3    H226624   2.454   2.749  16.914 -0.3588 -0.0211  0.6423
 1737TIP3   OH226625   6.394   6.229  16.162 -0.4943 -0.3826  0.1163
 1737TIP3    H126626   6.488   6.233  16.181 -0.4935 -0.6465  0.1714
 1737TIP3    H226627   6.383   6.151  16.109 -0.3338  0.9830 -1.9874
 1738TIP3   OH226628   4.314   4.978   1.039  0.2168 -0.1767 -0.3993
 1738TIP3    H126629   4.352   5.060   1.007 -0.0904  0.6304  1.2369
 1738TIP3    H226630   4.223   4.980   1.011  0.6557 -0.7970 -1.8948
 1739TIP3   OH226631   1.007   5.381  15.335 -0.0735  0.3185 -0.3621
 1739TIP3    H126632   1.084   5.415  15.380  0.6299 -1.2254 -0.3454
 1739TIP3    H226633   1.036   5.365  15.245 -0.5306  0.2830 -0.5069
 1740TIP3   OH226634   0.754   3.306  12.192  0.6137 -0.0109  0.5320
 1740TIP3    H126635   0.779   3.232  12.248 -0.0628  0.1677  1.0817
 1740TIP3    H226636   0.658   3.306  12.195  0.6144  1.2344  1.0008
 1741TIP3   OH226637   2.347   3.827   2.396  0.1968 -0.2471 -0.2542
 1741TIP3    H126638   2.297   3.879   2.333 -0.0971 -0.5100 -0.2422
 1741TIP3    H226639   2.438   3.839   2.371  0.0457 -0.8178 -1.0872
 1742TIP3   OH226640   3.715   6.292  16.257  0.2419  0.1932  0.5212
 1742TIP3    H126641   3.719   6.343  16.177  1.9480 -0.2013  0.3358
 1742TIP3    H226642   3.759   6.346  16.322  1.5406 -0.7862  0.4606
 1743TIP3   OH226643   2.559   2.063   0.860  0.0052 -0.1949 -0.6237
 1743TIP3    H126644   2.502   2.140   0.858 -0.5637 -0.6254 -1.0136
 1743TIP3    H226645   2.499   1.989   0.864  0.5397 -0.6509 -1.0691
 1744TIP3   OH226646   0.003   2.342   0.441  0.1460 -0.3788 -0.0187
 1744TIP3    H126647   0.028   2.392   0.518 -0.6531 -1.5074  0.9927
 1744TIP3    H226648   0.077   2.283   0.425  0.7368  0.5409 -0.7223
 1745TIP3   OH226649   5.876   6.421   3.322 -0.3964  0.9797 -0.0421
 1745TIP3    H126650   5.889   6.466   3.406 -0.5102 -1.5982  1.4058
 1745TIP3    H226651   5.790   6.451   3.292 -0.6356  1.4424  1.0856
 1746TIP3   OH226652   0.121   1.624   4.279 -0.2428 -0.2430  0.1210
 1746TIP3    H126653   0.096   1.597   4.367  1.0019  3.0065  1.5511
 1746TIP3    H226654   0.038   1.640   4.234 -0.8725 -0.3716  1.2278
 1747TIP3   OH226655   2.345   5.910   6.482 -0.2810 -0.0115  0.6291
 1747TIP3    H126656   2.267   5.963   6.464 -0.2702 -1.1252 -2.9329
 1747TIP3    H226657   2.416   5.974   6.491 -0.9028  0.7748  0.0045
 1748TIP3   OH226658   0.853   5.174  14.772 -0.3662 -0.3291  0.1160
 1748TIP3    H126659   0.866   5.268  14.773 -2.0474 -0.0775  0.7156
 1748TIP3    H226660   0.782   5.159  14.835 -0.9009 -1.8629 -0.8204
 1749TIP3   OH226661   2.848   5.856   2.469 -0.0203  0.1502 -0.4662
 1749TIP3    H126662   2.923   5.890   2.518 -0.4942 -0.7545  0.9193
 1749TIP3    H226663   2.884   5.786   2.414  0.0429 -0.7895  0.7510
 1750TIP3   OH226664   4.498   6.340   4.915  0.4553  0.0068 -0.2633
 1750TIP3    H126665   4.498   6.251   4.950 -0.2350  0.2885  0.4773
 1750TIP3    H226666   4.405   6.363   4.909  0.6548  2.0661  3.1592
 1751TIP3   OH226667   4.049   3.422  16.140  0.3792  0.0280 -0.2441
 1751TIP3    H126668   3.983   3.409  16.209  0.0262 -0.1041 -0.6087
 1751TIP3    H226669   4.126   3.453  16.188 -0.0530  0.5170  0.1496
 1752TIP3   OH226670   3.296   0.563  11.205  0.2536  0.1427  0.8435
 1752TIP3    H126671   3.278   0.652  11.176  3.3729  0.2345 -1.0438
 1752TIP3    H226672   3.319   0.515  11.125  0.9108 -1.7510  2.1135
 1753TIP3   OH226673   4.132   6.342  12.885 -0.7105  0.2303  0.8697
 1753TIP3    H126674   4.169   6.266  12.928  2.0231  2.6971  3.0143
 1753TIP3    H226675   4.195   6.365  12.817 -1.3604  0.8101  0.4455
 1754TIP3   OH226676   1.287   5.318  16.687  0.1935  0.5622  0.6497
 1754TIP3    H126677   1.212   5.357  16.643  1.4814 -0.6769 -2.7558
 1754TIP3    H226678   1.355   5.385  16.684  0.6098  0.1109 -0.1974
 1755TIP3   OH226679   3.710   1.477   4.155  0.0803 -0.1584  0.4756
 1755TIP3    H126680   3.630   1.530   4.161  0.0196 -0.1421 -0.3202
 1755TIP3    H226681   3.679   1.388   4.142  0.1878 -0.1649  0.2550
 1756TIP3   OH226682   0.824   5.546  14.845 -0.1755  0.6238  0.1827
 1756TIP3    H126683   0.914   5.576  14.834 -0.0238 -0.7180 -2.6572
 1756TIP3    H226684   0.774   5.590  14.776 -1.3913  0.0605  0.6724
 1757TIP3   OH226685   2.124   2.283  12.125  0.1493  0.3705 -0.1430
 1757TIP3    H126686   2.118   2.197  12.166  0.4089  0.1274 -0.6078
 1757TIP3    H226687   2.217   2.305  12.129  0.2442  0.1302 -1.0425
 1758TIP3   OH226688   5.023   5.419   3.371  0.0532 -0.6976 -0.6715
 1758TIP3    H126689   5.108   5.377   3.380  0.5047  0.4132  0.2746
 1758TIP3    H226690   5.042   5.511   3.359 -1.0407 -0.3365  0.2528
 1759TIP3   OH226691   2.670   5.514   5.043 -0.7580 -0.7666  0.1341
 1759TIP3    H126692   2.744   5.488   5.098 -0.7581 -1.0775 -0.0121
 1759TIP3    H226693   2.704   5.506   4.953 -0.7710 -0.3101  0.0871
 1760TIP3   OH226694   3.912   1.887  15.691 -0.0580  0.3533  0.1606
 1760TIP3    H126695   4.008   1.885  15.696 -0.0004  0.2788 -0.9449
 1760TIP3    H226696   3.894   1.941  15.614 -0.9046 -0.0921  0.0527
 1761TIP3   OH226697   6.022   6.601   0.578  0.4109  0.0169 -0.1827
 1761TIP3    H126698   5.980   6.675   0.624  0.0373  0.2426 -0.8853
 1761TIP3    H226699   6.104   6.587   0.626  0.2584  0.5768  0.2505
 1762TIP3   OH226700   6.723   3.106   1.517 -0.4546  0.5390 -0.1172
 1762TIP3    H126701   6.632   3.098   1.487 -0.3504  1.0071 -0.5637
 1762TIP3    H226702   6.729   3.195   1.551 -0.2210  0.4378  0.1059
 1763TIP3   OH226703   6.087   0.962  12.099 -0.1160 -0.0087  0.0720
 1763TIP3    H126704   6.116   1.039  12.148  2.3110 -0.0394 -1.2398
 1763TIP3    H226705   6.096   0.889  12.161  0.9258  0.2517  0.2267
 1764TIP3   OH226706   6.178   1.853   1.424 -0.3096 -0.5951  0.4455
 1764TIP3    H126707   6.263   1.851   1.469 -0.9578  0.2562  1.7420
 1764TIP3    H226708   6.115   1.823   1.491 -1.1188 -0.6035 -0.3089
 1765TIP3   OH226709   6.069   2.635  16.535 -0.5991  0.6827  0.4899
 1765TIP3    H126710   6.128   2.599  16.602 -0.7855 -1.0586 -0.2709
 1765TIP3    H226711   6.127   2.668  16.467 -0.4330  1.7671  1.1354
 1766TIP3   OH226712   5.330   4.205  12.684  0.0436  0.1783  0.4797
 1766TIP3    H126713   5.299   4.253  12.608  2.9624 -0.8303 -1.4211
 1766TIP3    H226714   5.293   4.118  12.674  0.1086  0.1567  0.4279
 1767TIP3   OH226715   4.201   5.275   2.189 -0.7807  0.6573  0.4067
 1767TIP3    H126716   4.277   5.217   2.176  0.2940  1.5949  2.2359
 1767TIP3    H226717   4.152   5.234   2.260 -1.3815  0.6490 -0.0136
 1768TIP3   OH226718   2.469   2.598   5.688 -0.0973 -0.2621  0.2964
 1768TIP3    H126719   2.426   2.513   5.673  0.7088 -0.6948  0.3823
 1768TIP3    H226720   2.560   2.575   5.708 -0.5824  0.4379  3.5253
 1769TIP3   OH226721   1.305   3.504  10.863 -0.1055  0.2632  0.2815
 1769TIP3    H126722   1.327   3.552  10.943  0.2867  1.8519 -0.7584
 1769TIP3    H226723   1.387   3.501  10.813 -0.1209 -1.5031  0.3136
 1770TIP3   OH226724   5.929   4.616  16.137  0.4063  0.4617 -0.4955
 1770TIP3    H126725   5.888   4.655  16.060 -0.7656 -1.1714 -0.7134
 1770TIP3    H226726   5.877   4.648  16.211 -0.8975 -1.0754 -0.7178
 1771TIP3   OH226727   4.654   6.626  13.499 -0.0372 -0.0027 -0.0419
 1771TIP3    H126728   4.608   6.662  13.575  1.1186  1.2816  0.0691
 1771TIP3    H226729   4.647   6.695  13.433 -1.2864 -1.2277 -1.2241
 1772TIP3   OH226730   1.814   2.178  12.655  0.0172 -0.5597  0.0516
 1772TIP3    H126731   1.719   2.184  12.667 -0.4797 -4.5850 -1.1473
 1772TIP3    H226732   1.840   2.104  12.710  2.2528 -0.3694 -0.7025
 1773TIP3   OH226733   3.676   6.105   5.682 -0.4916 -0.0493 -0.0415
 1773TIP3    H126734   3.702   6.147   5.600 -0.4020 -2.4218 -1.2727
 1773TIP3    H226735   3.683   6.011   5.664 -1.5894 -0.6189  2.3329
 1774TIP3   OH226736   3.334   3.549   6.368  0.6608  0.2329  0.1254
 1774TIP3    H126737   3.389   3.604   6.312  0.3246 -0.0417 -0.4672
 1774TIP3    H226738   3.267   3.514   6.310 -2.0154  3.0028  1.3645
 1775TIP3   OH226739   2.910   5.309   4.017 -0.3721 -0.1787 -0.0158
 1775TIP3    H126740   2.892   5.216   4.008 -1.1451  0.2271 -3.0045
 1775TIP3    H226741   2.824   5.350   4.026 -0.1420  0.4320 -0.5575
 1776TIP3   OH226742   2.935   6.324  14.859 -0.1557 -0.6369 -0.5724
 1776TIP3    H126743   2.951   6.231  14.843  0.6478 -1.2994  3.4750
 1776TIP3    H226744   2.840   6.332  14.864 -0.1973 -1.5257  0.2845
 1777TIP3   OH226745   3.162   5.467  15.090  0.0389 -0.4994 -0.5826
 1777TIP3    H126746   3.076   5.424  15.091 -1.3932  2.2203 -0.8131
 1777TIP3    H226747   3.154   5.534  15.021  2.3328 -0.1784 -0.5751
 1778TIP3   OH226748   3.331   6.370  16.846  0.0959 -0.0319 -0.4412
 1778TIP3    H126749   3.394   6.320  16.794 -1.2259 -2.2286 -0.0058
 1778TIP3    H226750   3.249   6.320  16.838 -1.2950  2.1437 -0.0675
 1779TIP3   OH226751   2.660   2.733   1.847  0.0245  0.1013  0.4271
 1779TIP3    H126752   2.581   2.692   1.881  0.3509  0.9568  2.3492
 1779TIP3    H226753   2.685   2.795   1.916  1.4521  1.0000 -0.8733
 1780TIP3   OH226754   0.786   1.628  16.248 -0.0615  0.2865  0.2765
 1780TIP3    H126755   0.868   1.635  16.296 -0.2034 -2.4942  1.0440
 1780TIP3    H226756   0.777   1.534  16.230 -1.8637  0.8412 -1.9278
 1781TIP3   OH226757   0.242   6.436  10.804 -0.1485  0.1163  0.3598
 1781TIP3    H126758   0.161   6.481  10.825  0.3883  0.4237  1.8156
 1781TIP3    H226759   0.270   6.473  10.720 -1.1385  0.5036  0.2025
 1782TIP3   OH226760   3.167   5.687  14.901  0.2802 -0.3598  0.0384
 1782TIP3    H126761   3.104   5.695  14.828  0.5300  0.1405 -0.1272
 1782TIP3    H226762   3.246   5.651  14.861  0.5895  0.3933 -0.0459
 1783TIP3   OH226763   3.148   4.935  16.072 -0.6001  0.2445 -0.0364
 1783TIP3    H126764   3.151   4.962  16.164  0.2146 -1.0616  0.3463
 1783TIP3    H226765   3.184   4.846  16.073  2.8684  1.5200 -2.1271
 1784TIP3   OH226766   3.933   3.566   5.871  0.2812  0.2177 -0.1958
 1784TIP3    H126767   3.973   3.625   5.935  0.0626  0.7824 -0.5754
 1784TIP3    H226768   3.997   3.561   5.800  0.5482 -0.4523  0.0877
 1785TIP3   OH226769   4.027   0.270  11.341 -0.0921 -0.1383 -0.8991
 1785TIP3    H126770   4.014   0.234  11.253 -1.8410  0.7017 -1.0111
 1785TIP3    H226771   3.949   0.243  11.389  0.4738  0.1193  0.1696
 1786TIP3   OH226772   4.450   0.102  12.750 -0.1020  0.1623  0.3562
 1786TIP3    H126773   4.392   0.160  12.800 -0.4402  0.7522 -0.7129
 1786TIP3    H226774   4.499   0.161  12.693  1.1032 -0.3930  0.7806
 1787TIP3   OH226775   1.042   0.765   3.032 -0.1590 -0.3350  0.2822
 1787TIP3    H126776   1.046   0.844   3.085 -0.2803  0.0729 -0.3101
 1787TIP3    H226777   1.122   0.717   3.054  0.4846  0.4960 -0.2026
 1788TIP3   OH226778   4.937   3.923  14.902  0.3864  0.0024 -0.3206
 1788TIP3    H126779   4.952   3.947  14.994 -0.4489  0.3163 -0.2678
 1788TIP3    H226780   4.899   4.001  14.863  0.6677 -0.1619 -0.9231
 1789TIP3   OH226781   1.960   6.739  11.723  0.3040  0.3762  0.4615
 1789TIP3    H126782   1.939   6.798  11.650  3.4645 -0.8679 -1.5728
 1789TIP3    H226783   1.888   6.677  11.726 -0.9782  1.8117 -0.1063
 1790TIP3   OH226784   1.515   6.538  15.932 -0.6413  0.1196 -0.2075
 1790TIP3    H126785   1.468   6.573  16.008  0.3520  0.7804  0.1173
 1790TIP3    H226786   1.599   6.584  15.933 -0.3572 -0.3622 -1.3207
 1791TIP3   OH226787   4.863   0.627  17.184 -0.1082 -0.5599 -0.5097
 1791TIP3    H126788   4.860   0.624  17.280  0.4798  1.0933 -0.4287
 1791TIP3    H226789   4.949   0.663  17.163 -0.3086 -0.7272 -1.6607
 1792TIP3   OH226790   2.933   4.057  12.308  0.1042 -0.9182  0.5404
 1792TIP3    H126791   2.997   4.027  12.373 -0.5181 -0.7261  1.2443
 1792TIP3    H226792   2.921   3.982  12.250  2.1846 -0.4312 -0.5576
 1793TIP3   OH226793   1.990   5.147   0.424 -0.3589 -0.1337  0.4879
 1793TIP3    H126794   2.037   5.120   0.502  0.1593  1.3297  0.6994
 1793TIP3    H226795   1.966   5.238   0.440 -0.1571  0.2180 -1.0927
 1794TIP3   OH226796   6.622   3.428   4.185 -0.1808  0.0371 -0.1707
 1794TIP3    H126797   6.602   3.513   4.224 -1.4205  0.2393 -1.2078
 1794TIP3    H226798   6.551   3.413   4.122 -0.0512 -1.8350  0.1083
 1795TIP3   OH226799   3.981   3.940  12.332 -0.4750  0.1163  0.2366
 1795TIP3    H126800   4.063   3.966  12.290  0.4429 -0.8863  1.3940
 1795TIP3    H226801   3.988   3.972  12.422  0.0688 -2.8180  1.2738
 1796TIP3   OH226802   6.621   4.391  11.300 -0.0233 -0.5450 -0.2131
 1796TIP3    H126803   6.690   4.339  11.259 -0.1969 -1.6121  0.8483
 1796TIP3    H226804   6.620   4.472  11.249  2.3967 -0.2766  0.0691
 1797TIP3   OH226805   6.412   5.551  13.413  0.7208  0.6271 -0.3628
 1797TIP3    H126806   6.382   5.462  13.433 -0.0677  1.4181  2.0963
 1797TIP3    H226807   6.495   5.539  13.366  0.4382 -1.4067 -0.3645
 1798TIP3   OH226808   3.795   3.747  14.193  0.1958  0.2185  0.0382
 1798TIP3    H126809   3.782   3.841  14.184 -0.7376  0.2273  1.2877
 1798TIP3    H226810   3.888   3.737  14.214  0.3386  0.8405 -0.2923
 1799TIP3   OH226811   1.471   4.781   4.031  0.0396 -0.0101  0.0175
 1799TIP3    H126812   1.542   4.721   4.054  1.2427  1.8635  1.2733
 1799TIP3    H226813   1.486   4.802   3.939 -1.7754 -3.4260 -1.1630
 1800TIP3   OH226814   0.634   3.516   6.023 -0.2098 -0.1021  0.1138
 1800TIP3    H126815   0.684   3.542   5.945 -0.6676 -0.7741 -0.4011
 1800TIP3    H226816   0.690   3.542   6.096 -0.0668  1.1324 -0.4189
 1801TIP3   OH226817   4.147   0.235   2.354  0.2200 -0.5227 -0.2896
 1801TIP3    H126818   4.092   0.192   2.419 -0.3571 -0.5270 -0.7848
 1801TIP3    H226819   4.088   0.293   2.306  0.9134  0.5301  0.1088
 1802TIP3   OH226820   6.595   1.510   5.000  0.2399 -0.4795 -0.3055
 1802TIP3    H126821   6.531   1.543   4.937 -0.1318  0.4504  0.5625
 1802TIP3    H226822   6.543   1.485   5.076  0.8822 -0.0436  0.2720
 1803TIP3   OH226823   5.579   1.964  12.465 -0.1193 -0.0739  0.2293
 1803TIP3    H126824   5.484   1.972  12.473 -0.2951  0.3958 -2.0607
 1803TIP3    H226825   5.610   2.054  12.450  0.6248 -0.3069  0.3363
 1804TIP3   OH226826   5.728   0.749  14.310 -0.3561 -0.1803 -0.3545
 1804TIP3    H126827   5.752   0.685  14.377 -0.0269  1.6411  1.3112
 1804TIP3    H226828   5.805   0.755  14.254  0.0647 -0.3314  0.2063
 1805TIP3   OH226829   4.842   1.696  12.711  0.1254 -0.2824 -0.2977
 1805TIP3    H126830   4.812   1.735  12.629 -1.1631 -1.7436 -0.5512
 1805TIP3    H226831   4.816   1.604  12.704  0.4638 -0.5303  1.5322
 1806TIP3   OH226832   6.205   1.682  12.149  0.6345 -0.2584 -0.4364
 1806TIP3    H126833   6.237   1.657  12.063 -0.9229 -0.4135 -0.9927
 1806TIP3    H226834   6.129   1.737  12.131 -1.4347 -2.6184  0.8274
 1807TIP3   OH226835   4.770   6.158   6.285 -0.6858 -0.2819 -0.1552
 1807TIP3    H126836   4.734   6.131   6.201  1.0305 -0.3768 -0.8868
 1807TIP3    H226837   4.793   6.076   6.329  1.4670 -0.1554 -0.9940
 1808TIP3   OH226838   3.917   0.937   4.363  0.2866 -0.0807 -0.2223
 1808TIP3    H126839   3.967   0.996   4.420 -1.4747 -0.0069  1.3072
 1808TIP3    H226840   3.861   0.994   4.311 -0.1455 -0.3006 -0.0027
 1809TIP3   OH226841   3.006   5.593  15.337 -0.2493 -0.4506  0.0207
 1809TIP3    H126842   3.076   5.579  15.272  0.2089 -0.0242  0.4109
 1809TIP3    H226843   3.053   5.609  15.419 -0.8367 -1.6197  0.5965
 1810TIP3   OH226844   5.888   4.839  14.801  0.4128 -0.2692 -0.0275
 1810TIP3    H126845   5.857   4.908  14.742  2.2566  0.7299  0.1209
 1810TIP3    H226846   5.921   4.770  14.743  0.3616 -0.1749 -0.1682
 1811TIP3   OH226847   6.174   3.061  15.874 -0.2515  0.0269  0.0171
 1811TIP3    H126848   6.106   3.045  15.939 -0.1527  0.3253  0.1955
 1811TIP3    H226849   6.132   3.041  15.790  0.1584 -2.0919  0.2918
 1812TIP3   OH226850   3.934   0.096  16.747 -0.0206  0.6327  0.5720
 1812TIP3    H126851   4.005   0.159  16.730 -0.8978  1.6725  0.6954
 1812TIP3    H226852   3.855   0.141  16.717 -0.5403 -0.8088 -0.2416
 1813TIP3   OH226853   0.568   0.836  13.825  0.1866  0.1490  0.9511
 1813TIP3    H126854   0.498   0.806  13.883 -1.3009  0.7586 -0.5017
 1813TIP3    H226855   0.524   0.892  13.761  2.5286  3.7148  2.2806
 1814TIP3   OH226856   5.978   3.099   2.903  0.0288 -0.4070 -0.5636
 1814TIP3    H126857   6.041   3.027   2.896 -0.7476 -0.8982 -3.3619
 1814TIP3    H226858   6.031   3.176   2.921  1.5989 -0.6507 -3.7731
 1815TIP3   OH226859   2.448   0.142   1.952  0.0958  0.2051 -0.2258
 1815TIP3    H126860   2.383   0.073   1.966 -0.2890  0.4769 -0.6282
 1815TIP3    H226861   2.532   0.099   1.964 -0.1482 -0.2826 -0.2433
 1816TIP3   OH226862   2.701   1.091   1.829  0.1488  0.1297  0.5214
 1816TIP3    H126863   2.660   1.118   1.747  0.0613 -0.9145  0.2157
 1816TIP3    H226864   2.716   1.173   1.876  0.7643  0.7940 -0.8042
 1817TIP3   OH226865   4.012   2.299   4.102 -0.7119  0.3563 -0.1444
 1817TIP3    H126866   3.918   2.317   4.102 -1.2179 -2.0016 -1.5209
 1817TIP3    H226867   4.050   2.364   4.043 -1.9875 -0.9129 -2.3962
 1818TIP3   OH226868   1.787   2.391   4.277 -0.0815  0.2961  0.3336
 1818TIP3    H126869   1.815   2.322   4.338 -1.9380 -0.4413  0.3706
 1818TIP3    H226870   1.849   2.385   4.204  0.7898 -0.2920  1.1050
 1819TIP3   OH226871   0.194   3.915   2.586 -0.3398  0.0436 -0.3444
 1819TIP3    H126872   0.265   3.975   2.561 -0.0143 -0.7953 -1.4832
 1819TIP3    H226873   0.148   3.897   2.504 -1.0495 -0.4771  0.1629
 1820TIP3   OH226874   2.064   3.972  16.041 -0.6520  0.2909 -0.1498
 1820TIP3    H126875   2.070   4.006  15.951 -0.1694  1.1973  0.2189
 1820TIP3    H226876   2.138   3.913  16.050  0.5017  1.7906  0.3185
 1821TIP3   OH226877   5.239   4.448  11.145  0.7514  0.0875  0.1812
 1821TIP3    H126878   5.231   4.356  11.120  0.6427  0.3950 -0.9624
 1821TIP3    H226879   5.205   4.452  11.234 -0.7355 -0.6939 -0.3389
 1822TIP3   OH226880   5.707   0.548  15.357  0.9155 -0.1218  0.2369
 1822TIP3    H126881   5.623   0.502  15.355  0.1312  1.3319 -0.4670
 1822TIP3    H226882   5.686   0.638  15.335  2.6590  0.2684  0.1136
 1823TIP3   OH226883   3.086   3.790   3.651 -0.0844 -0.3584  0.2928
 1823TIP3    H126884   3.003   3.816   3.692  0.0196  0.2468  0.1156
 1823TIP3    H226885   3.060   3.740   3.574 -0.2982  1.4978 -0.8542
 1824TIP3   OH226886   0.172   0.056  13.084 -0.4641  0.2941  0.4471
 1824TIP3    H126887   0.196   0.039  13.175  3.2554 -2.9650 -1.0133
 1824TIP3    H226888   0.206   0.143  13.066  1.7468 -0.3580  1.2890
 1825TIP3   OH226889   5.746   3.730  12.427 -0.2250  0.0523  0.3171
 1825TIP3    H126890   5.790   3.811  12.402 -0.2596 -0.2647 -0.8165
 1825TIP3    H226891   5.652   3.750  12.419 -0.2380 -0.0321  0.2536
 1826TIP3   OH226892   5.221   6.030   4.347  0.3175  0.2464 -0.5398
 1826TIP3    H126893   5.253   5.946   4.378  0.0781  0.4693  0.3035
 1826TIP3    H226894   5.167   6.009   4.270  1.3313 -0.2475 -1.1221
 1827TIP3   OH226895   4.171   4.061   3.262  0.4215  0.0645  0.0992
 1827TIP3    H126896   4.160   4.150   3.229  0.3131  0.9473  2.4373
 1827TIP3    H226897   4.209   4.071   3.349  0.8935 -2.2015  0.2046
 1828TIP3   OH226898   6.043   1.472   2.508 -0.3048  0.0908  0.4310
 1828TIP3    H126899   6.090   1.433   2.435  0.7512 -1.0199  1.6839
 1828TIP3    H226900   6.056   1.566   2.498 -0.6419 -0.0156 -1.1125
 1829TIP3   OH226901   0.514   2.004   0.599 -0.4268  0.8630 -0.5292
 1829TIP3    H126902   0.557   1.998   0.685 -0.9103  0.7801 -0.2925
 1829TIP3    H226903   0.421   2.016   0.619 -1.0067 -2.3535 -1.0425
 1830TIP3   OH226904   3.592   0.787   3.086  0.5611  0.0589 -0.0738
 1830TIP3    H126905   3.657   0.822   3.146 -1.8370  1.1156  1.9729
 1830TIP3    H226906   3.563   0.863   3.036 -0.4267 -0.0801  0.2928
 1831TIP3   OH226907   5.002   4.795   4.088  0.2759  0.4268  0.6105
 1831TIP3    H126908   4.918   4.836   4.107 -0.7498 -0.0648 -2.5066
 1831TIP3    H226909   4.994   4.707   4.125 -1.0174  0.0295 -0.5596
 1832TIP3   OH226910   5.359   1.890   3.968 -0.0946 -0.2003  0.0842
 1832TIP3    H126911   5.303   1.864   4.041  0.5375  2.3628  1.5523
 1832TIP3    H226912   5.300   1.898   3.893 -1.2337 -0.2181  0.9769
 1833TIP3   OH226913   5.785   0.930   3.964 -0.4576  0.1299 -0.1939
 1833TIP3    H126914   5.736   0.960   4.040 -0.9635  1.9584 -1.2138
 1833TIP3    H226915   5.860   0.883   4.000 -2.0391 -1.2357  1.4059
 1834TIP3   OH226916   4.074   1.602   5.424  0.2548  0.1764 -0.0514
 1834TIP3    H126917   4.105   1.582   5.512 -0.1155  0.4060  0.1289
 1834TIP3    H226918   4.125   1.679   5.397 -0.4925  0.8466  0.4296
 1835TIP3   OH226919   2.631   4.068  14.524 -0.2166 -0.2023 -0.0210
 1835TIP3    H126920   2.638   3.975  14.502 -0.4388 -0.0576 -0.7036
 1835TIP3    H226921   2.676   4.075  14.609  0.6017 -0.7684 -0.3982
 1836TIP3   OH226922   3.074   6.514   5.126 -0.2708  0.0363 -0.3884
 1836TIP3    H126923   3.132   6.590   5.122 -1.3333  0.7895 -2.0900
 1836TIP3    H226924   3.014   6.532   5.198  0.1348  0.3131 -0.1192
 1837TIP3   OH226925   4.681   6.133   2.241  0.1175  0.6573 -0.1461
 1837TIP3    H126926   4.605   6.124   2.299 -0.9041  0.9313 -1.4179
 1837TIP3    H226927   4.667   6.216   2.197  0.1823 -0.1774 -1.7633
 1838TIP3   OH226928   4.743   1.338  11.614 -0.1987 -0.5387 -0.1284
 1838TIP3    H126929   4.768   1.397  11.685 -1.1005 -1.5510  1.0354
 1838TIP3    H226930   4.753   1.391  11.535  0.8456  0.5897  0.7301
 1839TIP3   OH226931   2.303   3.564   2.729 -0.3289 -0.4282  0.1095
 1839TIP3    H126932   2.353   3.645   2.732 -1.4596  0.2583  1.6131
 1839TIP3    H226933   2.216   3.591   2.699 -0.5085 -1.1940 -0.0621
 1840TIP3   OH226934   4.003   6.592   5.816  0.6177  0.1957 -0.3445
 1840TIP3    H126935   4.093   6.619   5.796 -0.1677  2.2170 -1.4097
 1840TIP3    H226936   3.950   6.666   5.785 -1.2940 -0.2897  1.6995
 1841TIP3   OH226937   1.044   5.081  13.568 -0.2175 -0.0237  0.6615
 1841TIP3    H126938   1.053   5.153  13.504  0.9022 -1.5185 -0.9098
 1841TIP3    H226939   1.064   5.121  13.652  1.4963  1.2724 -0.3314
 1842TIP3   OH226940   0.527   1.257   5.763 -0.2127 -0.2507 -0.1319
 1842TIP3    H126941   0.527   1.343   5.805  0.4254 -0.9904  1.3980
 1842TIP3    H226942   0.436   1.244   5.735 -0.4961  0.5356  0.4161
 1843TIP3   OH226943   1.930   1.910   0.603 -0.2464 -0.0625 -0.2237
 1843TIP3    H126944   1.851   1.939   0.648  0.2424 -0.6640  1.0428
 1843TIP3    H226945   1.947   1.978   0.537 -1.4988  0.3392 -0.1423
 1844TIP3   OH226946   4.929   2.419   4.993  0.7881 -0.0143  0.5459
 1844TIP3    H126947   4.918   2.480   4.921  2.2862  0.9352  1.0912
 1844TIP3    H226948   4.958   2.474   5.067  1.5717 -1.2902  1.2040
 1845TIP3   OH226949   4.897   2.211  12.108 -0.4763  0.4998 -0.4195
 1845TIP3    H126950   4.972   2.165  12.070 -0.9599 -0.1135 -0.6442
 1845TIP3    H226951   4.859   2.261  12.036 -0.5656  0.4319 -0.4207
 1846TIP3   OH226952   1.525   2.404   5.200 -0.8160 -0.4445 -0.2704
 1846TIP3    H126953   1.547   2.310   5.201 -1.0485 -0.4901  0.8915
 1846TIP3    H226954   1.569   2.440   5.277  0.1710  0.6174 -1.3085
 1847TIP3   OH226955   0.455   1.573  15.407  0.1147  0.6536 -0.6141
 1847TIP3    H126956   0.486   1.650  15.455  0.2244 -0.2772  0.8593
 1847TIP3    H226957   0.534   1.528  15.379  0.0591  0.6377 -0.7452
 1848TIP3   OH226958   3.503   3.932  14.860 -0.0397  0.8283 -0.5895
 1848TIP3    H126959   3.493   3.987  14.938 -2.5843 -0.1021 -0.2168
 1848TIP3    H226960   3.423   3.948  14.809  1.1857  0.7501 -2.6051
 1849TIP3   OH226961   4.495   3.540   0.989  0.1888 -1.0023  0.4030
 1849TIP3    H126962   4.481   3.542   0.894 -0.0156 -0.8274  0.4376
 1849TIP3    H226963   4.414   3.573   1.026  1.3355  1.8815  0.5227
 1850TIP3   OH226964   6.499   0.071   0.146 -0.4875  0.2597 -0.4752
 1850TIP3    H126965   6.438   0.142   0.124  0.8955  1.5196 -0.3040
 1850TIP3    H226966   6.493   0.065   0.242 -0.5294  0.2066 -0.4811
 1851TIP3   OH226967   5.476   0.512   1.090 -0.6038 -0.0432 -0.4801
 1851TIP3    H126968   5.381   0.498   1.091 -0.2096 -3.1456 -1.8839
 1851TIP3    H226969   5.508   0.456   1.020  2.5463 -0.7615  1.4336
 1852TIP3   OH226970   0.607   0.077   2.384  0.0828 -0.2384 -0.3765
 1852TIP3    H126971   0.680   0.139   2.378  1.2629 -1.2731  2.6029
 1852TIP3    H226972   0.642  -0.005   2.348 -0.1309 -0.3002 -0.4439
 1853TIP3   OH226973   5.198   1.513   0.107  0.8780 -0.6775  0.2099
 1853TIP3    H126974   5.179   1.602   0.078 -1.3902 -0.5348  1.9573
 1853TIP3    H226975   5.293   1.505   0.099  0.9732  1.4501 -1.1950
 1854TIP3   OH226976   2.854   4.870   2.711 -0.2943 -0.6304 -0.2849
 1854TIP3    H126977   2.938   4.826   2.723 -0.5189 -0.4693  2.0975
 1854TIP3    H226978   2.807   4.856   2.793 -2.4799 -0.4228 -1.4502
 1855TIP3   OH226979   4.018   4.580  11.921 -0.6174 -0.2308  0.4215
 1855TIP3    H126980   4.062   4.522  11.860  0.0995  0.1348  0.5763
 1855TIP3    H226981   3.944   4.530  11.953 -0.8778 -0.5016 -0.5850
 1856TIP3   OH226982   2.453   3.662  13.884  0.3313 -0.1783 -0.2860
 1856TIP3    H126983   2.401   3.716  13.944 -0.9347 -1.1305 -0.5250
 1856TIP3    H226984   2.397   3.588  13.862  1.2477 -0.4888 -1.6781
 1857TIP3   OH226985   5.207   3.693   4.448  0.4444 -0.5302 -0.3998
 1857TIP3    H126986   5.153   3.772   4.453 -1.2771 -1.6376 -1.0217
 1857TIP3    H226987   5.153   3.625   4.489  0.8041 -1.9457 -2.2128
 1858TIP3   OH226988   2.488   2.135   4.714  0.2180  0.3322 -0.0378
 1858TIP3    H126989   2.547   2.095   4.777 -0.2385 -0.3074 -0.0045
 1858TIP3    H226990   2.473   2.223   4.747  0.2132  0.0972  0.5948
 1859TIP3   OH226991   3.811   1.740   4.229  0.3741 -0.0701 -0.7764
 1859TIP3    H126992   3.786   1.659   4.186 -1.9421  0.8579 -1.2273
 1859TIP3    H226993   3.774   1.733   4.317  0.7344  0.2197 -0.5980
 1860TIP3   OH226994   3.573   6.643  11.793  0.0839 -0.2786  0.2348
 1860TIP3    H126995   3.625   6.651  11.873 -0.2573  1.5169  0.3106
 1860TIP3    H226996   3.630   6.598  11.731  1.2785  0.5469  0.7186
 1861TIP3   OH226997   5.575   2.442  11.081  0.4317 -0.1622  0.4718
 1861TIP3    H126998   5.588   2.528  11.042  0.7009 -0.1826  0.5147
 1861TIP3    H226999   5.567   2.383  11.006 -1.5875  0.1569  0.4154
 1862TIP3   OH227000   2.857   5.401   5.218 -0.3413  0.5673  0.4036
 1862TIP3    H127001   2.834   5.333   5.155 -0.6197 -0.4952  1.6383
 1862TIP3    H227002   2.953   5.404   5.216 -0.3540  0.7785 -0.2991
 1863TIP3   OH227003   5.503   5.503  12.611 -0.0866 -0.0227  0.2047
 1863TIP3    H127004   5.467   5.545  12.690 -0.5975 -0.6768  0.3211
 1863TIP3    H227005   5.580   5.455  12.642 -0.8087 -1.0227  0.4704
 1864TIP3   OH227006   3.355   4.000  12.981 -0.0965  0.5689  0.0217
 1864TIP3    H127007   3.269   3.992  12.940  0.0289 -0.9073  0.0168
 1864TIP3    H227008   3.416   3.975  12.912  0.0596 -3.0683  1.4045
 1865TIP3   OH227009   1.978   4.029   2.462  0.1207  0.3041  0.9200
 1865TIP3    H127010   2.002   4.120   2.474  0.9237  0.1399  0.5577
 1865TIP3    H227011   1.892   4.021   2.504  0.0597  1.2146  0.9711
 1866TIP3   OH227012   4.865   5.270  15.289 -0.7959  0.1675  0.3627
 1866TIP3    H127013   4.878   5.193  15.344 -1.0857 -1.8507 -2.2786
 1866TIP3    H227014   4.773   5.265  15.262  0.2429 -0.9535 -3.2109
 1867TIP3   OH227015   4.087   4.444  13.490  0.2208 -0.4451  0.0477
 1867TIP3    H127016   4.042   4.363  13.516  0.0048 -0.6229 -0.8726
 1867TIP3    H227017   4.055   4.462  13.402  0.6330  0.3881  0.0685
 1868TIP3   OH227018   2.514   3.224   0.778  0.5909  0.2603 -0.3746
 1868TIP3    H127019   2.500   3.186   0.691  3.6187 -0.4259 -0.6369
 1868TIP3    H227020   2.515   3.148   0.836  0.6351  0.5280 -0.0291
 1869TIP3   OH227021   5.039   5.526   6.537  0.3169  0.1186  0.3134
 1869TIP3    H127022   5.081   5.539   6.452  0.8433  1.5604  0.7792
 1869TIP3    H227023   4.971   5.460   6.521  1.0813 -0.3529 -0.9950
 1870TIP3   OH227024   2.890   1.179  15.122 -0.2174 -0.0171 -0.3305
 1870TIP3    H127025   2.903   1.190  15.028  1.6732  1.8368  0.1051
 1870TIP3    H227026   2.858   1.089  15.131 -1.2486  0.0608 -2.8027
 1871TIP3   OH227027   2.991   2.638  16.032  0.2426 -0.0405  0.1633
 1871TIP3    H127028   2.934   2.618  16.105 -1.2829  1.5113 -0.5812
 1871TIP3    H227029   3.064   2.687  16.070  0.0730 -0.2971  0.8129
 1872TIP3   OH227030   2.888   3.144   4.867  0.1091  0.2916  0.4734
 1872TIP3    H127031   2.887   3.078   4.937  1.2806 -0.2570 -0.0224
 1872TIP3    H227032   2.862   3.225   4.911  0.5479 -0.1085  1.4959
 1873TIP3   OH227033   6.485   1.786  11.871  0.0341 -0.4224  0.0622
 1873TIP3    H127034   6.427   1.711  11.881  0.7455 -0.9030  0.6115
 1873TIP3    H227035   6.440   1.858  11.915  0.3931 -1.0773  1.5073
 1874TIP3   OH227036   1.378   0.638  14.463  0.7158 -0.1946 -0.3131
 1874TIP3    H127037   1.468   0.671  14.460 -0.8799  4.3556 -1.4572
 1874TIP3    H227038   1.352   0.647  14.555  1.7718 -2.8466  0.3187
 1875TIP3   OH227039   0.646   3.661   4.572 -0.5831 -0.1875  0.1082
 1875TIP3    H127040   0.558   3.698   4.585 -0.4160  0.0463  0.6009
 1875TIP3    H227041   0.659   3.661   4.477 -0.7238  0.6965  0.0883
 1876TIP3   OH227042   0.536   2.618  14.351  0.5275 -0.7440 -0.0841
 1876TIP3    H127043   0.609   2.597  14.409  0.1434  0.1185  0.7072
 1876TIP3    H227044   0.464   2.640  14.410 -0.4044 -1.6663 -0.8570
 1877TIP3   OH227045   2.911   2.994  15.039 -0.3411  0.2260 -0.0321
 1877TIP3    H127046   2.896   3.062  14.974 -0.1975 -0.9934 -1.3919
 1877TIP3    H227047   2.889   3.034  15.123 -1.3484  1.5687 -0.9263
 1878TIP3   OH227048   4.533   1.689   0.722  0.6700 -0.1955 -0.1865
 1878TIP3    H127049   4.603   1.740   0.680  0.9237 -0.9606 -0.7211
 1878TIP3    H227050   4.456   1.744   0.714  1.0867  0.4082 -0.1238
 1879TIP3   OH227051   1.199   2.584  14.747  0.9121 -0.0479 -0.1651
 1879TIP3    H127052   1.195   2.517  14.815 -0.0199 -0.9778 -1.1271
 1879TIP3    H227053   1.236   2.539  14.671  1.2740  0.8017 -0.4964
 1880TIP3   OH227054   1.460   5.189  13.928  0.4429  0.0519  0.4626
 1880TIP3    H127055   1.391   5.140  13.973  0.9943 -1.7954 -0.7091
 1880TIP3    H227056   1.511   5.228  13.999 -0.1064 -0.9013  1.3900
 1881TIP3   OH227057   5.664   6.709  16.911  0.2272  0.4720 -0.2324
 1881TIP3    H127058   5.660   6.620  16.948  0.0739  0.8191  0.6064
 1881TIP3    H227059   5.629   6.765  16.981 -1.8453  0.9540 -1.5980
 1882TIP3   OH227060   1.010   6.593  12.347 -0.2549 -0.0350  0.1372
 1882TIP3    H127061   1.083   6.628  12.295 -0.0084 -0.2848  0.3116
 1882TIP3    H227062   0.959   6.670  12.371  0.1987  0.1958  0.3850
 1883TIP3   OH227063   2.998   0.107   1.399 -0.7649 -0.3974  0.0710
 1883TIP3    H127064   2.904   0.111   1.386 -0.9846 -0.9346  1.3947
 1883TIP3    H227065   3.022   0.195   1.428 -0.6908  0.0367 -1.3087
 1884TIP3   OH227066   3.282   6.505  13.756  0.0888 -0.2266  0.3276
 1884TIP3    H127067   3.283   6.500  13.851 -2.4881 -1.2121  0.3372
 1884TIP3    H227068   3.318   6.422  13.727 -1.8083 -1.1210  0.4712
 1885TIP3   OH227069   6.040   5.310  16.668 -0.0546 -0.0836 -0.0162
 1885TIP3    H127070   6.000   5.333  16.752  0.3612  1.7491 -0.3071
 1885TIP3    H227071   5.975   5.256  16.624 -1.5634  1.5282  0.1975
 1886TIP3   OH227072   1.015   6.051  14.296 -0.0958 -0.1675  0.1168
 1886TIP3    H127073   1.090   6.110  14.303  0.0835 -0.2070 -1.1860
 1886TIP3    H227074   1.051   5.964  14.311  0.1785 -0.2086 -0.7211
 1887TIP3   OH227075   0.828   6.270   6.530 -0.5259 -0.3710  0.0653
 1887TIP3    H127076   0.861   6.182   6.548  0.3355  0.0256  0.4585
 1887TIP3    H227077   0.889   6.329   6.576 -1.2269  0.4153  0.0038
 1888TIP3   OH227078   1.490   2.843  14.001  0.0566  0.5207 -0.2610
 1888TIP3    H127079   1.497   2.885  13.915  0.8070  0.2868 -0.3187
 1888TIP3    H227080   1.398   2.817  14.008 -0.1043  0.9283 -0.8093
 1889TIP3   OH227081   1.029   3.119  17.171  0.1692 -0.5252 -0.1956
 1889TIP3    H127082   1.046   3.162  17.255 -1.4853 -1.0420  0.4112
 1889TIP3    H227083   0.941   3.145  17.147  0.3160 -1.0687 -1.3688
 1890TIP3   OH227084   5.276   0.136   2.392 -0.7163  0.3141  1.1043
 1890TIP3    H127085   5.301   0.188   2.316 -1.9430 -0.1988  0.3342
 1890TIP3    H227086   5.195   0.092   2.366 -0.2435 -1.1945  2.1011
 1891TIP3   OH227087   5.862   1.820   3.727  0.6820  0.1697  0.0282
 1891TIP3    H127088   5.769   1.826   3.708  0.6689  1.4864  0.4425
 1891TIP3    H227089   5.889   1.910   3.746  1.2995 -0.6031  3.2076
 1892TIP3   OH227090   1.963   1.423   2.804  0.3275  0.3679  0.7081
 1892TIP3    H127091   1.952   1.500   2.860 -3.1492 -0.1828  0.8794
 1892TIP3    H227092   2.005   1.457   2.724 -0.7117  2.3535  0.9818
 1893TIP3   OH227093   1.534   0.529   5.860  0.4998 -0.8114  0.0649
 1893TIP3    H127094   1.479   0.506   5.934  1.0207 -1.7769  0.1527
 1893TIP3    H227095   1.503   0.616   5.834  0.9839 -0.0185  2.0347
 1894TIP3   OH227096   2.662   0.179   3.848 -0.0821  0.5271 -0.8721
 1894TIP3    H127097   2.722   0.254   3.850  2.6120 -1.5501  0.3429
 1894TIP3    H227098   2.685   0.132   3.768 -1.8640  1.0625 -1.7089
 1895TIP3   OH227099   1.404   4.116  13.066 -0.2546  0.6074 -0.4457
 1895TIP3    H127100   1.329   4.088  13.013 -1.4159  1.4373  0.7071
 1895TIP3    H227101   1.479   4.070  13.029 -1.4061 -0.5509 -1.3756
 1896TIP3   OH227102   0.804   0.101  13.645  0.6184 -0.5413 -0.1498
 1896TIP3    H127103   0.714   0.071  13.631  0.8058 -1.7559  1.1833
 1896TIP3    H227104   0.858   0.025  13.626  1.3700  0.1198 -0.7120
 1897TIP3   OH227105   3.389   2.541   2.645  0.1747 -0.1052 -0.2313
 1897TIP3    H127106   3.395   2.529   2.740  0.5566 -1.0706 -0.3652
 1897TIP3    H227107   3.296   2.537   2.626 -0.0399  1.9731  0.3264
 1898TIP3   OH227108   4.048   5.960   6.360  0.6175  0.0015  0.1050
 1898TIP3    H127109   3.955   5.939   6.368  0.9264 -1.5914 -0.4635
 1898TIP3    H227110   4.070   5.936   6.270  1.9394 -1.0593  0.7022
 1899TIP3   OH227111   4.516   5.766  14.044  0.1693  0.1779  0.3076
 1899TIP3    H127112   4.568   5.753  13.965 -0.8533 -0.9995 -0.1789
 1899TIP3    H227113   4.579   5.757  14.116  1.2764  2.1523 -0.3762
 1900TIP3   OH227114   3.455   0.679  16.390 -0.0593 -0.0218  0.0106
 1900TIP3    H127115   3.498   0.653  16.309  0.4846  0.6805  0.0620
 1900TIP3    H227116   3.513   0.746  16.427 -1.6177  1.5170 -0.3063
 1901TIP3   OH227117   6.110   3.712   2.797  0.5393  0.5000 -0.4880
 1901TIP3    H127118   6.129   3.653   2.869  0.2309  0.1707 -0.6783
 1901TIP3    H227119   6.192   3.759   2.782  1.0011 -0.4090 -0.8245
 1902TIP3   OH227120   0.944   5.368   5.519 -0.7204  0.3216  0.4169
 1902TIP3    H127121   0.861   5.328   5.494  0.1274 -0.4509 -1.2483
 1902TIP3    H227122   0.999   5.294   5.547 -0.9474  0.9472  2.6059
 1903TIP3   OH227123   4.160   2.503   3.978  0.3276 -0.1207 -0.2571
 1903TIP3    H127124   4.160   2.593   3.947 -2.1305  0.4939  1.4842
 1903TIP3    H227125   4.218   2.503   4.054 -0.2409  0.1337  0.1729
 1904TIP3   OH227126   4.134   0.092   0.328 -0.0138 -0.0075  0.4144
 1904TIP3    H127127   4.120   0.049   0.412  0.0559 -3.3535 -1.2224
 1904TIP3    H227128   4.157   0.021   0.267  0.6930  2.4013 -2.2738
 1905TIP3   OH227129   5.939   5.713  16.261 -0.1322 -0.7114 -1.0231
 1905TIP3    H127130   5.855   5.713  16.214  0.4755  2.8472 -2.2725
 1905TIP3    H227131   5.923   5.769  16.337  0.7902 -0.9110 -0.6830
 1906TIP3   OH227132   6.274   3.423  12.573  0.2282 -0.2380 -0.4769
 1906TIP3    H127133   6.298   3.459  12.488  1.5841 -1.6398 -0.7062
 1906TIP3    H227134   6.249   3.332  12.555  0.1022 -0.4195  0.5542
 1907TIP3   OH227135   6.707   5.005   0.632 -0.1955  0.4059 -0.0871
 1907TIP3    H127136   6.799   5.028   0.617  0.3323 -0.0376  2.3262
 1907TIP3    H227137   6.666   5.087   0.657 -0.6569  0.7535 -1.8777
 1908TIP3   OH227138   0.172   6.238   2.621 -0.2105 -0.1188  0.9366
 1908TIP3    H127139   0.087   6.278   2.600  0.2448  1.0347  1.2556
 1908TIP3    H227140   0.225   6.311   2.654  1.2101 -0.6506 -0.1467
 1909TIP3   OH227141   2.780   3.287   0.353 -0.3737  0.0285  0.1041
 1909TIP3    H127142   2.715   3.302   0.285  0.2749  1.8235 -0.1323
 1909TIP3    H227143   2.830   3.369   0.358  1.4332 -1.0762  0.7505
 1910TIP3   OH227144   5.923   4.724   3.988 -0.1585 -0.2367  0.0340
 1910TIP3    H127145   5.933   4.762   4.075 -2.5893  0.9356 -0.1325
 1910TIP3    H227146   5.879   4.640   4.003  0.6711 -0.6762  0.0293
 1911TIP3   OH227147   1.595   4.171   0.007 -0.3081  0.6656  0.1227
 1911TIP3    H127148   1.586   4.107   0.078 -0.4420  1.6308  0.9925
 1911TIP3    H227149   1.648   4.126  -0.059  0.0032 -0.1770  0.9264
 1912TIP3   OH227150   5.896   1.700   1.761 -0.2456  0.0400  0.0537
 1912TIP3    H127151   5.884   1.700   1.666  0.3630 -1.4090 -0.0483
 1912TIP3    H227152   5.950   1.622   1.778 -1.1753 -0.2831  1.6760
 1913TIP3   OH227153   0.615   6.409  16.770 -0.2996 -0.3705 -0.6035
 1913TIP3    H127154   0.622   6.457  16.853 -0.3282 -1.0175 -0.2267
 1913TIP3    H227155   0.535   6.357  16.779 -0.5433 -0.1020 -1.2153
 1914TIP3   OH227156   6.036   2.356   0.481 -0.1096 -0.1869  0.4087
 1914TIP3    H127157   6.097   2.429   0.477 -0.4160  0.0062 -1.3465
 1914TIP3    H227158   6.073   2.296   0.546  1.2242  0.5660  0.3462
 1915TIP3   OH227159   0.837   6.470   3.162 -0.5111  0.1038 -0.5064
 1915TIP3    H127160   0.824   6.523   3.083  1.0204  0.4039 -0.5740
 1915TIP3    H227161   0.868   6.386   3.129  0.6031  0.3916 -0.2119
 1916TIP3   OH227162   2.835   2.498  14.412 -0.0796 -0.4142  0.0684
 1916TIP3    H127163   2.806   2.480  14.501 -0.9342  0.5836  0.0015
 1916TIP3    H227164   2.764   2.550  14.373  1.9597  2.4913  0.0661
 1917TIP3   OH227165   5.156   4.430  14.342  0.0699  0.0106 -0.5922
 1917TIP3    H127166   5.197   4.515  14.359  2.7315 -1.3511  0.0190
 1917TIP3    H227167   5.121   4.403  14.427 -2.1830  1.1471 -1.1032
 1918TIP3   OH227168   4.186   1.931   5.596 -0.2828  0.3865 -0.8397
 1918TIP3    H127169   4.249   1.862   5.575  0.0988  0.3419  0.4388
 1918TIP3    H227170   4.144   1.902   5.677  2.2885  3.2409  1.6244
 1919TIP3   OH227171   0.741   5.411  16.967  0.3029 -0.3352  0.6953
 1919TIP3    H127172   0.793   5.382  16.892 -2.0174 -1.4381 -0.5395
 1919TIP3    H227173   0.765   5.504  16.978  1.7097 -0.5417 -0.4939
 1920TIP3   OH227174   3.094   3.402  15.869  0.6441  0.0153  0.1780
 1920TIP3    H127175   3.043   3.403  15.789  0.4132 -1.0254  0.2958
 1920TIP3    H227176   3.180   3.369  15.842  0.5758 -0.3050  0.3509
 1921TIP3   OH227177   3.516   4.559   5.188  0.2521 -0.4566 -0.0160
 1921TIP3    H127178   3.440   4.501   5.193 -2.0304  2.3756 -0.1358
 1921TIP3    H227179   3.530   4.588   5.278  0.3924 -0.0242 -0.1770
 1922TIP3   OH227180   3.879   3.379  16.345  0.1136  0.6475  0.4950
 1922TIP3    H127181   3.817   3.319  16.388  0.9059 -0.6520 -0.1343
 1922TIP3    H227182   3.947   3.394  16.411 -0.8056  2.0060  1.1562
 1923TIP3   OH227183   3.228   6.690   5.616 -0.4442 -0.1908 -0.4476
 1923TIP3    H127184   3.281   6.684   5.695 -0.1804 -0.6381 -0.6527
 1923TIP3    H227185   3.274   6.754   5.561 -0.4717 -0.0970 -0.3621
 1924TIP3   OH227186   1.179   3.183  14.059 -0.2083  0.1655 -0.1545
 1924TIP3    H127187   1.197   3.148  14.146 -0.7830 -0.8606 -0.4346
 1924TIP3    H227188   1.261   3.224  14.031 -0.0733  0.6487  0.9286
 1925TIP3   OH227189   3.323   0.682  15.184  0.4266  0.0895 -0.1986
 1925TIP3    H127190   3.383   0.741  15.230 -0.2869 -0.0515  0.9200
 1925TIP3    H227191   3.249   0.672  15.242  0.5737 -1.9897 -0.3220
 1926TIP3   OH227192   3.208   4.484  14.594 -0.3680 -0.2103 -0.4720
 1926TIP3    H127193   3.137   4.495  14.531 -0.3392 -1.3897 -0.7093
 1926TIP3    H227194   3.164   4.469  14.678 -0.3970 -1.5499 -0.7274
 1927TIP3   OH227195   3.178   2.694  12.112  0.3001 -0.2127  0.0017
 1927TIP3    H127196   3.083   2.695  12.114  0.3000 -0.9716  1.7611
 1927TIP3    H227197   3.204   2.780  12.146  0.2315 -0.2525  0.1580
 1928TIP3   OH227198   0.364   2.173  17.031  0.0792 -0.8514 -0.3274
 1928TIP3    H127199   0.274   2.141  17.029 -0.9904  1.7728  1.5062
 1928TIP3    H227200   0.398   2.144  17.116 -0.0064  0.5284  0.1925
 1929TIP3   OH227201   5.821   1.478   4.764  0.0722  0.0504  0.1936
 1929TIP3    H127202   5.841   1.560   4.719 -0.5952 -0.7057 -1.5029
 1929TIP3    H227203   5.904   1.430   4.764 -0.1017 -0.2542 -0.8844
 1930TIP3   OH227204   6.366   1.956   1.197  0.2346  0.3273 -0.7390
 1930TIP3    H127205   6.399   2.002   1.275  1.5035  1.9652 -2.1761
 1930TIP3    H227206   6.371   2.022   1.127 -3.6924 -0.1998 -1.5991
 1931TIP3   OH227207   1.589   0.575   0.496 -0.0028  0.5023 -1.3263
 1931TIP3    H127208   1.677   0.557   0.464  1.1454  1.8789  0.9125
 1931TIP3    H227209   1.567   0.661   0.460  1.0827  1.8179  1.0625
 1932TIP3   OH227210   6.050   3.238  15.366 -0.2323 -0.1300 -0.6956
 1932TIP3    H127211   6.096   3.232  15.282  0.7820  0.7885 -0.2068
 1932TIP3    H227212   6.100   3.181  15.425 -0.5352 -0.2228 -0.5258
 1933TIP3   OH227213   4.052   4.764   5.685  0.1512 -0.0464  0.2400
 1933TIP3    H127214   4.084   4.818   5.612  0.5294 -0.0037  0.4365
 1933TIP3    H227215   4.115   4.780   5.756 -0.8600  0.8138  0.9599
 1934TIP3   OH227216   3.579   6.360  13.475 -0.4712  0.0090 -0.1892
 1934TIP3    H127217   3.506   6.401  13.427  0.0402  1.6396  0.3704
 1934TIP3    H227218   3.598   6.422  13.545  0.5948 -1.0453  0.4678
 1935TIP3   OH227219   4.803   4.878   3.004 -0.1742  0.1657  0.4048
 1935TIP3    H127220   4.844   4.959   2.974  1.2783 -0.0952  1.5932
 1935TIP3    H227221   4.809   4.819   2.929 -0.6551  0.9624 -0.2557
 1936TIP3   OH227222   2.242   1.254  15.437 -0.6065 -0.1580 -0.5416
 1936TIP3    H127223   2.219   1.261  15.530 -0.0173 -0.8217 -0.3401
 1936TIP3    H227224   2.222   1.340  15.401 -1.5786 -0.1330  0.0367
 1937TIP3   OH227225   0.507   4.845  11.994 -0.1193 -0.6436  0.3199
 1937TIP3    H127226   0.588   4.835  11.944 -0.3213  0.2042 -0.1932
 1937TIP3    H227227   0.513   4.780  12.063  1.1477 -0.3697  0.4786
 1938TIP3   OH227228   5.599   1.839   0.724  0.6273  0.6869  0.0604
 1938TIP3    H127229   5.597   1.894   0.646  2.1145 -1.2382 -1.3794
 1938TIP3    H227230   5.549   1.761   0.700  2.1660 -0.4827  0.5474
 1939TIP3   OH227231   3.393   2.318   5.584 -0.0176  0.0217  0.4884
 1939TIP3    H127232   3.363   2.389   5.641 -0.0829  1.0326 -0.7834
 1939TIP3    H227233   3.361   2.342   5.497  0.5410 -1.2271 -0.0696
 1940TIP3   OH227234   1.100   5.790  14.324  0.5993 -0.2310 -0.3703
 1940TIP3    H127235   1.167   5.731  14.360  1.2023 -0.7694 -2.2939
 1940TIP3    H227236   1.135   5.816  14.239 -1.1339  0.3766 -0.9141
 1941TIP3   OH227237   4.267   5.277  13.906  0.0285  0.1416  0.2185
 1941TIP3    H127238   4.321   5.310  13.978 -0.5710  0.3594  0.5717
 1941TIP3    H227239   4.221   5.202  13.943 -2.2863  1.8189  0.8774
 1942TIP3   OH227240   1.017   0.737   2.483  0.2062 -0.2603 -0.1908
 1942TIP3    H127241   1.042   0.746   2.575  2.0214 -0.2957 -0.6507
 1942TIP3    H227242   0.924   0.759   2.480  0.4532  1.0557  1.4396
 1943TIP3   OH227243   5.919   0.618  16.942 -0.2603 -0.2272  0.1257
 1943TIP3    H127244   5.924   0.691  16.880 -0.1084  0.3826  0.8443
 1943TIP3    H227245   5.929   0.540  16.887 -0.2429  0.2948 -0.6335
 1944TIP3   OH227246   0.305   0.962  16.848 -0.0779  0.1631  0.0645
 1944TIP3    H127247   0.286   1.056  16.859  1.6295  0.6806 -1.1840
 1944TIP3    H227248   0.220   0.923  16.827 -0.7147  1.5135  0.0782
 1945TIP3   OH227249   1.868   1.577  15.789 -0.4290 -0.2566  0.3273
 1945TIP3    H127250   1.880   1.668  15.813 -0.5103 -0.2479  0.3350
 1945TIP3    H227251   1.928   1.529  15.846 -1.5767 -0.3601  1.4717
 1946TIP3   OH227252   3.162   4.129  15.926  0.1404 -0.7856  0.1345
 1946TIP3    H127253   3.240   4.157  15.974  0.2957  0.2738 -0.7189
 1946TIP3    H227254   3.127   4.209  15.888 -2.8873 -0.8241  2.6846
 1947TIP3   OH227255   1.575   2.404  13.999  0.2478 -0.7949 -0.4559
 1947TIP3    H127256   1.515   2.344  13.955 -0.1069  1.0320 -2.6054
 1947TIP3    H227257   1.632   2.436  13.929  2.3619 -0.8742  1.1713
 1948TIP3   OH227258   3.598   4.749   2.888 -0.1110  0.0656 -1.1809
 1948TIP3    H127259   3.571   4.810   2.819  0.6631  0.3991 -1.2022
 1948TIP3    H227260   3.694   4.745   2.880  0.2603  1.9937  1.3962
 1949TIP3   OH227261   4.647   3.915  16.864  0.2178 -0.2445  0.3579
 1949TIP3    H127262   4.629   3.825  16.839  0.5400 -0.0808 -0.4837
 1949TIP3    H227263   4.707   3.947  16.796  0.4729  0.4552  0.9077
 1950TIP3   OH227264   2.912   0.515  13.493  0.1565 -0.3652 -0.3127
 1950TIP3    H127265   2.938   0.423  13.495  0.7255 -0.2043 -0.3120
 1950TIP3    H227266   2.830   0.515  13.444  0.3251 -0.8287 -0.5990
 1951TIP3   OH227267   2.453   2.423   5.229  0.3701  0.2975  0.3091
 1951TIP3    H127268   2.416   2.341   5.263  1.7366 -0.7441 -0.7029
 1951TIP3    H227269   2.540   2.428   5.269  0.8093  0.5784 -0.6832
 1952TIP3   OH227270   3.073   2.505  13.329 -0.0772 -0.2416  0.3734
 1952TIP3    H127271   3.060   2.415  13.301 -0.6128  0.8584 -3.2442
 1952TIP3    H227272   3.147   2.536  13.276 -1.0106  1.9322  0.2752
 1953TIP3   OH227273   2.828   4.883  17.085  0.0459  0.0717  0.3019
 1953TIP3    H127274   2.804   4.803  17.133  1.1594 -0.4748 -0.0402
 1953TIP3    H227275   2.748   4.906  17.037 -0.5534 -0.3454  1.0816
 1954TIP3   OH227276   1.198   4.327   0.420 -0.3074 -0.3131  0.2965
 1954TIP3    H127277   1.153   4.243   0.430 -1.5074  0.4109  0.9816
 1954TIP3    H227278   1.277   4.319   0.473  0.3733 -1.5613 -0.8585
 1955TIP3   OH227279   6.190   6.682   6.140  0.1046  0.3560 -0.6183
 1955TIP3    H127280   6.244   6.672   6.218 -1.2844  1.5518  0.5342
 1955TIP3    H227281   6.165   6.592   6.115  1.5321 -0.1014 -0.4069
 1956TIP3   OH227282   2.035   3.333  14.585 -0.5581  0.5214  0.0700
 1956TIP3    H127283   2.091   3.407  14.605 -0.8676  0.8594 -0.3197
 1956TIP3    H227284   2.065   3.302  14.500  0.2006 -0.3961  0.6534
 1957TIP3   OH227285   2.981   1.345   4.196  0.1120  0.2354 -0.2923
 1957TIP3    H127286   3.032   1.320   4.119  2.1187 -0.7447  1.3135
 1957TIP3    H227287   2.950   1.262   4.232  1.7944  0.4343  1.6982
 1958TIP3   OH227288   3.281   5.635   1.344 -0.1559  0.4868  0.2099
 1958TIP3    H127289   3.337   5.702   1.304  1.4665 -0.7539  0.3788
 1958TIP3    H227290   3.328   5.609   1.423 -0.7388 -0.9200  0.1000
 1959TIP3   OH227291   2.766   6.062  12.719 -0.0032  0.3437  0.2500
 1959TIP3    H127292   2.796   6.006  12.647  0.1346  0.1567  0.4496
 1959TIP3    H227293   2.738   6.143  12.677 -1.4724 -0.3713 -0.1892
 1960TIP3   OH227294   1.871   1.124   5.047  0.9755 -0.0346  0.0842
 1960TIP3    H127295   1.873   1.073   5.128  0.4336  1.3523  0.9972
 1960TIP3    H227296   1.905   1.210   5.072 -2.2176  1.4315 -0.3688
 1961TIP3   OH227297   2.664   1.836  14.027 -0.4128 -0.3861  0.3967
 1961TIP3    H127298   2.709   1.757  13.997  1.9097  0.1433  2.3834
 1961TIP3    H227299   2.709   1.861  14.107 -1.5160  2.6333  0.1440
 1962TIP3   OH227300   3.789   6.202  12.708 -0.1758 -0.3134 -0.6005
 1962TIP3    H127301   3.784   6.266  12.637 -1.7510  1.7034  1.2758
 1962TIP3    H227302   3.821   6.122  12.666  1.2917  1.5158 -3.0990
 1963TIP3   OH227303   3.739   0.841   3.306 -0.0966  0.8547 -0.1302
 1963TIP3    H127304   3.823   0.886   3.317 -0.4398  1.6899 -0.8690
 1963TIP3    H227305   3.709   0.824   3.395  0.1848  1.8133  0.1486
 1964TIP3   OH227306   5.127   5.312  16.787  0.4239  0.2935  0.1145
 1964TIP3    H127307   5.048   5.305  16.733  1.1420  0.8642 -1.0182
 1964TIP3    H227308   5.157   5.221  16.797 -0.3409  0.0794  0.5081
 1965TIP3   OH227309   6.748   5.773  15.610 -1.0386  0.4616 -0.5343
 1965TIP3    H127310   6.658   5.765  15.579 -1.9645 -1.1479  2.3672
 1965TIP3    H227311   6.800   5.727  15.544 -2.7242 -1.3043 -0.6699
 1966TIP3   OH227312   1.840   5.125   2.527  0.2256 -0.4468 -0.2965
 1966TIP3    H127313   1.797   5.188   2.586  0.5954 -0.7194  0.2695
 1966TIP3    H227314   1.911   5.175   2.487 -1.2342  0.2971 -2.0125
 1967TIP3   OH227315   2.389   0.723   1.949  0.8071 -0.1876  0.1780
 1967TIP3    H127316   2.308   0.760   1.984  1.5975  1.3877  0.3810
 1967TIP3    H227317   2.369   0.705   1.857  0.6048  1.4174 -0.1110
 1968TIP3   OH227318   6.489   6.358  13.114 -0.4454  0.2815 -0.4305
 1968TIP3    H127319   6.454   6.439  13.077  0.3136  0.5811 -0.4820
 1968TIP3    H227320   6.415   6.319  13.160 -0.5465  1.4792  0.4198
 1969TIP3   OH227321   3.128   5.859  12.588  0.1789  0.1664 -0.3740
 1969TIP3    H127322   3.187   5.875  12.515  1.9139  1.2866  1.2403
 1969TIP3    H227323   3.043   5.890  12.557  0.0188 -2.8940 -3.2981
 1970TIP3   OH227324   2.875   4.976  11.463 -0.1152 -0.3170  0.6950
 1970TIP3    H127325   2.839   5.015  11.383 -0.2090  0.4818  1.1346
 1970TIP3    H227326   2.813   4.907  11.485 -0.8317  0.3769  0.8627
 1971TIP3   OH227327   4.338   2.791  14.384  0.1486  0.5176 -0.4224
 1971TIP3    H127328   4.283   2.851  14.435 -0.4329  0.5457 -1.0729
 1971TIP3    H227329   4.304   2.798  14.295  0.8207  0.0754 -0.7148
 1972TIP3   OH227330   6.605   3.146  12.204 -0.3285 -0.0537 -0.4330
 1972TIP3    H127331   6.645   3.214  12.150 -0.6551  1.5022  1.2419
 1972TIP3    H227332   6.511   3.152  12.185 -0.5324  1.0189  0.8638
 1973TIP3   OH227333   5.742   2.603   0.578 -0.0437 -0.1691  0.3089
 1973TIP3    H127334   5.823   2.641   0.612 -0.0627 -0.1571  0.3407
 1973TIP3    H227335   5.767   2.518   0.543 -0.1193 -0.4151  0.8407
 1974TIP3   OH227336   1.572   0.903  11.064  0.7989 -0.6387  0.2768
 1974TIP3    H127337   1.577   0.926  10.971 -0.6467 -0.4127  0.2464
 1974TIP3    H227338   1.594   0.810  11.066  0.1805 -0.8052 -0.3782
 1975TIP3   OH227339   3.272   3.959  14.729  0.4144 -0.3815 -0.3319
 1975TIP3    H127340   3.241   3.873  14.702 -1.5739 -0.8789  3.2410
 1975TIP3    H227341   3.212   4.021  14.688 -0.0095 -0.8706 -0.4485
 1976TIP3   OH227342   4.605   6.527  12.222 -0.2000 -0.4996  0.0300
 1976TIP3    H127343   4.556   6.510  12.141 -0.1823  0.1023 -0.1086
 1976TIP3    H227344   4.572   6.462  12.284 -0.2669 -0.9189 -0.4394
 1977TIP3   OH227345   4.755   0.022   0.130 -0.3381  0.0598 -0.9778
 1977TIP3    H127346   4.713   0.048   0.048  1.1824  0.5804 -1.6301
 1977TIP3    H227347   4.844   0.058   0.122 -0.1812  0.1085  0.9040
 1978TIP3   OH227348   3.199   4.708   3.653 -0.6459 -0.1195 -0.2385
 1978TIP3    H127349   3.165   4.752   3.575 -0.0068  1.1927  0.2137
 1978TIP3    H227350   3.200   4.615   3.629  1.8129  0.4815 -2.6707
 1979TIP3   OH227351   5.208   5.826  14.043 -0.8173  0.2557  0.1548
 1979TIP3    H127352   5.281   5.836  13.982  0.3984  2.4640  1.8963
 1979TIP3    H227353   5.203   5.731  14.060  0.3476 -0.1121 -1.5118
 1980TIP3   OH227354   4.088   5.677  15.133 -0.1568 -0.0402  0.1412
 1980TIP3    H127355   4.102   5.717  15.047  0.7572 -1.0274 -0.1726
 1980TIP3    H227356   4.095   5.749  15.195 -0.6631  0.6502 -0.5967
 1981TIP3   OH227357   1.207   2.359  16.234  0.7153 -0.4355  0.2197
 1981TIP3    H127358   1.290   2.398  16.262 -0.4546 -0.2735  3.7892
 1981TIP3    H227359   1.147   2.433  16.228 -0.1173 -0.9916  1.4880
 1982TIP3   OH227360   3.686   0.428   2.175  0.2644  0.6748 -0.5082
 1982TIP3    H127361   3.622   0.392   2.113  0.5581 -0.2159 -0.3055
 1982TIP3    H227362   3.634   0.480   2.236 -0.1752  0.5838 -0.8010
 1983TIP3   OH227363   1.831   4.019   3.939 -0.2254 -0.0093 -0.3722
 1983TIP3    H127364   1.804   4.105   3.906  0.3033  0.6309  0.8370
 1983TIP3    H227365   1.889   3.984   3.871  1.0033  1.3755 -0.0656
 1984TIP3   OH227366   0.946   4.985  13.292 -0.9149 -0.0452 -0.0370
 1984TIP3    H127367   0.929   4.891  13.295 -0.9466 -0.0125  0.9727
 1984TIP3    H227368   0.954   5.011  13.384 -0.8318  0.9258 -0.3119
 1985TIP3   OH227369   6.569   5.538  16.678 -0.3560  0.1300 -0.2165
 1985TIP3    H127370   6.480   5.504  16.687 -0.4667  0.9108  1.7965
 1985TIP3    H227371   6.624   5.473  16.722 -0.2129  0.9057  0.7584
 1986TIP3   OH227372   5.364   4.334  13.851 -0.0592 -0.4613 -0.1156
 1986TIP3    H127373   5.331   4.385  13.776  0.0419  1.2501  0.9714
 1986TIP3    H227374   5.290   4.280  13.877  0.3331 -2.1282 -2.3187
 1987TIP3   OH227375   2.149   0.810   3.569 -0.0496 -0.3314  0.3069
 1987TIP3    H127376   2.061   0.845   3.578 -0.0653 -0.7084  1.7074
 1987TIP3    H227377   2.207   0.886   3.576 -0.1935 -0.2846  1.0383
 1988TIP3   OH227378   3.551   6.540  12.903  0.2569 -0.1636  0.2793
 1988TIP3    H127379   3.553   6.445  12.914 -0.0696 -0.1420  0.5433
 1988TIP3    H227380   3.577   6.575  12.988 -1.5342 -0.0058  0.7939
 1989TIP3   OH227381   3.903   2.793  12.154 -0.1139  0.5927 -0.1162
 1989TIP3    H127382   3.871   2.818  12.068 -2.3630 -0.1729  0.4446
 1989TIP3    H227383   3.862   2.856  12.214 -1.8125 -1.3255  0.7793
 1990TIP3   OH227384   0.564   4.715   4.588  0.0090  0.0378 -0.0934
 1990TIP3    H127385   0.561   4.669   4.672 -2.5179  0.4079  0.0491
 1990TIP3    H227386   0.543   4.806   4.609  1.3385  0.5497 -0.8786
 1991TIP3   OH227387   1.897   4.345  16.920 -0.2331  0.2737 -0.9442
 1991TIP3    H127388   1.972   4.351  16.861  1.0061 -1.6936  0.3728
 1991TIP3    H227389   1.925   4.284  16.988 -1.7031  2.2763  1.5671
 1992TIP3   OH227390   0.254   3.594  16.049 -0.3770 -0.2290 -0.3445
 1992TIP3    H127391   0.304   3.560  15.975  0.4490  0.5614 -0.1505
 1992TIP3    H227392   0.260   3.524  16.115  0.0421 -0.3483 -0.5058
 1993TIP3   OH227393   3.124   0.387  16.925 -0.1541 -0.4981  0.1266
 1993TIP3    H127394   3.167   0.372  16.841  0.4654 -2.6211  0.7822
 1993TIP3    H227395   3.032   0.404  16.902  0.3354  0.6597 -1.0625
 1994TIP3   OH227396   5.147   6.559  13.218  0.3039  0.0581 -0.1011
 1994TIP3    H127397   5.152   6.473  13.260 -0.1856  0.3274  0.5200
 1994TIP3    H227398   5.188   6.618  13.282  0.2718  0.3517 -0.3527
 1995TIP3   OH227399   6.141   2.343   3.016 -0.5019 -0.2022 -0.0457
 1995TIP3    H127400   6.170   2.316   2.929 -0.4743 -1.0305  0.2241
 1995TIP3    H227401   6.222   2.358   3.065 -0.5211 -0.0060 -0.0721
 1996TIP3   OH227402   3.112   6.723  11.774 -0.3213 -0.1730 -0.5289
 1996TIP3    H127403   3.130   6.629  11.778  0.4684 -0.0060 -0.1513
 1996TIP3    H227404   3.179   6.759  11.717 -0.6205  0.1695 -0.6705
 1997TIP3   OH227405   5.121   3.278   5.717 -0.5622  0.0325  0.6621
 1997TIP3    H127406   5.135   3.280   5.622  1.1341 -1.3586  0.8591
 1997TIP3    H227407   5.026   3.282   5.727 -0.7326  0.7326 -1.0847
 1998TIP3   OH227408   0.672   2.833  15.313  0.4643  0.4234  0.1090
 1998TIP3    H127409   0.613   2.837  15.388  1.3506  0.2097  0.8283
 1998TIP3    H227410   0.703   2.923  15.302  0.4228  0.4325  0.0644
 1999TIP3   OH227411   6.340   1.270   4.727 -0.1385  0.2870  0.4674
 1999TIP3    H127412   6.422   1.257   4.680 -0.2195 -1.9718  0.8703
 1999TIP3    H227413   6.334   1.194   4.785 -2.5709  0.3758  0.3725
 2000TIP3   OH227414   6.432   4.091   2.628  0.2517  0.6462 -0.0001
 2000TIP3    H127415   6.396   4.175   2.657 -0.0886 -0.0408  1.5902
 2000TIP3    H227416   6.510   4.078   2.683  1.0604  0.5317 -1.1385
 2001TIP3   OH227417   0.804   4.692   3.496  0.8325 -0.3608 -0.2598
 2001TIP3    H127418   0.841   4.707   3.409  0.7212  0.0496 -0.2359
 2001TIP3    H227419   0.784   4.779   3.529  1.0273 -0.5034  0.2452
 2002TIP3   OH227420   2.896   0.003  10.747 -0.0160 -0.8918  0.2647
 2002TIP3    H127421   2.811  -0.041  10.745 -0.5854  0.2407 -0.8871
 2002TIP3    H227422   2.891   0.069  10.678  0.6962  1.2286  2.1961
 2003TIP3   OH227423   4.639   5.327  15.573  0.1523 -0.2950 -0.5531
 2003TIP3    H127424   4.615   5.241  15.538 -0.1706  0.4244 -2.1439
 2003TIP3    H227425   4.730   5.317  15.602  1.3124 -0.2377 -4.0083
 2004TIP3   OH227426   2.263   4.996   1.656 -0.7943 -0.6671 -0.0784
 2004TIP3    H127427   2.208   5.073   1.671 -0.3190 -0.5388  1.0483
 2004TIP3    H227428   2.216   4.924   1.698 -1.2087 -0.9775 -1.0792
 2005TIP3   OH227429   1.360   1.632   4.563  0.0692 -0.0097 -0.1828
 2005TIP3    H127430   1.292   1.651   4.497  0.5249 -2.0388 -1.2765
 2005TIP3    H227431   1.427   1.699   4.548 -0.5007  0.4254 -0.8221
 2006TIP3   OH227432   5.463   4.753   1.538  0.4020 -0.2624 -0.2454
 2006TIP3    H127433   5.494   4.765   1.448 -0.2831 -0.9396 -0.5766
 2006TIP3    H227434   5.368   4.754   1.531  0.2999 -3.2808  0.0409
 2007TIP3   OH227435   4.401   5.088   3.582  0.7798  0.1230  0.0986
 2007TIP3    H127436   4.377   5.177   3.609  0.0709  0.7114 -2.3037
 2007TIP3    H227437   4.486   5.098   3.538  0.8283 -0.4280  0.0599
 2008TIP3   OH227438   6.428   4.284  15.565 -0.4124  0.0411 -0.0598
 2008TIP3    H127439   6.462   4.259  15.479 -0.7469 -2.2712  0.4270
 2008TIP3    H227440   6.361   4.350  15.547 -0.5486 -0.4952 -1.5995
 2009TIP3   OH227441   2.471   2.699   5.977  0.4889  0.0399  0.4608
 2009TIP3    H127442   2.447   2.640   6.049  1.2637 -0.6694  0.1411
 2009TIP3    H227443   2.464   2.645   5.898  0.0794  0.6935  0.0433
 2010TIP3   OH227444   0.914   0.643  13.524 -0.3270  0.0206  1.0289
 2010TIP3    H127445   0.924   0.652  13.618 -0.7073  2.3729  0.8799
 2010TIP3    H227446   0.872   0.559  13.512  0.6425 -0.7555  2.8928
 2011TIP3   OH227447   5.081   0.908   1.077  0.4603  0.1604 -0.1319
 2011TIP3    H127448   5.040   0.980   1.126  2.4231  1.2973 -0.1256
 2011TIP3    H227449   5.031   0.830   1.103 -1.9168  1.5320 -0.3920
 2012TIP3   OH227450   4.677   6.199   3.924  0.2437 -0.3278 -0.2569
 2012TIP3    H127451   4.589   6.174   3.895 -0.3713  1.6017 -0.1332
 2012TIP3    H227452   4.663   6.245   4.006  1.2512  1.1519 -0.8966
 2013TIP3   OH227453   3.314   3.543  15.184  0.6686 -0.3579 -0.2469
 2013TIP3    H127454   3.259   3.492  15.124 -1.2715 -1.2036  2.1406
 2013TIP3    H227455   3.329   3.626  15.138 -0.5534 -1.0656 -1.9922
 2014TIP3   OH227456   1.220   0.313   6.457 -0.0744  0.4056  0.4993
 2014TIP3    H127457   1.150   0.378   6.445  0.3268  0.6333 -0.6285
 2014TIP3    H227458   1.247   0.291   6.368 -0.1236 -1.2277  0.8800
 2015TIP3   OH227459   4.779   3.368   4.974 -0.4700  0.4828 -0.3446
 2015TIP3    H127460   4.697   3.372   4.926 -1.4160 -4.0151  0.6816
 2015TIP3    H227461   4.753   3.377   5.066  0.3202  0.1416 -0.0838
 2016TIP3   OH227462   3.331   5.597  14.702  1.0976  0.0583 -0.6030
 2016TIP3    H127463   3.424   5.603  14.683  0.7047  0.6914 -2.4347
 2016TIP3    H227464   3.288   5.603  14.617 -0.5838 -1.2024  0.1047
 2017TIP3   OH227465   1.454   5.613  13.474  0.3014 -0.0764  0.2724
 2017TIP3    H127466   1.534   5.569  13.446  0.8646  1.3834 -0.4743
 2017TIP3    H227467   1.406   5.547  13.524  0.7335 -1.7663 -1.4901
 2018TIP3   OH227468   0.546   5.364   3.386  0.2184 -0.6271 -0.3237
 2018TIP3    H127469   0.571   5.317   3.466  1.6204  2.8503  1.4137
 2018TIP3    H227470   0.452   5.381   3.397  0.5621  0.5088  1.0068
 2019TIP3   OH227471   2.083   0.250   2.338 -0.3296  0.0839 -0.0169
 2019TIP3    H127472   2.094   0.157   2.358 -1.5141  0.1883  1.1900
 2019TIP3    H227473   2.030   0.284   2.410 -1.7423  1.2346 -1.5591
 2020TIP3   OH227474   0.503   0.884   5.530 -0.3038 -0.4756 -0.4298
 2020TIP3    H127475   0.545   0.970   5.535  0.1109 -0.7242  0.4625
 2020TIP3    H227476   0.504   0.852   5.620  0.1150 -1.6856 -0.8557
 2021TIP3   OH227477   2.042   4.395   1.090  0.2420 -0.5230 -0.2495
 2021TIP3    H127478   2.033   4.406   1.185  0.7206 -0.9397 -0.1520
 2021TIP3    H227479   1.953   4.408   1.056  0.3223  1.0834  0.1054
 2022TIP3   OH227480   1.485   4.760  12.410  0.3248  0.4342 -0.3434
 2022TIP3    H127481   1.397   4.785  12.382  0.2441  1.1238  0.4833
 2022TIP3    H227482   1.535   4.842  12.410  1.0829 -0.0296 -1.2270
 2023TIP3   OH227483   4.265   2.811  15.927 -0.1757  0.3050 -0.8998
 2023TIP3    H127484   4.248   2.773  15.841 -1.9492 -0.2311 -0.3246
 2023TIP3    H227485   4.231   2.747  15.989  0.3825  1.0421  0.1795
 2024TIP3   OH227486   5.779   3.239   5.648 -0.5684 -0.2676 -0.2226
 2024TIP3    H127487   5.779   3.285   5.564  0.0894  1.2943  0.6111
 2024TIP3    H227488   5.843   3.169   5.637 -2.4271 -1.7409 -1.8901
 2025TIP3   OH227489   0.372   4.887  15.454 -0.4277  0.3207  0.6630
 2025TIP3    H127490   0.369   4.874  15.549  0.3756  1.0378  0.7917
 2025TIP3    H227491   0.463   4.912  15.436 -0.1460 -1.3936 -0.5025
 2026TIP3   OH227492   2.286   2.544   4.812  0.3464 -0.2797 -0.2412
 2026TIP3    H127493   2.200   2.568   4.776  0.7202  0.0386 -0.9167
 2026TIP3    H227494   2.268   2.528   4.905 -0.5654 -0.8468 -0.5035
 2027TIP3   OH227495   0.506   5.538   5.149 -0.2383 -0.8278 -0.3697
 2027TIP3    H127496   0.593   5.502   5.170 -0.3106 -1.2856 -0.8269
 2027TIP3    H227497   0.525   5.621   5.105 -0.0470 -0.6726 -0.0009
 2028TIP3   OH227498   5.388   5.577   5.651 -0.0318 -0.6245 -0.4699
 2028TIP3    H127499   5.443   5.592   5.574  0.0890 -1.7134 -0.5960
 2028TIP3    H227500   5.440   5.609   5.725  0.0401 -0.0070 -0.7903
 2029TIP3   OH227501   6.484   1.192  14.309  0.3036 -0.5690  0.2661
 2029TIP3    H127502   6.578   1.172  14.304  0.1421 -0.8348 -2.1707
 2029TIP3    H227503   6.447   1.119  14.358  1.0671 -1.6046 -0.6728
 2030TIP3   OH227504   5.587   1.647   3.120 -0.1868  0.4658 -0.4504
 2030TIP3    H127505   5.541   1.697   3.188 -0.3834 -0.5618  0.1863
 2030TIP3    H227506   5.582   1.556   3.151  1.6430  0.2621 -0.7364
 2031TIP3   OH227507   6.463   2.149   1.352 -0.3001 -0.1701  0.4068
 2031TIP3    H127508   6.544   2.176   1.395 -0.5038 -1.8553  1.9474
 2031TIP3    H227509   6.409   2.228   1.349  1.4066  0.9721 -0.6810
 2032TIP3   OH227510   0.653   4.181  16.331  0.5486 -0.0554 -0.7441
 2032TIP3    H127511   0.700   4.170  16.413  1.0633  0.0827 -1.0175
 2032TIP3    H227512   0.713   4.230  16.275 -1.0512  2.7188 -0.1344
 2033TIP3   OH227513   3.904   3.937   4.344  0.1852  0.1093 -0.6632
 2033TIP3    H127514   3.809   3.949   4.346  0.1687 -0.1232  0.4650
 2033TIP3    H227515   3.917   3.861   4.287 -0.5265 -1.6643  1.4596
 2034TIP3   OH227516   2.903   4.537  14.050  0.7154  0.4966 -0.7979
 2034TIP3    H127517   2.965   4.513  14.119  0.6077  0.8150 -0.5889
 2034TIP3    H227518   2.830   4.578  14.096  1.7201  2.9576 -1.2554
 2035TIP3   OH227519   3.337   6.403  12.209 -0.4482  0.8259  0.0772
 2035TIP3    H127520   3.315   6.336  12.145 -2.6009  2.0724 -0.5524
 2035TIP3    H227521   3.415   6.446  12.174 -0.0212 -0.2824 -0.3268
 2036TIP3   OH227522   6.486   0.567   2.306 -0.0399 -0.5286  0.0482
 2036TIP3    H127523   6.579   0.553   2.290  0.4186  1.8124  0.4375
 2036TIP3    H227524   6.449   0.584   2.220  0.3271  0.7194  0.1189
 2037TIP3   OH227525   1.470   6.199  11.615  0.1724  0.0888 -0.2907
 2037TIP3    H127526   1.386   6.242  11.635  1.6208  3.3930 -0.9695
 2037TIP3    H227527   1.465   6.116  11.662 -3.6913 -0.0564 -0.7472
 2038TIP3   OH227528   0.104   5.757   0.364  0.5451 -0.5437 -0.2568
 2038TIP3    H127529   0.180   5.714   0.324  0.7657  0.0835 -0.5161
 2038TIP3    H227530   0.135   5.845   0.386 -0.6525  0.3823 -2.1329
 2039TIP3   OH227531   6.046   5.793  12.957  0.0113  0.1626 -0.3590
 2039TIP3    H127532   6.065   5.854  12.886 -0.0960  0.8720  0.2196
 2039TIP3    H227533   5.954   5.811  12.980 -0.1428 -0.4864 -0.4488
 2040TIP3   OH227534   4.067   5.170  14.067  0.9409 -0.2407 -0.3897
 2040TIP3    H127535   4.141   5.109  14.058  0.0239 -1.7947  2.0543
 2040TIP3    H227536   4.052   5.174  14.162 -1.2811  1.0675 -0.7804
 2041TIP3   OH227537   3.934   3.796   2.234 -0.1713  0.0698 -0.0394
 2041TIP3    H127538   3.982   3.859   2.180 -0.1828 -0.4620 -0.6746
 2041TIP3    H227539   3.999   3.762   2.295 -0.3231  1.2102  0.7722
 2042TIP3   OH227540   0.455   0.083   0.213  0.0203  0.3466 -0.3731
 2042TIP3    H127541   0.366   0.049   0.205  0.1322  0.0102 -0.2079
 2042TIP3    H227542   0.449   0.151   0.280  0.3312 -1.2809  1.3554
 2043TIP3   OH227543   4.082   5.357  12.042 -0.2557  0.0633  0.7392
 2043TIP3    H127544   4.168   5.343  12.003 -0.0326 -0.0143  1.2475
 2043TIP3    H227545   4.030   5.397  11.973  0.0206 -0.4250  0.2494
 2044TIP3   OH227546   6.761   2.606  13.426  0.0942 -0.0608 -0.3610
 2044TIP3    H127547   6.774   2.595  13.521 -0.1908 -0.9015 -0.4111
 2044TIP3    H227548   6.800   2.527  13.388 -2.2879 -1.0803 -0.7372
 2045TIP3   OH227549   6.433   0.109   4.948 -0.1272  0.2936 -0.1155
 2045TIP3    H127550   6.426   0.173   4.877 -0.8170 -1.5136 -1.7233
 2045TIP3    H227551   6.349   0.063   4.947  0.6860 -1.2420  0.4404
 2046TIP3   OH227552   1.063   3.648  13.218  0.3514 -0.0826  0.1483
 2046TIP3    H127553   1.058   3.722  13.158  1.4950 -0.8065 -0.8707
 2046TIP3    H227554   1.031   3.573  13.167 -0.2181 -0.3977  0.9626
 2047TIP3   OH227555   3.221   0.063   3.769  0.5971  0.7385 -0.0635
 2047TIP3    H127556   3.296   0.031   3.720  1.2534  1.9017  0.1748
 2047TIP3    H227557   3.176  -0.017   3.799  0.6824  0.0241 -1.7677
 2048TIP3   OH227558   4.718   0.411   1.497  0.2392  0.6806  0.1507
 2048TIP3    H127559   4.780   0.471   1.455  0.5484 -0.9214 -1.7182
 2048TIP3    H227560   4.647   0.401   1.435 -1.0407  1.0503  1.5238
 2049TIP3   OH227561   0.163   1.261   4.549 -0.1592  0.1967 -0.5813
 2049TIP3    H127562   0.256   1.242   4.549 -0.0571  0.6294  1.4667
 2049TIP3    H227563   0.158   1.355   4.534 -0.2909  0.1463 -0.8699
 2050TIP3   OH227564   1.427   6.334   3.113 -0.7463 -0.3267  0.3113
 2050TIP3    H127565   1.451   6.427   3.114 -0.8540 -0.2811 -0.6144
 2050TIP3    H227566   1.486   6.293   3.177 -0.4435  0.3183  0.4474
 2051TIP3   OH227567   2.181   5.122   0.641  0.1571 -0.7295 -0.4711
 2051TIP3    H127568   2.215   5.198   0.595  1.4974 -1.9482 -1.5419
 2051TIP3    H227569   2.172   5.150   0.732  1.5746  0.4004 -0.6700
 2052TIP3   OH227570   5.133   6.507   0.789 -0.1732  0.6001 -0.5415
 2052TIP3    H127571   5.084   6.425   0.782  0.3336  0.2521 -0.0063
 2052TIP3    H227572   5.202   6.489   0.852 -0.6877  1.7449  0.3686
 2053TIP3   OH227573   5.161   6.239  16.084  0.0969 -0.6076 -0.1938
 2053TIP3    H127574   5.209   6.279  16.157  1.4206  2.3503 -2.5749
 2053TIP3    H227575   5.082   6.293  16.075 -1.6864 -2.9348  1.0511
 2054TIP3   OH227576   3.174   1.329   1.375 -0.0697  0.1120  0.3587
 2054TIP3    H127577   3.224   1.409   1.393 -2.0417  1.7181 -1.0624
 2054TIP3    H227578   3.093   1.360   1.336 -2.3674 -2.4139  2.9410
 2055TIP3   OH227579   1.175   5.983   4.911 -0.1681  0.3580 -0.4367
 2055TIP3    H127580   1.258   5.941   4.935  0.0879  1.6905  1.0439
 2055TIP3    H227581   1.195   6.028   4.829  0.5680  0.6190 -0.1227
 2056TIP3   OH227582   4.314   6.344   3.787 -0.2179  0.4607 -0.2708
 2056TIP3    H127583   4.232   6.371   3.747  0.0992  1.1702 -0.4429
 2056TIP3    H227584   4.378   6.344   3.716 -0.0092  0.1510 -0.0885
 2057TIP3   OH227585   1.574   0.609   6.306 -0.0824  0.3373  0.3982
 2057TIP3    H127586   1.487   0.623   6.268 -0.2009  0.1176  0.5894
 2057TIP3    H227587   1.633   0.662   6.252 -0.0966 -0.8340 -0.7927
 2058TIP3   OH227588   3.041   5.281  14.135  0.6224 -0.2752 -0.6779
 2058TIP3    H127589   2.996   5.240  14.209 -3.6428  4.2570 -0.5059
 2058TIP3    H227590   3.111   5.333  14.175  0.4578 -0.4422 -0.1733
 2059TIP3   OH227591   1.508   0.252   2.568  0.1740  1.0987 -0.1613
 2059TIP3    H127592   1.426   0.249   2.519  0.1878 -1.2114 -0.1097
 2059TIP3    H227593   1.489   0.307   2.644 -1.5420  0.0804  0.1785
 2060TIP3   OH227594   4.682   1.463   2.707 -0.0067  0.1163 -0.3677
 2060TIP3    H127595   4.696   1.422   2.793 -2.1303 -2.4447 -1.1716
 2060TIP3    H227596   4.758   1.437   2.655 -0.7000 -1.8493 -0.4691
 2061TIP3   OH227597   0.754   3.942   1.714  0.0828 -0.3011 -0.5701
 2061TIP3    H127598   0.702   3.970   1.789  0.8138 -0.3545 -0.0331
 2061TIP3    H227599   0.758   4.019   1.657 -0.2871 -0.1895 -0.4441
 2062TIP3   OH227600   6.290   1.683  10.535 -0.2603 -0.0866  0.6235
 2062TIP3    H127601   6.314   1.590  10.534 -0.7743 -0.2179 -0.2258
 2062TIP3    H227602   6.195   1.683  10.522 -0.4146  0.5185  1.6856
 2063TIP3   OH227603   3.964   2.581   5.169  0.2279 -0.3390  0.6948
 2063TIP3    H127604   3.985   2.499   5.214  0.1239  0.0248  1.4002
 2063TIP3    H227605   3.946   2.643   5.239  0.8294  0.4291  0.1752
 2064TIP3   OH227606   5.772   1.513  13.078  0.5542 -0.4705 -0.5431
 2064TIP3    H127607   5.782   1.497  12.985  1.0772 -0.7019 -0.4492
 2064TIP3    H227608   5.857   1.491  13.116  0.2932 -0.5462  0.0089
 2065TIP3   OH227609   0.179   1.363   1.849  0.1888  0.1752  0.4112
 2065TIP3    H127610   0.250   1.306   1.880 -0.5612 -1.0538 -0.0694
 2065TIP3    H227611   0.121   1.304   1.800 -0.5562  1.3872 -0.1854
 2066TIP3   OH227612   1.229   2.305   5.918 -0.0405  0.5683  0.1748
 2066TIP3    H127613   1.230   2.401   5.920  0.1996  0.5375  1.6794
 2066TIP3    H227614   1.319   2.280   5.937  0.2876  0.0509 -1.8981
 2067TIP3   OH227615   3.334   5.346   1.926 -0.0511  0.2172  0.2406
 2067TIP3    H127616   3.302   5.383   2.009  0.2868  2.6368 -0.6618
 2067TIP3    H227617   3.415   5.394   1.908 -0.7719  0.6126 -2.0987
 2068TIP3   OH227618   4.657   1.486  14.782 -0.1461  0.4821  0.4352
 2068TIP3    H127619   4.573   1.530  14.790 -0.2741  0.4776 -0.7609
 2068TIP3    H227620   4.707   1.540  14.721  0.2388 -0.2083  0.1239
 2069TIP3   OH227621   5.315   1.242  12.352 -0.4882  0.2745  0.2012
 2069TIP3    H127622   5.320   1.319  12.409  0.6861 -0.8323  1.6424
 2069TIP3    H227623   5.223   1.217  12.353 -1.0295  2.1438 -0.9588
 2070TIP3   OH227624   3.106   2.608  17.156 -0.0472 -0.4279 -0.1421
 2070TIP3    H127625   3.042   2.669  17.120 -0.5229 -0.6584  0.3176
 2070TIP3    H227626   3.183   2.619  17.100  0.9390  2.7866  1.7625
 2071TIP3   OH227627   3.561   0.447   2.626 -0.3375 -0.0105 -0.0402
 2071TIP3    H127628   3.586   0.373   2.571 -2.2162 -1.2954  0.7973
 2071TIP3    H227629   3.620   0.442   2.702 -0.0224 -0.2518 -0.3031
 2072TIP3   OH227630   3.498   5.802   1.387 -0.3962 -0.4386 -0.4583
 2072TIP3    H127631   3.571   5.803   1.325  0.9963 -1.0125  1.1416
 2072TIP3    H227632   3.523   5.738   1.453 -1.7422  0.3463  0.8379
 2073TIP3   OH227633   4.525   4.216  10.873 -0.1140 -0.0210  0.5482
 2073TIP3    H127634   4.612   4.205  10.835  0.2065  0.8744  1.0231
 2073TIP3    H227635   4.494   4.127  10.888 -0.6016 -0.4148 -2.6098
 2074TIP3   OH227636   0.323   6.561   4.090 -0.5830  0.3468  0.5473
 2074TIP3    H127637   0.380   6.576   4.166  1.3843 -1.6269 -0.4836
 2074TIP3    H227638   0.284   6.475   4.106  1.3508 -0.9741 -1.5361
 2075TIP3   OH227639   5.909   0.177  14.538  0.5093  0.3351  0.1301
 2075TIP3    H127640   5.868   0.136  14.461 -0.9146  1.8113  0.0910
 2075TIP3    H227641   6.003   0.172  14.520  0.2397 -0.4571 -1.1317
 2076TIP3   OH227642   2.719   1.082   3.412  0.3501  0.0078 -0.2710
 2076TIP3    H127643   2.674   1.028   3.347 -0.1433 -0.0814  0.1485
 2076TIP3    H227644   2.751   1.158   3.362 -0.4534  0.1814 -0.5210
 2077TIP3   OH227645   3.344   5.500  13.132  0.0454  0.1436 -0.0919
 2077TIP3    H127646   3.413   5.550  13.176 -0.2820  0.1096  0.4626
 2077TIP3    H227647   3.285   5.473  13.202 -1.0025  0.9020 -0.6655
 2078TIP3   OH227648   6.663   0.483   5.032 -0.0575  0.1864 -0.0670
 2078TIP3    H127649   6.673   0.574   5.060  1.2901 -0.6280  2.2672
 2078TIP3    H227650   6.620   0.489   4.947 -1.3880  2.9325  0.7229
 2079TIP3   OH227651   4.964   5.767  13.113 -0.0698  0.0551 -0.9955
 2079TIP3    H127652   4.875   5.731  13.110 -0.5390  0.9942  0.8024
 2079TIP3    H227653   5.005   5.737  13.032 -1.6694 -1.3232 -1.3233
 2080TIP3   OH227654   1.237   3.835  13.439 -0.3281 -0.3796 -0.3148
 2080TIP3    H127655   1.237   3.886  13.520  4.0674 -0.1805 -0.3604
 2080TIP3    H227656   1.234   3.744  13.467  0.9218 -0.3036  0.0773
 2081TIP3   OH227657   4.278   0.534  15.634 -0.6711 -0.8536  0.4483
 2081TIP3    H127658   4.232   0.592  15.574 -0.9080 -0.9055  0.5792
 2081TIP3    H227659   4.257   0.567  15.721  1.2696  0.4273  0.4657
 2082TIP3   OH227660   1.181   4.150  10.485 -0.1564  0.5696  0.0817
 2082TIP3    H127661   1.166   4.087  10.415 -1.4043  1.2825 -0.3086
 2082TIP3    H227662   1.217   4.227  10.441 -1.1064  1.0836  0.1970
 2083TIP3   OH227663   1.797   1.844   3.645  0.2475 -0.1286  0.0604
 2083TIP3    H127664   1.746   1.925   3.648  1.2397  0.4844  0.5215
 2083TIP3    H227665   1.829   1.839   3.555  1.7129  0.9385  0.5282
 2084TIP3   OH227666   2.480   4.623  13.898  0.1960 -0.5629  0.0532
 2084TIP3    H127667   2.507   4.533  13.877  0.5995 -0.1683 -1.1391
 2084TIP3    H227668   2.405   4.639  13.840  0.4896  0.0776 -0.1486
 2085TIP3   OH227669   6.766   0.590   1.479  0.0387  0.4390 -0.2900
 2085TIP3    H127670   6.709   0.616   1.406  1.1806  1.9073 -0.7064
 2085TIP3    H227671   6.824   0.665   1.490  0.2978 -0.0430  1.7250
 2086TIP3   OH227672   2.819   0.616   2.272 -0.0196 -1.0155 -0.2477
 2086TIP3    H127673   2.867   0.541   2.307  0.1854 -0.8633 -0.2020
 2086TIP3    H227674   2.736   0.616   2.321  0.0590 -1.0964 -0.1130
 2087TIP3   OH227675   1.858   6.644  13.845  0.1937  0.5035 -0.3972
 2087TIP3    H127676   1.851   6.566  13.899 -0.2737  0.3356 -0.6927
 2087TIP3    H227677   1.951   6.662  13.840  0.3006 -0.0208 -0.3011
 2088TIP3   OH227678   1.471   2.418   5.733  0.2789  0.7845 -0.1315
 2088TIP3    H127679   1.517   2.461   5.806  1.4638  1.8074 -1.4615
 2088TIP3    H227680   1.411   2.484   5.700 -0.6149  0.1567  0.2101
 2089TIP3   OH227681   4.042   1.377  15.013  0.3800  0.3048  0.0448
 2089TIP3    H127682   4.035   1.298  14.959 -0.4251 -0.7143  1.5873
 2089TIP3    H227683   4.118   1.362  15.068  0.5839  0.8850 -0.0736
 2090TIP3   OH227684   6.260   3.268   3.960  0.5524 -0.3895 -0.0341
 2090TIP3    H127685   6.348   3.305   3.958  0.2416  0.5537  2.6002
 2090TIP3    H227686   6.201   3.343   3.952 -0.0383 -0.8558 -0.1312
 2091TIP3   OH227687   1.553   4.206   3.046 -0.4142  0.5025  0.0848
 2091TIP3    H127688   1.604   4.127   3.030  1.1250  1.4770  0.1331
 2091TIP3    H227689   1.560   4.256   2.965 -0.5315  1.0544  0.4110
 2092TIP3   OH227690   0.712   0.643  11.926  0.0851  0.1915  0.1925
 2092TIP3    H127691   0.787   0.688  11.965  0.8094 -1.0319  0.2503
 2092TIP3    H227692   0.740   0.623  11.836 -0.8767  1.3665 -0.3764
 2093TIP3   OH227693   1.676   1.460  12.984  0.1725  0.1884  0.1213
 2093TIP3    H127694   1.760   1.480  13.027  0.0972  1.0803 -0.1284
 2093TIP3    H227695   1.694   1.383  12.931  1.0038  0.7420 -0.4143
 2094TIP3   OH227696   2.074   2.375   5.266 -0.4012  0.4103 -0.2449
 2094TIP3    H127697   2.002   2.336   5.317 -1.0523  1.6846 -0.1624
 2094TIP3    H227698   2.072   2.327   5.182  1.0208 -2.0610  1.0782
 2095TIP3   OH227699   6.349   4.089  13.217 -0.2693  0.4193  0.6201
 2095TIP3    H127700   6.360   4.090  13.312  0.4944 -0.5241  0.5486
 2095TIP3    H227701   6.258   4.063  13.203 -0.6088  1.3421  1.1067
 2096TIP3   OH227702   0.865   6.023   2.906  0.0985  0.0883  0.3063
 2096TIP3    H127703   0.934   6.041   2.841 -0.9606  0.2508 -0.7910
 2096TIP3    H227704   0.856   5.928   2.905 -0.6485  0.1595 -0.5735
 2097TIP3   OH227705   5.042   0.770  16.298 -0.5974  0.2322 -0.2621
 2097TIP3    H127706   5.131   0.771  16.263  1.0564  0.6555  3.6459
 2097TIP3    H227707   4.999   0.845  16.257  1.0945  0.4961 -1.6116
 2098TIP3   OH227708   3.746   3.964   3.269 -0.8675 -0.6865  0.2130
 2098TIP3    H127709   3.744   3.947   3.364 -0.2999  1.0448  0.5532
 2098TIP3    H227710   3.754   4.059   3.262  0.5627 -0.9090 -1.5611
 2099TIP3   OH227711   6.665   2.247   4.563 -0.4709  0.3456  0.3630
 2099TIP3    H127712   6.607   2.270   4.489  0.7221  0.6228 -0.5039
 2099TIP3    H227713   6.747   2.220   4.521  0.2157  0.4944  1.5937
 2100TIP3   OH227714   1.621   1.705   3.343  0.3736 -0.3823 -0.2581
 2100TIP3    H127715   1.632   1.688   3.437 -1.2029 -0.3326 -0.0626
 2100TIP3    H227716   1.704   1.747   3.317  1.1831 -1.2312  0.9000
 2101TIP3   OH227717   3.064   1.213   3.075 -0.0667  0.3614 -0.4999
 2101TIP3    H127718   3.058   1.205   2.980 -2.2162  1.7357 -0.5053
 2101TIP3    H227719   3.146   1.261   3.090 -0.2419  1.0470 -1.6916
 2102TIP3   OH227720   5.170   4.403  13.371 -0.6676 -0.1556 -0.0489
 2102TIP3    H127721   5.124   4.319  13.372  1.4519 -1.3871 -0.7509
 2102TIP3    H227722   5.176   4.427  13.279 -1.9842  1.2160  0.2024
 2103TIP3   OH227723   3.078   6.602  12.211 -0.0648 -0.1859  0.2302
 2103TIP3    H127724   3.075   6.674  12.274 -0.4468 -0.3854  0.4339
 2103TIP3    H227725   3.152   6.549  12.239  1.3316  1.0802 -0.9398
 2104TIP3   OH227726   4.964   1.848   5.990  0.4031  0.0498  0.1865
 2104TIP3    H127727   5.056   1.825   5.980  0.2138 -0.5322 -0.2164
 2104TIP3    H227728   4.952   1.857   6.085  0.8623  0.0920  0.2419
 2105TIP3   OH227729   4.217   3.785   4.383  0.6147  0.6681 -0.3981
 2105TIP3    H127730   4.277   3.860   4.385 -0.8971  1.8889  0.1885
 2105TIP3    H227731   4.164   3.795   4.462 -1.7338  0.7331 -1.9675
 2106TIP3   OH227732   1.434   5.591  11.648  0.5140 -0.5385 -0.1401
 2106TIP3    H127733   1.511   5.566  11.597  1.5123  0.9183  0.6328
 2106TIP3    H227734   1.468   5.610  11.735 -0.6235  0.7928  0.0284
 2107TIP3   OH227735   4.433   6.781   3.080  0.6834  0.1738 -0.0125
 2107TIP3    H127736   4.447   6.776   2.985 -0.9095  0.6176 -0.2875
 2107TIP3    H227737   4.519   6.768   3.118  1.0774 -1.6496 -1.4803
 2108TIP3   OH227738   6.595   6.109   4.080  0.1615  0.3842 -0.4385
 2108TIP3    H127739   6.582   6.200   4.108 -0.5088 -0.2167  1.2536
 2108TIP3    H227740   6.603   6.059   4.161 -0.1245 -1.1694 -1.3384
 2109TIP3   OH227741   5.039   1.880  16.433  0.2978 -0.1117  0.1435
 2109TIP3    H127742   5.119   1.926  16.456  0.3016 -0.8715  1.7120
 2109TIP3    H227743   5.030   1.893  16.338  2.2040  0.0650 -0.0279
 2110TIP3   OH227744   6.297   4.201  14.007  0.3932  0.2904 -0.0370
 2110TIP3    H127745   6.356   4.154  14.065  1.9081  0.5345 -1.3249
 2110TIP3    H227746   6.237   4.134  13.974  0.1449 -0.0214  1.0434
 2111TIP3   OH227747   2.691   5.441   4.087  0.0582 -0.4375  0.6022
 2111TIP3    H127748   2.654   5.376   4.147 -1.4507 -0.0797  0.0776
 2111TIP3    H227749   2.643   5.521   4.107 -0.5834 -0.3631 -1.2027
 2112TIP3   OH227750   0.856   5.320   3.100 -0.1033  0.3037  0.4074
 2112TIP3    H127751   0.905   5.261   3.157  1.0891  1.5023  0.6395
 2112TIP3    H227752   0.880   5.408   3.129 -0.2779  0.9254 -1.2602
 2113TIP3   OH227753   2.886   6.466  14.505  0.1217  0.1064 -0.4085
 2113TIP3    H127754   2.817   6.518  14.546 -0.0967 -1.6525  1.6147
 2113TIP3    H227755   2.842   6.420  14.434 -0.9139 -1.1854  1.0130
 2114TIP3   OH227756   6.358   1.417   1.793 -0.2869 -0.3427  0.4932
 2114TIP3    H127757   6.445   1.436   1.828 -0.4157 -0.8786  1.1179
 2114TIP3    H227758   6.367   1.331   1.752 -0.1021  0.3388 -0.9193
 2115TIP3   OH227759   4.829   0.986  12.160  0.1491  0.7668  0.2092
 2115TIP3    H127760   4.873   1.067  12.134 -0.2604  0.4348 -1.5818
 2115TIP3    H227761   4.889   0.917  12.133  0.3197  0.4604  1.3808
 2116TIP3   OH227762   5.517   6.567   1.938  0.0571 -0.0955  0.0353
 2116TIP3    H127763   5.489   6.583   1.848  0.9193  1.8526  0.0779
 2116TIP3    H227764   5.439   6.583   1.991 -0.2590 -0.5201 -0.2958
 2117TIP3   OH227765   0.919   2.913   5.319  0.2780  0.2679  0.2135
 2117TIP3    H127766   0.957   2.905   5.232 -0.6664 -0.5255 -0.1398
 2117TIP3    H227767   0.976   2.861   5.375 -0.3050 -0.9812 -0.3248
 2118TIP3   OH227768   2.644   0.965  12.536 -0.5346 -0.0170 -0.3407
 2118TIP3    H127769   2.647   0.911  12.615  0.6366 -1.2949 -1.2408
 2118TIP3    H227770   2.717   0.933  12.482 -0.4430  1.7842 -1.3205
 2119TIP3   OH227771   6.338   6.513  12.439  0.1502  0.2180  0.0116
 2119TIP3    H127772   6.403   6.513  12.369  1.6454 -0.9708  1.3732
 2119TIP3    H227773   6.324   6.605  12.459  0.7280  0.5068 -0.8975
 2120TIP3   OH227774   1.773   4.068  16.702  0.2624 -0.0516 -0.1873
 2120TIP3    H127775   1.861   4.084  16.737 -0.4862  0.0922  1.6525
 2120TIP3    H227776   1.717   4.128  16.751 -0.4409  2.1484 -3.5062
 2121TIP3   OH227777   5.568   0.229  12.239  0.3681 -0.5432 -0.1257
 2121TIP3    H127778   5.485   0.230  12.286 -0.0082  2.9619 -0.7068
 2121TIP3    H227779   5.544   0.241  12.147  1.4980  1.1543 -0.2318
 2122TIP3   OH227780   3.986   1.804  14.048  0.0788  0.3818  0.1639
 2122TIP3    H127781   4.024   1.851  14.122  1.3987  1.6848 -1.2845
 2122TIP3    H227782   4.019   1.851  13.971 -2.2360 -0.2080 -1.2179
 2123TIP3   OH227783   3.345   2.247  13.408  0.2963 -0.6110 -0.2888
 2123TIP3    H127784   3.336   2.155  13.382 -0.8688 -0.4408 -0.5095
 2123TIP3    H227785   3.294   2.254  13.488  0.2473 -0.1057 -0.3647
 2124TIP3   OH227786   1.444   5.159   6.321  0.0340  0.0278  0.2189
 2124TIP3    H127787   1.508   5.229   6.334 -0.3096  0.0699  1.8145
 2124TIP3    H227788   1.367   5.204   6.285  0.2608  0.2858  0.0615
 2125TIP3   OH227789   4.968   6.673   6.501 -0.0763  0.0644  0.0745
 2125TIP3    H127790   4.953   6.624   6.420  0.6502 -0.2983  0.1508
 2125TIP3    H227791   4.891   6.656   6.554 -0.2045 -0.3298 -0.2371
 2126TIP3   OH227792   5.389   3.230   2.292  0.0881 -0.5072  0.1141
 2126TIP3    H127793   5.484   3.222   2.300 -0.2297 -1.8438  3.3742
 2126TIP3    H227794   5.363   3.153   2.242  0.5374 -1.2896  1.0655
 2127TIP3   OH227795   4.245   5.966   5.382  0.3142  0.1394  0.1215
 2127TIP3    H127796   4.156   5.975   5.417  0.9586  1.4561  1.4665
 2127TIP3    H227797   4.292   5.914   5.448  0.0411 -2.3566 -1.5558
 2128TIP3   OH227798   3.559   0.023   4.838  0.1623 -0.4370 -0.6787
 2128TIP3    H127799   3.548  -0.070   4.817 -0.7532 -0.4444 -0.1903
 2128TIP3    H227800   3.479   0.064   4.804 -0.0480 -0.0283  0.2898
 2129TIP3   OH227801   3.379   0.631   0.264 -0.4078  0.4493  0.3559
 2129TIP3    H127802   3.389   0.537   0.252 -0.2470  0.3337  1.3887
 2129TIP3    H227803   3.462   0.660   0.300  0.8585  1.5809 -3.2492
 2130TIP3   OH227804   5.232   1.092   3.745  0.4708  0.3789  0.2909
 2130TIP3    H127805   5.257   1.000   3.739  1.0964  0.5720 -0.1260
 2130TIP3    H227806   5.311   1.137   3.777 -0.4512  0.4876  2.4896
 2131TIP3   OH227807   4.181   0.743   6.714 -0.4674 -0.2620  0.3462
 2131TIP3    H127808   4.256   0.799   6.734 -1.0063  0.7924 -0.4826
 2131TIP3    H227809   4.210   0.689   6.641 -0.7558  0.7064 -0.5053
 2132TIP3   OH227810   6.640   1.934   4.943  0.2667 -0.1608 -0.4688
 2132TIP3    H127811   6.703   1.905   5.009 -0.0125 -0.1145 -0.1787
 2132TIP3    H227812   6.689   1.932   4.861  0.3912 -1.0076 -0.3885
 2133TIP3   OH227813   3.663   3.810   2.284  0.1451 -0.3786 -0.1098
 2133TIP3    H127814   3.755   3.788   2.273  0.8286  1.8471  0.8070
 2133TIP3    H227815   3.631   3.826   2.195  0.3517 -2.1503 -0.5199
 2134TIP3   OH227816   3.111   4.479   5.906  0.7169  0.0556  0.2408
 2134TIP3    H127817   3.114   4.402   5.964  2.1943 -0.0690  0.0230
 2134TIP3    H227818   3.193   4.475   5.858  0.2587  1.1256 -0.6384
 2135TIP3   OH227819   3.893   6.201   2.521 -0.7023 -0.4737  0.3698
 2135TIP3    H127820   3.938   6.195   2.436 -0.4572  0.0040  0.4635
 2135TIP3    H227821   3.806   6.235   2.500 -0.2375  0.7937  0.4323
 2136TIP3   OH227822   3.379   6.646   2.815  0.1785  0.4557  0.4187
 2136TIP3    H127823   3.315   6.650   2.745 -0.3796 -0.8073  0.8403
 2136TIP3    H227824   3.379   6.734   2.854 -2.1266  0.1590  1.1365
 2137TIP3   OH227825   6.495   0.668   3.354  0.4288  0.0645  0.1234
 2137TIP3    H127826   6.580   0.631   3.330  0.7740  2.2579 -2.3278
 2137TIP3    H227827   6.453   0.687   3.270 -1.9079  0.3240  1.3156
 2138TIP3   OH227828   3.045   4.139   3.631 -0.9518 -0.5338 -0.1017
 2138TIP3    H127829   3.043   4.131   3.535 -2.1126  3.5779 -0.4987
 2138TIP3    H227830   2.979   4.205   3.651  1.1979  0.7238  3.2837
 2139TIP3   OH227831   0.576   6.077   1.837  0.3726  0.0518 -0.5276
 2139TIP3    H127832   0.484   6.077   1.862  0.5276 -0.2405  0.0451
 2139TIP3    H227833   0.604   5.986   1.847  1.5327  0.6650  2.3470
 2140TIP3   OH227834   5.050   0.856  13.692 -0.3251  0.2016  0.6440
 2140TIP3    H127835   4.987   0.927  13.679  0.4446  0.8356  0.3354
 2140TIP3    H227836   5.055   0.812  13.607 -0.5844 -0.0388  0.7556
 2141TIP3   OH227837   3.532   6.656  12.373  0.3811 -0.9839 -0.4691
 2141TIP3    H127838   3.507   6.748  12.380  1.4323 -0.8688  2.5252
 2141TIP3    H227839   3.485   6.613  12.445  0.2447 -2.7254 -1.5634
 2142TIP3   OH227840   1.679   1.266   6.711  0.0353 -0.1428 -0.0708
 2142TIP3    H127841   1.698   1.256   6.617  1.2658  0.9864  0.0505
 2142TIP3    H227842   1.715   1.351   6.734 -0.3777 -0.3600  1.4177
 2143TIP3   OH227843   6.545   6.373   4.005  0.0362 -0.2739 -0.4318
 2143TIP3    H127844   6.574   6.338   3.920  3.6077  0.5091  0.3816
 2143TIP3    H227845   6.525   6.465   3.987  2.1790  0.2588 -0.1558
 2144TIP3   OH227846   4.614   3.692   2.694 -0.7487  0.0794 -0.4637
 2144TIP3    H127847   4.640   3.766   2.639  0.3708  0.1845  0.1807
 2144TIP3    H227848   4.682   3.626   2.678  0.1741  0.5008  1.5701
 2145TIP3   OH227849   4.180   4.153   1.492  0.0803 -0.0040 -0.0156
 2145TIP3    H127850   4.224   4.180   1.411 -0.1465  1.9385  0.4820
 2145TIP3    H227851   4.199   4.224   1.554 -1.1763 -0.6468  1.1252
 2146TIP3   OH227852   1.838   5.749  12.539  0.0939  0.1042 -0.0582
 2146TIP3    H127853   1.910   5.688  12.525 -1.2467 -1.6017  0.1300
 2146TIP3    H227854   1.852   5.783  12.627  0.8132 -0.0045 -0.1283
 2147TIP3   OH227855   0.165   3.119  13.217 -0.1530 -0.1259  0.1169
 2147TIP3    H127856   0.256   3.121  13.188 -0.0598  0.1482  0.4207
 2147TIP3    H227857   0.158   3.039  13.268 -0.8177 -1.6342 -2.2397
 2148TIP3   OH227858   4.418   6.702   1.653 -0.9591  0.9529 -0.8749
 2148TIP3    H127859   4.405   6.671   1.563 -0.3179  1.4678 -1.1483
 2148TIP3    H227860   4.438   6.623   1.703 -0.2744  0.7931 -1.3891
 2149TIP3   OH227861   5.286   5.675   5.221  0.3814 -0.2157  0.4256
 2149TIP3    H127862   5.275   5.717   5.306 -0.6250 -1.0402  0.7259
 2149TIP3    H227863   5.322   5.743   5.164 -0.9585  0.9678  0.9661
 2150TIP3   OH227864   3.176   0.070  16.764 -0.1914  0.4366 -0.4094
 2150TIP3    H127865   3.112   0.083  16.693 -0.3819 -2.3216 -0.8095
 2150TIP3    H227866   3.124   0.074  16.844 -0.2925  1.6059 -0.5254
 2151TIP3   OH227867   4.181   6.114  16.712  0.4186  0.0793  0.0623
 2151TIP3    H127868   4.259   6.130  16.765  1.1887 -0.1003 -1.0193
 2151TIP3    H227869   4.126   6.191  16.726  1.2295  0.6675  0.0359
 2152TIP3   OH227870   1.070   6.051   2.486  0.9239  0.2558 -0.0179
 2152TIP3    H127871   0.993   6.106   2.491  1.2730  0.7277  0.2268
 2152TIP3    H227872   1.136   6.106   2.444  0.7135 -0.6163 -1.5352
 2153TIP3   OH227873   5.068   3.760  16.941 -0.1163 -0.6692 -0.0374
 2153TIP3    H127874   5.135   3.715  16.889 -1.3093 -0.2199 -2.0254
 2153TIP3    H227875   4.993   3.700  16.942 -0.6045 -0.0690 -0.0368
 2154TIP3   OH227876   1.492   4.128  11.169 -0.1545 -0.3739  0.3463
 2154TIP3    H127877   1.533   4.210  11.143 -0.0789 -0.4958  0.0808
 2154TIP3    H227878   1.565   4.066  11.178 -0.2474 -0.5086  0.1814
 2155TIP3   OH227879   3.972   6.057   5.405  0.3990 -0.2155 -0.4290
 2155TIP3    H127880   3.968   5.991   5.475 -1.8022  0.6206  0.2563
 2155TIP3    H227881   3.887   6.051   5.361  0.5968  1.4180 -1.0656
 2156TIP3   OH227882   1.802   4.538   0.872 -0.0344  0.1339  0.5248
 2156TIP3    H127883   1.747   4.558   0.948 -0.2730 -1.6559  0.8281
 2156TIP3    H227884   1.836   4.624   0.845 -1.7453  1.0772  1.2546
 2157TIP3   OH227885   1.222   0.330  12.193 -0.2217 -0.2582  0.1634
 2157TIP3    H127886   1.243   0.237  12.198 -1.0633 -0.5622 -1.5294
 2157TIP3    H227887   1.277   0.363  12.122  0.0990  0.5359  0.7836
 2158TIP3   OH227888   4.787   4.692   2.782  0.2929 -0.3263 -0.4651
 2158TIP3    H127889   4.807   4.606   2.746  0.1928 -1.0521  1.1453
 2158TIP3    H227890   4.700   4.682   2.821 -0.0701  0.7345 -0.9952
 2159TIP3   OH227891   4.544   2.998  11.720  0.5747  0.2904  0.0997
 2159TIP3    H127892   4.618   2.937  11.724  2.7383  2.7913 -0.6436
 2159TIP3    H227893   4.540   3.037  11.807  1.1844  1.3636 -0.3520
 2160TIP3   OH227894   3.572   1.060   5.683  0.0396 -0.1023  0.1960
 2160TIP3    H127895   3.538   1.004   5.753  1.6132  2.3281  3.0363
 2160TIP3    H227896   3.594   0.999   5.612 -3.0818 -2.4630  1.1522
 2161TIP3   OH227897   2.508   0.591   1.619  0.5649 -0.2679 -0.7730
 2161TIP3    H127898   2.447   0.580   1.546  0.0227  0.5507 -0.4433
 2161TIP3    H227899   2.538   0.682   1.612  0.6266 -0.2311 -0.0609
 2162TIP3   OH227900   6.776   3.608  11.505 -0.0096  0.0336 -0.0852
 2162TIP3    H127901   6.859   3.653  11.491 -0.0677  0.0388 -0.4249
 2162TIP3    H227902   6.712   3.678  11.513  0.0797  0.0451  0.6233
 2163TIP3   OH227903   1.916   1.258   5.804  0.0043 -0.1199  0.2377
 2163TIP3    H127904   1.845   1.218   5.855 -1.9457  0.3122 -2.0316
 2163TIP3    H227905   1.955   1.185   5.757 -2.5832  0.3297 -2.7516
 2164TIP3   OH227906   3.755   6.239   5.454 -0.4142 -0.1010 -0.0327
 2164TIP3    H127907   3.758   6.189   5.372  0.5222 -0.7783  0.4131
 2164TIP3    H227908   3.673   6.288   5.448 -1.5676 -2.0185 -0.2680
 2165TIP3   OH227909   5.235   3.673   0.517 -0.1970 -0.2186 -0.0188
 2165TIP3    H127910   5.203   3.762   0.501  0.3929 -0.0259 -0.1166
 2165TIP3    H227911   5.224   3.661   0.612  2.6867  1.1305  0.5459
 2166TIP3   OH227912   4.066   4.406   2.339 -0.0034  1.0108 -0.2581
 2166TIP3    H127913   4.085   4.480   2.397 -1.9204  1.4161 -0.1023
 2166TIP3    H227914   3.980   4.427   2.302 -0.0471 -0.6040 -1.0940
 2167TIP3   OH227915   6.707   4.020  15.182 -0.2244 -0.3939 -0.5515
 2167TIP3    H127916   6.751   3.978  15.255 -0.7610 -1.1544 -0.6541
 2167TIP3    H227917   6.726   3.964  15.107 -0.6690 -0.2754 -0.7547
 2168TIP3   OH227918   2.935   1.993   1.049  0.2689  0.5812 -0.7915
 2168TIP3    H127919   2.989   2.072   1.049  0.2921  0.5874  0.6728
 2168TIP3    H227920   2.966   1.943   1.125 -0.1116 -0.5739 -1.3930
 2169TIP3   OH227921   5.654   3.976   1.787 -0.3606  0.1108  0.5290
 2169TIP3    H127922   5.633   4.068   1.803  0.9947  0.3120  1.1464
 2169TIP3    H227923   5.656   3.936   1.874  0.0318 -0.2998  0.3335
 2170TIP3   OH227924   3.042   0.155   4.030  0.3291  0.3707 -0.1227
 2170TIP3    H127925   3.114   0.107   4.070 -0.0013  0.4434  0.5613
 2170TIP3    H227926   3.068   0.247   4.033  0.0256  0.4366  0.5019
 2171TIP3   OH227927   0.835   2.405   1.846  0.1697  0.7805 -0.3838
 2171TIP3    H127928   0.782   2.400   1.925 -1.4046  1.3084 -1.3741
 2171TIP3    H227929   0.925   2.417   1.877 -0.1988 -0.6654  1.3433
 2172TIP3   OH227930   3.053   5.992   5.016 -0.1385 -0.4343  0.3921
 2172TIP3    H127931   3.083   5.935   5.087 -1.0100 -0.3555  0.8338
 2172TIP3    H227932   3.057   6.080   5.053  1.4414 -0.1689 -0.3706
 2173TIP3   OH227933   4.656   2.678  14.931 -0.2286  0.1537  1.0714
 2173TIP3    H127934   4.704   2.609  14.884 -1.6399 -0.1220  0.0027
 2173TIP3    H227935   4.722   2.745  14.949  0.5823 -0.2628 -0.2835
 2174TIP3   OH227936   5.905   2.867  16.748  0.0633  0.1984  0.1365
 2174TIP3    H127937   5.929   2.926  16.820 -0.7983 -0.9399  1.3773
 2174TIP3    H227938   5.950   2.785  16.768  0.1028 -0.0207 -0.8266
 2175TIP3   OH227939   0.372   4.772  11.278 -0.0388  0.2353  0.0010
 2175TIP3    H127940   0.380   4.866  11.258 -1.0873  0.5774  1.1682
 2175TIP3    H227941   0.369   4.730  11.192  1.3949  1.1768 -0.5400
 2176TIP3   OH227942   6.091   1.556  11.686 -0.1586  0.2352 -0.1136
 2176TIP3    H127943   6.154   1.525  11.621 -0.2552 -0.3094  0.0486
 2176TIP3    H227944   6.040   1.623  11.640  0.2006  0.3102 -0.3994
 2177TIP3   OH227945   1.808   1.080   1.184 -0.8796  0.0727 -0.2719
 2177TIP3    H127946   1.818   0.996   1.140  2.8981  1.1988 -1.7622
 2177TIP3    H227947   1.765   1.136   1.118 -2.1575 -0.2836  0.2407
 2178TIP3   OH227948   0.118   1.702   0.464 -0.1169 -0.2441 -0.4341
 2178TIP3    H127949   0.081   1.666   0.544 -3.3597  0.4742 -1.5500
 2178TIP3    H227950   0.210   1.675   0.466 -0.3897 -1.1521  2.9593
 2179TIP3   OH227951   4.743   4.098  14.033  0.6755  0.0170 -0.6027
 2179TIP3    H127952   4.677   4.123  14.098  0.3240 -0.2951 -0.8442
 2179TIP3    H227953   4.825   4.099  14.083  0.4645  0.1886 -0.2505
 2180TIP3   OH227954   0.835   4.771   3.935  0.8064 -0.1588 -0.2560
 2180TIP3    H127955   0.853   4.690   3.983  2.5139 -0.3907 -1.2307
 2180TIP3    H227956   0.810   4.834   4.002 -1.3200 -1.6985  0.4268
 2181TIP3   OH227957   5.551   6.170   5.367  0.2494 -0.5841 -0.1732
 2181TIP3    H127958   5.613   6.234   5.332 -1.0340  1.5448  1.2669
 2181TIP3    H227959   5.559   6.179   5.462 -1.2520 -1.2686  0.0345
 2182TIP3   OH227960   6.678   5.636  14.308 -0.1042  0.1280 -0.0698
 2182TIP3    H127961   6.631   5.650  14.390  1.0389  0.4088  0.5490
 2182TIP3    H227962   6.770   5.642  14.332  0.2199  1.5957 -1.6333
 2183TIP3   OH227963   5.765   6.398  13.595 -0.6061 -0.2468  0.5732
 2183TIP3    H127964   5.774   6.376  13.687  0.1468 -0.8082  0.3733
 2183TIP3    H227965   5.671   6.413  13.582 -0.5337  1.2597  1.7440
 2184TIP3   OH227966   1.324   2.488  12.655  0.4349 -0.0598 -0.7145
 2184TIP3    H127967   1.384   2.474  12.728  0.4981 -0.3303 -0.8179
 2184TIP3    H227968   1.380   2.522  12.585  0.6877 -1.4605 -1.2093
 2185TIP3   OH227969   0.871   4.318  15.374  0.1252 -1.0511 -0.3937
 2185TIP3    H127970   0.779   4.339  15.359  0.2398 -0.1747  0.1324
 2185TIP3    H227971   0.893   4.259  15.302 -1.0002 -1.7225 -0.2125
 2186TIP3   OH227972   0.771   4.689   2.410  0.3921 -0.1951  0.0385
 2186TIP3    H127973   0.829   4.632   2.360  0.0932  1.0927 -1.8422
 2186TIP3    H227974   0.806   4.777   2.396  0.0724  0.2208  1.7998
 2187TIP3   OH227975   1.147   5.601  16.820 -0.1544 -0.3289 -0.5321
 2187TIP3    H127976   1.217   5.645  16.774  0.5872 -0.4537  0.4607
 2187TIP3    H227977   1.093   5.563  16.751  1.1949 -0.9208 -1.2713
 2188TIP3   OH227978   1.771   0.624   2.537  0.4613  0.2978 -0.3553
 2188TIP3    H127979   1.677   0.637   2.531  0.3452 -0.0577  0.5465
 2188TIP3    H227980   1.793   0.655   2.625  1.3614  1.4192 -0.9539
 2189TIP3   OH227981   3.287   0.161   5.086  0.3254 -0.4041  0.8914
 2189TIP3    H127982   3.382   0.151   5.092  0.4907  0.6316  0.0803
 2189TIP3    H227983   3.274   0.251   5.055 -0.9072 -0.6450  0.6841
 2190TIP3   OH227984   4.924   3.488  17.082  0.1598  1.0015  0.5281
 2190TIP3    H127985   4.986   3.417  17.061  2.3395  3.1546 -0.5706
 2190TIP3    H227986   4.846   3.467  17.031  0.9072 -0.4145 -0.0744
 2191TIP3   OH227987   2.194   0.161  10.427 -0.0994 -0.0472 -0.2044
 2191TIP3    H127988   2.120   0.109  10.461 -0.5990  0.4239 -0.5635
 2191TIP3    H227989   2.239   0.102  10.367  0.7266 -0.8573  1.1856
 2192TIP3   OH227990   2.628   6.249   5.496 -0.0678 -0.1479 -0.0712
 2192TIP3    H127991   2.601   6.157   5.493 -0.7793 -0.0800  2.6471
 2192TIP3    H227992   2.721   6.248   5.475 -0.4006 -1.3076 -1.5382
 2193TIP3   OH227993   3.262   6.548   4.784  0.0031 -0.8301 -0.3758
 2193TIP3    H127994   3.216   6.601   4.849  0.6723 -2.4146  1.4067
 2193TIP3    H227995   3.200   6.540   4.712 -1.3450 -0.4035  0.7228
 2194TIP3   OH227996   0.737   4.154   0.865  0.5283 -0.0279  0.5861
 2194TIP3    H127997   0.731   4.060   0.846 -0.2812  0.1430 -0.0459
 2194TIP3    H227998   0.648   4.187   0.849  1.2628  1.1904 -1.0304
 2195TIP3   OH227999   3.199   2.206   5.867  0.0516  0.0141  0.3547
 2195TIP3    H128000   3.263   2.157   5.814 -1.8117 -1.0086 -1.0147
 2195TIP3    H228001   3.192   2.291   5.823 -1.1686 -0.6783 -0.8228
 2196TIP3   OH228002   3.402   0.510  14.068 -0.8172 -1.0286  0.0286
 2196TIP3    H128003   3.461   0.506  14.143 -0.2519 -1.2617 -0.4175
 2196TIP3    H228004   3.317   0.535  14.104 -0.6454 -1.5342  0.7939
 2197TIP3   OH228005   4.734   6.370  10.951  0.0665 -0.2946  0.1556
 2197TIP3    H128006   4.666   6.405  10.894 -0.3023 -0.1210  0.6948
 2197TIP3    H228007   4.792   6.322  10.893 -0.4986 -0.4124 -0.3169
 2198TIP3   OH228008   3.718   5.582   2.794  0.3360 -0.1461  0.1314
 2198TIP3    H128009   3.793   5.530   2.821  0.1133 -1.0601 -0.9762
 2198TIP3    H228010   3.734   5.601   2.701 -0.5825  0.0283  0.0036
 2199TIP3   OH228011   3.096   6.012   1.380 -0.1551  0.1916 -0.3189
 2199TIP3    H128012   3.126   5.992   1.291 -2.5291 -2.6037 -0.5632
 2199TIP3    H228013   3.089   5.927   1.423 -1.8784  1.2635  1.6203
 2200TIP3   OH228014   3.676   5.198   2.940  0.6501  0.6822 -0.2996
 2200TIP3    H128015   3.734   5.123   2.948 -0.9628 -0.5772 -0.1600
 2200TIP3    H228016   3.643   5.213   3.029 -0.6680  0.2073 -0.6943
 2201TIP3   OH228017   0.665   0.747   1.260  0.0957  0.0124 -0.0214
 2201TIP3    H128018   0.592   0.717   1.314  0.7132  1.0743  1.4564
 2201TIP3    H228019   0.629   0.821   1.211  0.0072  0.1440  0.2411
 2202TIP3   OH228020   1.167   1.066   4.057 -0.4117  0.1656  0.4159
 2202TIP3    H128021   1.142   1.091   4.146  2.1234  0.4511  1.0963
 2202TIP3    H228022   1.197   0.976   4.066 -0.6909  0.0057 -0.2775
 2203TIP3   OH228023   4.999   1.877  11.350 -0.0327 -0.2555 -0.2806
 2203TIP3    H128024   5.077   1.823  11.337  1.0766  1.4303 -0.9324
 2203TIP3    H228025   4.976   1.906  11.261  0.3405  1.5778  0.2010
 2204TIP3   OH228026   0.819   5.446  16.020 -0.0558  0.0101 -0.1283
 2204TIP3    H128027   0.880   5.402  16.079 -0.2548 -0.2482 -0.1190
 2204TIP3    H228028   0.735   5.405  16.038  0.0696 -0.8003 -1.3382
 2205TIP3   OH228029   3.618   4.058   3.778 -0.1572  0.0980  0.4019
 2205TIP3    H128030   3.615   4.042   3.683 -1.7946 -1.4235  0.6888
 2205TIP3    H228031   3.588   4.149   3.788 -0.1227  0.2170 -0.5254
 2206TIP3   OH228032   2.457   5.437   5.306 -0.1976  0.3722  0.0359
 2206TIP3    H128033   2.494   5.359   5.264  0.5979  0.6136  0.2834
 2206TIP3    H228034   2.395   5.471   5.241 -2.4296 -1.8622  0.9369
 2207TIP3   OH228035   4.864   5.560  13.837 -0.0731 -0.5724 -0.0335
 2207TIP3    H128036   4.925   5.619  13.882 -1.3748  1.2619 -0.5675
 2207TIP3    H228037   4.876   5.475  13.878  2.7013 -0.2062 -0.0120
 2208TIP3   OH228038   3.541   1.112  14.544 -0.1829 -0.3202 -0.4466
 2208TIP3    H128039   3.609   1.118  14.477  0.3603 -0.4514  0.0938
 2208TIP3    H228040   3.564   1.180  14.608 -0.3067 -0.6586 -0.0352
 2209TIP3   OH228041   5.053   2.421   6.419 -0.3717 -0.2745 -0.4100
 2209TIP3    H128042   5.109   2.497   6.437  1.5451 -1.3290 -1.7135
 2209TIP3    H228043   4.969   2.458   6.393  0.3240  1.3839 -0.3393
 2210TIP3   OH228044   1.790   2.515  11.296  0.3964  0.7834 -0.0041
 2210TIP3    H128045   1.836   2.542  11.375  0.3154  1.2934 -0.1291
 2210TIP3    H228046   1.727   2.585  11.280  0.0270  0.4043 -0.2037
 2211TIP3   OH228047   6.459   5.421   0.149 -0.3927  0.1525  0.2059
 2211TIP3    H128048   6.496   5.509   0.142 -0.0193 -0.1608 -1.9190
 2211TIP3    H228049   6.459   5.403   0.243  0.7950  1.8717  0.5609
 2212TIP3   OH228050   4.047   2.933  15.681 -0.2750 -0.2039 -0.4463
 2212TIP3    H128051   4.031   3.004  15.619  0.8822  1.0466  0.6413
 2212TIP3    H228052   3.960   2.904  15.707 -0.7981  1.9362  0.3130
 2213TIP3   OH228053   2.545   1.891   2.310  0.7422  0.6423  0.0001
 2213TIP3    H128054   2.541   1.797   2.327  2.1916  0.3626 -1.0849
 2213TIP3    H228055   2.601   1.926   2.379  1.2567  0.5187 -0.3587
 2214TIP3   OH228056   5.521   3.141  10.761 -0.1357  0.5434 -0.3240
 2214TIP3    H128057   5.456   3.195  10.805 -1.4443  0.4655 -2.1347
 2214TIP3    H228058   5.509   3.054  10.799  1.4361  1.2917  2.0093
 2215TIP3   OH228059   3.537   3.375   1.487 -0.2978  0.3717 -0.0534
 2215TIP3    H128060   3.484   3.315   1.540 -2.3080  0.6740 -1.6776
 2215TIP3    H228061   3.583   3.319   1.425 -0.7617  0.3619 -0.3825
 2216TIP3   OH228062   2.388   5.747  16.369 -0.1370 -0.1558 -0.1366
 2216TIP3    H128063   2.380   5.759  16.464  2.0562 -0.1907  0.0840
 2216TIP3    H228064   2.319   5.685  16.347 -0.7301 -0.0814  1.4324
 2217TIP3   OH228065   0.565   3.337   0.568 -0.1545  0.4857  0.1473
 2217TIP3    H128066   0.472   3.357   0.561 -0.3220  0.4837  2.0138
 2217TIP3    H228067   0.568   3.243   0.585  0.0721  0.7652  1.7760
 2218TIP3   OH228068   6.291   6.749  12.545 -0.0118 -0.4263 -0.3789
 2218TIP3    H128069   6.302   6.828  12.597  2.3428 -0.2102 -1.1418
 2218TIP3    H228070   6.250   6.686  12.605 -3.3986  1.7964 -0.2315
 2219TIP3   OH228071   4.939   3.415   4.535  0.3019  0.3464  0.7627
 2219TIP3    H128072   4.916   3.334   4.491  0.7043  0.2349  0.7607
 2219TIP3    H228073   5.024   3.398   4.575  1.0442  1.2373 -0.4263
 2220TIP3   OH228074   4.242   0.512   1.335  0.3327 -0.6550  0.1281
 2220TIP3    H128075   4.161   0.539   1.291  0.8759  2.3276  0.8304
 2220TIP3    H228076   4.213   0.483   1.422  0.0153  0.8385  0.5459
 2221TIP3   OH228077   3.320   1.956  13.048 -0.0211  0.3384 -0.3658
 2221TIP3    H128078   3.403   1.925  13.014  0.2771 -0.9166  1.4337
 2221TIP3    H228079   3.274   1.992  12.972  1.2679 -0.9343 -1.7604
 2222TIP3   OH228080   5.399   1.823  10.720  0.1559 -0.8746  0.6651
 2222TIP3    H128081   5.356   1.801  10.803 -0.1565  0.1702  0.7751
 2222TIP3    H228082   5.454   1.746  10.702 -2.7783 -2.8404 -0.2024
 2223TIP3   OH228083   2.194   0.351   6.085 -0.0803 -0.2313 -0.5837
 2223TIP3    H128084   2.200   0.266   6.128 -0.3575  0.4619  0.8849
 2223TIP3    H228085   2.116   0.392   6.123  0.2653  0.8254 -0.9741
 2224TIP3   OH228086   3.856   5.023  13.879 -0.3140 -0.5093 -0.2497
 2224TIP3    H128087   3.781   4.965  13.864 -0.2387 -0.3229 -1.3879
 2224TIP3    H228088   3.869   5.020  13.974 -0.6777 -1.8999 -0.2197
 2225TIP3   OH228089   3.464   0.821   5.542  0.5569  0.3404 -0.3511
 2225TIP3    H128090   3.407   0.850   5.470  0.8403  1.5202 -0.1034
 2225TIP3    H228091   3.524   0.759   5.501  0.2296  0.4260 -0.9744
 2226TIP3   OH228092   0.973   5.929   5.575  0.4662  0.1963  0.1759
 2226TIP3    H128093   1.027   6.007   5.573  1.3262 -0.3176  2.1345
 2226TIP3    H228094   0.904   5.949   5.639  0.6529 -0.6129  0.6368
 2227TIP3   OH228095   6.139   5.377   5.950  0.4252  0.0307  0.0020
 2227TIP3    H128096   6.122   5.351   5.859  1.7381  1.0527 -0.5474
 2227TIP3    H228097   6.147   5.472   5.947 -2.3967  0.3805  1.6735
 2228TIP3   OH228098   5.633   6.500  12.585 -0.1194  0.1169 -0.4780
 2228TIP3    H128099   5.602   6.589  12.572  1.0626  0.9539  2.0327
 2228TIP3    H228100   5.571   6.461  12.646  0.4260 -0.1247 -0.0631
 2229TIP3   OH228101   4.297   2.170   1.335 -0.2658  0.5206 -0.0228
 2229TIP3    H128102   4.322   2.098   1.278 -1.6147  0.7681 -0.9420
 2229TIP3    H228103   4.333   2.248   1.293  0.9895  0.4364  0.8493
 2230TIP3   OH228104   6.118   6.459   1.156 -0.1810 -0.0810  0.3108
 2230TIP3    H128105   6.107   6.368   1.128  1.3882  0.2948 -1.5956
 2230TIP3    H228106   6.080   6.461   1.244 -0.6089 -2.4748  0.2252
 2231TIP3   OH228107   2.228   3.085   4.053 -0.7633 -0.1504 -0.0032
 2231TIP3    H128108   2.310   3.133   4.037  0.5654 -2.8774 -1.8990
 2231TIP3    H228109   2.174   3.105   3.977 -1.7207  1.3031  1.0411
 2232TIP3   OH228110   1.491   3.105   2.865  0.5208  0.0728 -0.1664
 2232TIP3    H128111   1.494   3.016   2.830  0.6191 -0.4231  1.0745
 2232TIP3    H228112   1.561   3.152   2.819 -0.3179 -0.1474 -1.7029
 2233TIP3   OH228113   3.732   3.968   0.255  0.0884 -0.2821 -0.1235
 2233TIP3    H128114   3.736   3.880   0.292  0.6279 -0.0858  0.2837
 2233TIP3    H228115   3.712   4.025   0.329  0.1716 -0.0083 -0.3093
 2234TIP3   OH228116   1.623   6.242  16.671 -0.1405 -0.2242  0.4029
 2234TIP3    H128117   1.579   6.313  16.717  1.2663  0.0752  1.2999
 2234TIP3    H228118   1.593   6.250  16.580 -1.3466  0.4295  0.8552
 2235TIP3   OH228119   4.201   2.168  15.823  0.5208  0.1263  0.0743
 2235TIP3    H128120   4.256   2.110  15.770 -0.0400 -0.4748  0.1496
 2235TIP3    H228121   4.225   2.148  15.913  0.3452  0.0271  0.0992
 2236TIP3   OH228122   1.633   5.365  14.087  0.0841  0.0627  0.7567
 2236TIP3    H128123   1.712   5.373  14.033 -0.6500 -1.4120 -0.6124
 2236TIP3    H228124   1.563   5.401  14.032 -0.6473 -1.2950  0.7774
 2237TIP3   OH228125   5.644   0.339  10.620  0.3739  0.1599 -0.0166
 2237TIP3    H128126   5.551   0.324  10.639  0.3677 -0.7436 -0.7725
 2237TIP3    H228127   5.649   0.341  10.524  1.2730 -0.5965  0.0164
 2238TIP3   OH228128   1.041   3.371  12.551  0.2671 -0.3902 -0.6277
 2238TIP3    H128129   0.981   3.350  12.480 -0.0640 -1.4936 -0.0385
 2238TIP3    H228130   1.003   3.329  12.628  1.4008 -0.4655 -0.0964
 2239TIP3   OH228131   0.414   4.969   2.267  0.4031 -0.0210  0.4028
 2239TIP3    H128132   0.475   4.991   2.338  1.0137 -0.8100  0.1198
 2239TIP3    H228133   0.342   5.032   2.278  0.6529  0.0871  1.5110
 2240TIP3   OH228134   5.333   3.224   3.548 -0.5469 -0.3306  0.0384
 2240TIP3    H128135   5.382   3.141   3.548  0.2876  0.1470 -0.6755
 2240TIP3    H228136   5.352   3.263   3.632  0.5771 -0.0009 -0.3570
 2241TIP3   OH228137   0.281   0.995  12.791  0.3348 -0.0578  0.7316
 2241TIP3    H128138   0.302   0.905  12.817  1.8083 -0.4320 -1.5558
 2241TIP3    H228139   0.249   1.037  12.871  2.0423 -1.8881  2.4246
 2242TIP3   OH228140   1.017   5.832   2.343 -0.4738  0.3127 -0.0520
 2242TIP3    H128141   0.932   5.822   2.387 -0.5016  0.7061 -0.0186
 2242TIP3    H228142   1.049   5.917   2.373  0.1940 -0.0898  0.3906
 2243TIP3   OH228143   4.666   5.271  16.873 -0.1313 -0.9776 -0.0698
 2243TIP3    H128144   4.756   5.270  16.904  0.3609 -1.6312 -1.4635
 2243TIP3    H228145   4.632   5.184  16.895 -0.2781 -0.8833  0.0757
 2244TIP3   OH228146   5.841   3.112   5.100  0.2035 -0.4282 -0.3410
 2244TIP3    H128147   5.752   3.147   5.094  0.1047 -0.8164 -1.2271
 2244TIP3    H228148   5.896   3.188   5.119 -0.3462 -0.2285  0.5080
 2245TIP3   OH228149   5.162   6.036  17.160  0.1509 -0.3293 -0.4523
 2245TIP3    H128150   5.127   6.003  17.076  1.1922  0.3656 -1.1681
 2245TIP3    H228151   5.138   6.128  17.160 -2.8529 -1.0279  1.5948
 2246TIP3   OH228152   5.190   2.258   4.164 -0.0223  0.4638  0.0207
 2246TIP3    H128153   5.097   2.243   4.147 -0.3191  0.4217  1.6603
 2246TIP3    H228154   5.232   2.241   4.079 -1.4778  0.3227 -0.6926
 2247TIP3   OH228155   5.886   3.789   6.248 -0.5881  0.5058 -0.6746
 2247TIP3    H128156   5.964   3.742   6.277 -0.9617 -0.5574 -1.3728
 2247TIP3    H228157   5.814   3.728   6.265 -1.7968  2.9211  3.6229
 2248TIP3   OH228158   3.329   1.454  14.027  0.6998 -0.1402 -0.4526
 2248TIP3    H128159   3.345   1.533  14.079  0.8540 -0.0455 -0.6422
 2248TIP3    H228160   3.349   1.481  13.937  1.5014 -0.6115 -0.4147
 2249TIP3   OH228161   3.470   2.991   2.250  0.0254  0.4113  0.4914
 2249TIP3    H128162   3.509   3.026   2.329 -1.0190  2.1950  0.2272
 2249TIP3    H228163   3.376   2.987   2.268  0.0553 -1.7594  0.3271
 2250TIP3   OH228164   2.882   1.340   2.591 -0.6586  0.6342  0.3773
 2250TIP3    H128165   2.913   1.363   2.503 -1.8493  2.2007  0.3487
 2250TIP3    H228166   2.815   1.273   2.575 -0.8605  0.9014  0.1012
 2251TIP3   OH228167   3.575   5.313  16.574  0.0893  0.5003  0.6150
 2251TIP3    H128168   3.664   5.306  16.607  0.1514  1.3087  0.6250
 2251TIP3    H228169   3.547   5.401  16.598  0.5410  1.5401 -2.5258
 2252TIP3   OH228170   3.264   0.208   2.844  0.4982  0.0922 -0.0337
 2252TIP3    H128171   3.188   0.226   2.789 -0.1156 -0.4634  0.6152
 2252TIP3    H228172   3.334   0.189   2.783 -0.3648 -1.2633 -0.6195
 2253TIP3   OH228173   0.367   4.843   0.377  0.0205 -0.1458 -0.5292
 2253TIP3    H128174   0.405   4.838   0.465 -2.8294 -2.7070  0.6717
 2253TIP3    H228175   0.441   4.828   0.318  1.8111  0.5855  1.4699
 2254TIP3   OH228176   3.620   2.594   5.155 -0.2704  0.2436 -0.7613
 2254TIP3    H128177   3.606   2.558   5.067  1.0187  0.9745 -1.2794
 2254TIP3    H228178   3.600   2.687   5.146  0.8200  0.5072 -0.5191
 2255TIP3   OH228179   1.404   2.736   6.622 -1.2914  0.4664  0.3382
 2255TIP3    H128180   1.411   2.751   6.527  1.8943  1.6834  0.7090
 2255TIP3    H228181   1.352   2.656   6.629  0.4949 -1.0548 -2.5599
 2256TIP3   OH228182   0.556   3.036   3.184  0.1720 -0.3601  0.0339
 2256TIP3    H128183   0.495   3.106   3.161  1.6872  1.3124  0.9232
 2256TIP3    H228184   0.619   3.034   3.112  0.7927 -0.0077  0.5589
 2257TIP3   OH228185   1.162   1.897   0.393 -0.0476 -0.0952  0.3787
 2257TIP3    H128186   1.236   1.841   0.372 -0.8138 -0.9563 -0.0608
 2257TIP3    H228187   1.134   1.868   0.479 -1.7993 -1.8743 -0.7639
 2258TIP3   OH228188   3.707   5.457   5.419  0.0961  0.2109 -0.3008
 2258TIP3    H128189   3.660   5.374   5.412 -0.4691  0.5259 -0.3472
 2258TIP3    H228190   3.730   5.465   5.511 -1.4377  0.8431  0.0454
 2259TIP3   OH228191   3.250   3.351   2.819 -0.6122  0.2196 -0.6426
 2259TIP3    H128192   3.293   3.267   2.807 -1.7411 -0.1662 -2.0019
 2259TIP3    H228193   3.219   3.376   2.732 -0.4721  1.9481 -0.2264
 2260TIP3   OH228194   3.621   0.476  15.377  0.2527  0.2187 -0.3300
 2260TIP3    H128195   3.616   0.441  15.466  0.2400 -0.4348 -0.5879
 2260TIP3    H228196   3.703   0.442  15.342 -1.3854 -2.3690 -1.7852
 2261TIP3   OH228197   4.874   1.730  17.232  0.3212  0.9338 -0.1658
 2261TIP3    H128198   4.911   1.799  17.287 -0.1714 -0.3795  1.8872
 2261TIP3    H228199   4.807   1.689  17.287  0.5396 -1.1093 -1.3607
 2262TIP3   OH228200   4.252   6.133  12.100 -0.0307 -0.1361  0.2370
 2262TIP3    H128201   4.255   6.039  12.120  1.8327 -0.6220 -2.0415
 2262TIP3    H228202   4.338   6.166  12.129  0.7255  0.1188 -2.1974
 2263TIP3   OH228203   0.637   0.329   1.458 -0.5120  0.1327 -0.4853
 2263TIP3    H128204   0.682   0.308   1.377 -1.2528 -0.2333 -0.8031
 2263TIP3    H228205   0.657   0.422   1.473  0.7850 -0.1666 -0.3318
 2264TIP3   OH228206   3.035   4.897   4.792  0.8681  0.2597  0.2816
 2264TIP3    H128207   2.987   4.829   4.745  0.5404  0.2341  0.6461
 2264TIP3    H228208   3.063   4.854   4.873 -0.1763  0.8401  0.9558
 2265TIP3   OH228209   5.466   4.187   0.781  0.1327  0.3844 -0.7713
 2265TIP3    H128210   5.374   4.201   0.804  0.7513 -0.1584  2.2507
 2265TIP3    H228211   5.488   4.260   0.723 -2.0529  0.8072 -1.0902
 2266TIP3   OH228212   5.732   6.594  16.414 -0.2520  0.4406 -0.1738
 2266TIP3    H128213   5.663   6.528  16.406  0.0625  0.2454 -1.4181
 2266TIP3    H228214   5.804   6.549  16.457  0.6634 -0.6076 -2.6976
 2267TIP3   OH228215   3.109   0.058  12.894  0.5197 -0.5922 -0.1135
 2267TIP3    H128216   3.058  -0.003  12.841  1.5479 -1.1147 -0.5245
 2267TIP3    H228217   3.045   0.120  12.928 -0.3440 -1.0665 -0.8502
 2268TIP3   OH228218   2.924   6.231   5.365 -0.9513  0.2003  0.2909
 2268TIP3    H128219   2.879   6.162   5.412 -0.3040  0.2571  0.9958
 2268TIP3    H228220   2.994   6.260   5.424 -1.8672  2.1686  0.4451
 2269TIP3   OH228221   2.415   3.464   0.191 -0.7735 -0.0024  0.7539
 2269TIP3    H128222   2.432   3.542   0.244  0.7790  0.2648 -0.1019
 2269TIP3    H228223   2.500   3.420   0.186 -1.4995 -1.4401  0.7280
 2270TIP3   OH228224   2.785   2.700   2.461  0.3288  0.3397 -0.1837
 2270TIP3    H128225   2.766   2.617   2.506 -0.2410 -0.1470 -1.3116
 2270TIP3    H228226   2.773   2.767   2.529  0.6853 -0.4835  0.7099
 2271TIP3   OH228227   2.528   5.434  14.057  0.6474  0.3988 -0.4896
 2271TIP3    H128228   2.621   5.431  14.036  0.1777 -0.7269 -2.5504
 2271TIP3    H228229   2.517   5.370  14.126  1.2164 -0.3330 -1.0696
 2272TIP3   OH228230   1.602   2.525  14.727 -0.3891 -0.3278 -0.3551
 2272TIP3    H128231   1.551   2.605  14.714  1.8323  1.0758 -0.8096
 2272TIP3    H228232   1.631   2.501  14.638  1.4471  0.1091  0.0967
 2273TIP3   OH228233   5.202   0.663   3.396 -0.2021  0.4823  0.1624
 2273TIP3    H128234   5.198   0.698   3.307  0.0937  1.2930  0.4649
 2273TIP3    H228235   5.292   0.632   3.405 -0.3567 -0.0089  0.0269
 2274TIP3   OH228236   4.551   1.680  12.904 -0.5864  0.0449  0.2067
 2274TIP3    H128237   4.556   1.762  12.954 -0.6388  0.6040 -0.7080
 2274TIP3    H228238   4.639   1.670  12.867 -1.0466  0.5332 -1.0272
 2275TIP3   OH228239   2.775   2.239  14.144 -0.4290 -0.1502  0.3279
 2275TIP3    H128240   2.709   2.297  14.106 -1.2224 -0.1965  1.6016
 2275TIP3    H228241   2.727   2.184  14.206  0.9259  0.4642  1.9930
 2276TIP3   OH228242   5.589   2.978   5.199  0.3943  0.4881  0.0263
 2276TIP3    H128243   5.581   3.073   5.186 -1.2163  0.5342  1.1587
 2276TIP3    H228244   5.517   2.956   5.258 -1.5569 -2.0588 -3.1543
 2277TIP3   OH228245   2.965   1.516   5.180 -0.1969  0.1985  0.2228
 2277TIP3    H128246   2.948   1.579   5.251  1.7845  1.3369 -0.2697
 2277TIP3    H228247   3.013   1.445   5.222 -1.0237 -0.2109  0.4707
 2278TIP3   OH228248   0.326   5.030  16.626  0.1158 -0.1713 -0.1354
 2278TIP3    H128249   0.329   5.118  16.589 -0.0668 -0.2078 -0.2360
 2278TIP3    H228250   0.408   5.022  16.676  1.1724 -0.7027 -1.8955
 2279TIP3   OH228251   4.301   0.568  16.565  1.0683 -0.1284 -0.0663
 2279TIP3    H128252   4.282   0.656  16.597  3.0334  0.0487  0.7110
 2279TIP3    H228253   4.279   0.571  16.472 -1.3764  0.3781  0.4864
 2280TIP3   OH228254   5.391   6.473   5.509  0.3902  0.0266  0.2515
 2280TIP3    H128255   5.393   6.510   5.597 -0.0675  0.8751 -0.0924
 2280TIP3    H228256   5.418   6.382   5.521 -2.1885 -0.5987  1.6158
 2281TIP3   OH228257   6.089   6.074   5.169 -0.4050 -0.2996  0.6290
 2281TIP3    H128258   6.109   5.993   5.121 -0.3914 -0.9088  1.6521
 2281TIP3    H228259   6.058   6.134   5.101  1.3498 -0.5460 -0.4303
 2282TIP3   OH228260   0.627   6.514  17.015 -0.0081  0.4312 -0.3145
 2282TIP3    H128261   0.671   6.583  17.064  0.5462 -0.3726  0.3279
 2282TIP3    H228262   0.545   6.499  17.062  0.2855  0.0255  0.0709
 2283TIP3   OH228263   3.443   0.272  11.612 -0.4716 -0.7355 -0.4606
 2283TIP3    H128264   3.538   0.265  11.618 -0.2546  2.2770  0.3508
 2283TIP3    H228265   3.427   0.318  11.530 -1.2748 -1.8486 -0.9399
 2284TIP3   OH228266   6.786   2.501   1.942 -0.6173  0.2380  0.1941
 2284TIP3    H128267   6.729   2.442   1.990 -0.4556 -0.3304 -0.3042
 2284TIP3    H228268   6.730   2.574   1.916 -0.9877 -0.0604  0.1612
 2285TIP3   OH228269   3.687   4.534  14.046  0.1376 -0.3781  0.2665
 2285TIP3    H128270   3.618   4.600  14.050  0.4165 -0.1198  1.0357
 2285TIP3    H228271   3.646   4.458  14.004 -0.0960  0.3934 -0.9093
 2286TIP3   OH228272   5.981   4.566  15.044  0.0957 -0.2900 -0.3167
 2286TIP3    H128273   6.033   4.488  15.062  1.5176  0.5657 -0.6380
 2286TIP3    H228274   5.901   4.532  15.002  0.4599 -1.5983  0.0138
 2287TIP3   OH228275   4.379   3.946   5.206 -0.1935  0.1120 -0.6433
 2287TIP3    H128276   4.292   3.907   5.192 -1.3511  1.1037  3.0942
 2287TIP3    H228277   4.364   4.040   5.199  1.2781  0.1876 -3.1381
 2288TIP3   OH228278   2.517   1.340   3.602  0.3947  0.4281  0.2477
 2288TIP3    H128279   2.524   1.274   3.533  0.6707  1.6738 -0.9277
 2288TIP3    H228280   2.592   1.323   3.659 -0.0536 -0.8604  0.4850
 2289TIP3   OH228281   4.890   2.693   3.375  0.3103 -0.1330  0.0521
 2289TIP3    H128282   4.882   2.660   3.465 -0.8616  0.2584  0.0909
 2289TIP3    H228283   4.953   2.765   3.382 -0.5600  0.5719  0.7401
 2290TIP3   OH228284   5.882   4.324  12.079 -0.3349 -0.1494 -0.3545
 2290TIP3    H128285   5.964   4.373  12.070 -0.7023  0.1803 -1.9985
 2290TIP3    H228286   5.825   4.359  12.010 -0.9829 -2.1549 -0.8577
 2291TIP3   OH228287   1.763   0.733   0.668  0.6798 -0.3932 -0.0143
 2291TIP3    H128288   1.712   0.756   0.745  0.6601 -1.2414  0.2363
 2291TIP3    H228289   1.723   0.653   0.635  1.5990 -0.8593 -0.0355
 2292TIP3   OH228290   4.718   3.171  10.989  0.0651  0.0156 -0.2315
 2292TIP3    H128291   4.789   3.163  10.925  1.1515  0.4240  0.9038
 2292TIP3    H228292   4.678   3.084  10.990  0.7592 -0.3189 -0.6544
 2293TIP3   OH228293   0.281   0.693  13.560 -0.2046 -0.0710  0.4124
 2293TIP3    H128294   0.368   0.699  13.521  0.5256 -2.0467  1.6833
 2293TIP3    H228295   0.265   0.780  13.595  1.3971  0.2175  0.4588
 2294TIP3   OH228296   3.541   4.181   6.387  0.3296  0.1116  0.6702
 2294TIP3    H128297   3.465   4.224   6.425 -0.6959 -1.9634  1.0779
 2294TIP3    H228298   3.585   4.140   6.461  0.9025 -0.1033  0.2182
 2295TIP3   OH228299   0.008   1.660  15.055 -0.2904 -1.0242  0.5831
 2295TIP3    H128300  -0.011   1.711  15.134  2.9234  0.5245  0.4311
 2295TIP3    H228301   0.055   1.583  15.088 -0.3268 -1.1585  0.3187
 2296TIP3   OH228302   5.891   3.181  16.548  0.1172 -0.6621 -0.1721
 2296TIP3    H128303   5.837   3.216  16.476  1.2697 -1.0892 -1.2528
 2296TIP3    H228304   5.938   3.107  16.510  1.3672 -0.3875  0.8027
 2297TIP3   OH228305   4.281   1.194   5.329 -0.0812  0.1256 -0.7596
 2297TIP3    H128306   4.371   1.166   5.343 -0.2685  0.3983  1.0092
 2297TIP3    H228307   4.259   1.160   5.242  1.5594 -0.3463 -1.0008
 2298TIP3   OH228308   6.605   2.093   2.502  0.0732 -0.2833  0.0015
 2298TIP3    H128309   6.683   2.148   2.495 -0.1892  0.1239  0.2672
 2298TIP3    H228310   6.633   2.018   2.554  0.5678 -0.6603 -0.7930
 2299TIP3   OH228311   0.278   6.303  16.402  0.3512 -0.1867  0.2812
 2299TIP3    H128312   0.216   6.372  16.426 -2.0428 -2.6454  1.4813
 2299TIP3    H228313   0.346   6.307  16.470 -0.3950  0.2210  1.0137
 2300TIP3   OH228314   5.594   4.436  10.842  0.1288 -0.0098 -0.2009
 2300TIP3    H128315   5.639   4.514  10.812 -0.6846 -0.1237 -1.7548
 2300TIP3    H228316   5.559   4.459  10.928 -2.0198  2.1061 -1.5835
 2301TIP3   OH228317   2.149   2.875   1.339 -0.3578 -0.5316  0.2568
 2301TIP3    H128318   2.219   2.907   1.283  0.1092 -0.3092  0.9612
 2301TIP3    H228319   2.177   2.897   1.428 -0.8593 -1.3218  0.6176
 2302TIP3   OH228320   4.611   3.917   2.270  0.0480 -0.4820 -0.4751
 2302TIP3    H128321   4.578   3.982   2.207  0.3205 -0.3343 -0.4662
 2302TIP3    H228322   4.550   3.844   2.264  0.5217 -0.8001 -1.4820
 2303TIP3   OH228323   1.721   3.373   4.002 -0.0005 -0.3267 -0.1498
 2303TIP3    H128324   1.643   3.323   4.026 -2.0583  2.7112 -0.2568
 2303TIP3    H228325   1.771   3.379   4.084 -1.1763 -0.0187  0.5508
 2304TIP3   OH228326   3.817   4.947   5.578 -1.4663  0.6058 -0.6366
 2304TIP3    H128327   3.855   5.005   5.644 -1.8437  1.2618 -0.9952
 2304TIP3    H228328   3.773   4.879   5.629 -0.3231  0.1733 -0.2201
 2305TIP3   OH228329   1.201   6.403   0.337  0.0607  0.0864  0.4227
 2305TIP3    H128330   1.239   6.321   0.307 -1.6447 -0.7809  0.6164
 2305TIP3    H228331   1.258   6.471   0.299  1.3079 -1.1529  0.0450
 2306TIP3   OH228332   4.942   4.978  11.829 -0.1046  0.1666 -1.0835
 2306TIP3    H128333   4.865   5.032  11.811  0.5358  0.6736 -2.3458
 2306TIP3    H228334   4.910   4.888  11.826 -1.1342  0.4444  0.8029
 2307TIP3   OH228335   6.276   0.910  10.911  0.1643  0.1039 -0.9089
 2307TIP3    H128336   6.215   0.856  10.962  0.1695  0.9160 -0.0277
 2307TIP3    H228337   6.260   0.999  10.941  0.7456  0.4980 -1.7523
 2308TIP3   OH228338   5.998   0.076   0.715 -0.0334 -0.5533  0.1068
 2308TIP3    H128339   6.093   0.076   0.707  0.0679 -0.0089  1.2818
 2308TIP3    H228340   5.982   0.071   0.809 -1.1585  1.5179  0.0336
 2309TIP3   OH228341   6.020   6.269   4.982 -0.1673  0.5558 -0.5252
 2309TIP3    H128342   5.930   6.273   4.950 -0.2355 -1.3080 -0.6464
 2309TIP3    H228343   6.074   6.273   4.903 -0.1465  1.2805 -0.4796
 2310TIP3   OH228344   1.000   0.575  12.379  0.2513  0.2381  0.2568
 2310TIP3    H128345   0.993   0.543  12.289  0.3676 -1.3467  0.8098
 2310TIP3    H228346   0.947   0.655  12.379 -0.0934  0.0279 -1.1082
 2311TIP3   OH228347   5.933   4.580   3.005 -0.3673  0.0881 -0.4041
 2311TIP3    H128348   5.873   4.527   2.953  1.4597 -1.8801 -0.5687
 2311TIP3    H228349   5.909   4.562   3.096  1.3251 -2.3996 -0.4048
 2312TIP3   OH228350   4.184   3.130   3.680 -0.5715 -0.8290  0.4948
 2312TIP3    H128351   4.088   3.136   3.686 -0.5894 -0.2515 -0.3609
 2312TIP3    H228352   4.200   3.073   3.605 -0.2209  0.9322 -0.7814
 2313TIP3   OH228353   1.437   2.850   2.775 -0.2192 -0.1111  0.1556
 2313TIP3    H128354   1.532   2.841   2.778 -0.2773 -0.9178 -0.3391
 2313TIP3    H228355   1.409   2.834   2.866  0.0859 -0.2305  0.2306
 2314TIP3   OH228356   1.115   5.545   2.982 -0.6158 -0.3513 -0.6103
 2314TIP3    H128357   1.050   5.557   3.051 -0.0590 -0.2631 -0.0979
 2314TIP3    H228358   1.147   5.633   2.963  0.3073 -0.5334  0.0714
 2315TIP3   OH228359   1.138   5.190  16.464 -0.2323  0.1587  0.4141
 2315TIP3    H128360   1.206   5.180  16.531  0.4600 -2.7548 -0.6351
 2315TIP3    H228361   1.090   5.107  16.466 -0.3397  0.0987 -2.5217
 2316TIP3   OH228362   6.433   4.991   1.557  0.5450 -0.1954  0.5056
 2316TIP3    H128363   6.462   5.008   1.467  0.7209  0.7718  0.7442
 2316TIP3    H228364   6.388   5.071   1.583 -0.2731 -0.8067  0.9717
 2317TIP3   OH228365   6.447   4.749   0.674 -0.2454 -0.1369 -0.3370
 2317TIP3    H128366   6.379   4.715   0.615 -1.1797 -0.8365  1.0833
 2317TIP3    H228367   6.423   4.713   0.760  0.6545  1.4434  0.6022
 2318TIP3   OH228368   4.183   0.091   4.230  0.2127 -0.1192 -0.0623
 2318TIP3    H128369   4.126   0.055   4.298 -0.9846  2.0254  0.1184
 2318TIP3    H228370   4.269   0.097   4.272 -0.0581 -0.7231  0.5991
 2319TIP3   OH228371   5.666   0.492  14.415 -0.2936 -0.1377 -0.3817
 2319TIP3    H128372   5.606   0.428  14.453 -1.5029  0.1253 -1.7398
 2319TIP3    H228373   5.666   0.471  14.321 -0.2431  1.4381 -0.7570
 2320TIP3   OH228374   4.417   6.531   0.103  0.2448  0.3550  0.1514
 2320TIP3    H128375   4.322   6.547   0.108  0.4014  1.2715  0.2374
 2320TIP3    H228376   4.456   6.618   0.111  1.0798  0.0403 -0.4941
 2321TIP3   OH228377   6.067   2.136  11.571 -0.1705  0.2193 -0.1170
 2321TIP3    H128378   6.068   2.193  11.647 -2.4691  0.2736 -0.0940
 2321TIP3    H228379   6.112   2.057  11.599  0.3690  0.8511  0.7972
 2322TIP3   OH228380   2.865   0.032   5.708 -0.0805  0.0877 -0.1616
 2322TIP3    H128381   2.920  -0.002   5.637  0.5814 -1.0166  0.8655
 2322TIP3    H228382   2.777   0.036   5.670  0.5481  1.1464 -1.5740
 2323TIP3   OH228383   5.666   3.666  14.250  0.7991 -0.4114 -0.2735
 2323TIP3    H128384   5.661   3.739  14.312  1.3156 -1.8931  1.5425
 2323TIP3    H228385   5.593   3.680  14.190  0.7068  1.4093  0.2409
 2324TIP3   OH228386   6.179   4.668   2.953 -0.1058  0.2244  0.6001
 2324TIP3    H128387   6.114   4.598   2.956  0.8921 -0.7037  0.8890
 2324TIP3    H228388   6.129   4.748   2.970 -1.1916 -0.4601  0.6782
 2325TIP3   OH228389   4.906   1.728   5.203 -0.0744  0.5676  0.5889
 2325TIP3    H128390   4.970   1.666   5.166 -1.2656 -0.2856 -0.0600
 2325TIP3    H228391   4.954   1.770   5.275  1.5173  0.5809 -0.4408
 2326TIP3   OH228392   2.464   5.427  15.073 -0.1588  0.4150  0.3420
 2326TIP3    H128393   2.539   5.370  15.055  0.8721  1.1509  2.1703
 2326TIP3    H228394   2.394   5.367  15.099  0.0194 -0.2133 -0.5846
 2327TIP3   OH228395   6.530   2.815   5.135  0.0869  0.2945 -0.0625
 2327TIP3    H128396   6.517   2.816   5.230 -0.6094  1.2597 -0.1590
 2327TIP3    H228397   6.562   2.727   5.116  1.0433  0.3552  1.1749
 2328TIP3   OH228398   6.471   2.756   2.627 -0.1964 -0.0401  0.6847
 2328TIP3    H128399   6.454   2.766   2.720 -1.6736  1.7993  0.2578
 2328TIP3    H228400   6.512   2.670   2.618  0.3348 -0.0445  3.0638
 2329TIP3   OH228401   1.853   4.426  10.736  0.0808 -0.2760  0.0502
 2329TIP3    H128402   1.936   4.382  10.755  0.7748  1.7190  1.9071
 2329TIP3    H228403   1.839   4.413  10.642  2.2322 -1.0726 -0.1803
 2330TIP3   OH228404   3.493   2.260   3.289  0.2952  0.3339  0.4329
 2330TIP3    H128405   3.473   2.166   3.294  0.4361  0.2694 -0.1340
 2330TIP3    H228406   3.589   2.263   3.287  0.3330  0.5889  2.2459
 2331TIP3   OH228407   6.687   0.647  12.385  0.3325 -0.5254  0.2321
 2331TIP3    H128408   6.776   0.621  12.409 -0.0744 -0.2235  2.1318
 2331TIP3    H228409   6.685   0.742  12.401 -0.5687 -0.6701  1.0376
 2332TIP3   OH228410   0.855   5.507  15.751 -0.8832  0.4478  0.0405
 2332TIP3    H128411   0.851   5.492  15.845  0.0389  1.9535  0.3300
 2332TIP3    H228412   0.948   5.511  15.730 -1.0754  1.3600 -0.7144
 2333TIP3   OH228413   1.802   5.691   0.721  0.3424 -0.2614 -0.7045
 2333TIP3    H128414   1.856   5.634   0.776  1.7205  1.9151  0.2644
 2333TIP3    H228415   1.714   5.684   0.757  1.1752  0.8886  1.6235
 2334TIP3   OH228416   1.790   2.630  13.025 -0.2214  0.1270  0.3406
 2334TIP3    H128417   1.855   2.689  12.986 -0.4284  0.0802 -0.0778
 2334TIP3    H228418   1.842   2.570  13.079  0.0773  0.1301  0.0605
 2335TIP3   OH228419   4.927   4.800   4.834  0.2548  0.3601  0.1767
 2335TIP3    H128420   4.852   4.776   4.887 -1.3698  0.7551 -1.8990
 2335TIP3    H228421   5.003   4.771   4.885 -1.3164 -0.8269  1.8793
 2336TIP3   OH228422   3.004   3.815  12.488  0.0831 -0.2278 -0.2354
 2336TIP3    H128423   2.921   3.821  12.441 -0.3564  0.5548  0.6119
 2336TIP3    H228424   3.066   3.778  12.425 -0.9507 -0.9642 -0.8237
 2337TIP3   OH228425   1.447   0.600   5.424  0.0767  0.6045  0.2453
 2337TIP3    H128426   1.540   0.620   5.408  0.0596  0.6484  0.1996
 2337TIP3    H228427   1.409   0.685   5.447  0.0204  0.6095  0.1317
 2338TIP3   OH228428   5.534   6.673  12.321  0.0696  1.0786  0.9767
 2338TIP3    H128429   5.575   6.611  12.261 -1.1975  0.4907  0.7121
 2338TIP3    H228430   5.518   6.751  12.268 -2.0315  0.1764  0.2571
 2339TIP3   OH228431   2.361   5.743  14.972 -0.5680 -0.0832 -0.1283
 2339TIP3    H128432   2.412   5.692  14.910  0.3431  1.1686 -0.4250
 2339TIP3    H228433   2.411   5.738  15.054 -0.2011  0.7741 -0.3023
 2340TIP3   OH228434   2.966   5.043   5.238 -0.1481 -0.0935  0.7162
 2340TIP3    H128435   2.932   5.106   5.175  0.9992  1.0698  1.2341
 2340TIP3    H228436   2.925   4.960   5.214  0.5683  0.2393 -1.7939
 2341TIP3   OH228437   3.874   5.390  16.997  0.1988 -0.0390 -0.2175
 2341TIP3    H128438   3.937   5.451  17.036  1.0591 -1.0274 -0.0561
 2341TIP3    H228439   3.793   5.405  17.046  0.4123  0.9525 -0.1646
 2342TIP3   OH228440   0.030   1.507  16.923 -0.6238  0.1125 -0.0801
 2342TIP3    H128441   0.126   1.505  16.922 -0.5533 -0.0721  3.2895
 2342TIP3    H228442   0.005   1.488  16.832  2.5140  0.8832 -1.1682
 2343TIP3   OH228443   1.864   0.987   3.657  0.0284  0.4380 -0.9950
 2343TIP3    H128444   1.854   0.901   3.615 -0.5129  0.0548 -0.0818
 2343TIP3    H228445   1.816   1.047   3.599 -2.6987 -0.4534  0.2620
 2344TIP3   OH228446   0.262   2.842  14.228  0.1667  0.2324  0.4264
 2344TIP3    H128447   0.226   2.764  14.184  0.3789  0.2950  0.1424
 2344TIP3    H228448   0.352   2.849  14.195 -0.5592  1.9261 -1.3100
 2345TIP3   OH228449   5.203   0.258  12.853  0.3366 -0.1475  0.0288
 2345TIP3    H128450   5.108   0.270  12.841  0.3009  0.6555  1.0648
 2345TIP3    H228451   5.210   0.175  12.900  0.1334 -0.0469  0.2390
 2346TIP3   OH228452   0.376   6.608  13.671  0.0497 -0.4398 -0.1428
 2346TIP3    H128453   0.293   6.654  13.659  0.7805  0.2840 -2.6637
 2346TIP3    H228454   0.359   6.518  13.643  0.2075 -0.1934 -1.0417
 2347TIP3   OH228455   3.609   1.335   1.564  0.0292  0.1472  0.0756
 2347TIP3    H128456   3.573   1.246   1.568 -1.4718  0.6868 -0.9600
 2347TIP3    H228457   3.701   1.323   1.541 -0.4211 -1.0945 -1.1392
 2348TIP3   OH228458   6.171   5.594  12.106 -0.3503 -0.2824  0.2494
 2348TIP3    H128459   6.131   5.625  12.187  1.2587 -1.4100  1.5130
 2348TIP3    H228460   6.257   5.636  12.105 -0.3510 -0.2848 -0.8982
 2349TIP3   OH228461   2.095   0.760   0.149  0.4758 -0.3537 -0.1309
 2349TIP3    H128462   2.142   0.695   0.200  0.2298 -0.1598  0.3433
 2349TIP3    H228463   2.152   0.837   0.149  1.3748 -0.9972 -1.8071
 2350TIP3   OH228464   5.846   3.462   5.094 -0.0852 -0.0332 -0.2547
 2350TIP3    H128465   5.772   3.411   5.128  0.3290 -0.4796 -0.0093
 2350TIP3    H228466   5.806   3.539   5.054 -0.7718 -0.9255 -1.3180
 2351TIP3   OH228467   0.354   5.502   2.689  0.4249 -0.4875 -0.6943
 2351TIP3    H128468   0.442   5.540   2.685  0.7648 -1.2124 -0.1355
 2351TIP3    H228469   0.368   5.410   2.708 -0.4864 -0.4470  0.2119
 2352TIP3   OH228470   4.632   4.982  13.902  0.5883 -0.3040  0.6191
 2352TIP3    H128471   4.612   4.938  13.819 -0.6263  0.4938  0.4744
 2352TIP3    H228472   4.727   4.992  13.901  0.7970 -2.0943  0.2394
 2353TIP3   OH228473   0.913   5.670   0.652  0.1128 -0.6080  0.7423
 2353TIP3    H128474   0.878   5.689   0.739 -1.9644 -0.5658 -0.0912
 2353TIP3    H228475   0.868   5.590   0.625  0.2821 -0.2679 -0.5739
 2354TIP3   OH228476   0.278   4.906   5.208 -0.1749  0.3777 -0.8426
 2354TIP3    H128477   0.243   4.828   5.252 -0.5826  1.4586  0.8132
 2354TIP3    H228478   0.355   4.875   5.161  1.0754 -0.5849  1.7570
 2355TIP3   OH228479   2.306   0.039  15.763 -0.0763  0.8811 -0.0273
 2355TIP3    H128480   2.230   0.018  15.818  0.3851  0.5013  0.4622
 2355TIP3    H228481   2.271   0.036  15.674 -0.3716 -0.5787  0.1110
 2356TIP3   OH228482   5.906   2.866  12.834  0.3354 -0.4217  0.1192
 2356TIP3    H128483   5.924   2.903  12.748 -2.1616  0.6864  0.0290
 2356TIP3    H228484   5.964   2.914  12.893  0.2515  0.6005 -0.6021
 2357TIP3   OH228485   6.562   1.915   2.943 -0.1206 -0.5504 -0.0091
 2357TIP3    H128486   6.600   2.002   2.932  1.5608 -1.1264  1.0415
 2357TIP3    H228487   6.526   1.893   2.857  1.7936  0.0857 -1.0039
 2358TIP3   OH228488   1.562   0.173  14.710  0.1699 -0.0403 -0.5139
 2358TIP3    H128489   1.529   0.256  14.744 -0.1501  0.1992 -1.3912
 2358TIP3    H228490   1.554   0.181  14.615 -0.0600 -1.1488 -0.6007
 2359TIP3   OH228491   1.267   6.259   0.025  0.1236  0.4884  0.2816
 2359TIP3    H128492   1.182   6.254   0.070 -0.7722 -2.5929 -1.5754
 2359TIP3    H228493   1.323   6.306   0.086 -2.6259  1.6815  2.0156
 2360TIP3   OH228494   1.807   2.888   4.185 -0.0076 -0.0932 -0.8403
 2360TIP3    H128495   1.851   2.804   4.197 -0.2330  0.2514  3.2297
 2360TIP3    H228496   1.877   2.953   4.195 -0.4178  0.2691 -0.2498
 2361TIP3   OH228497   1.403   5.258   1.891 -0.5352 -0.3506 -0.1915
 2361TIP3    H128498   1.397   5.259   1.986  0.8129  1.5291 -0.1103
 2361TIP3    H228499   1.403   5.165   1.868 -0.3181 -0.8210  1.6694
 2362TIP3   OH228500   1.886   6.495  14.501 -0.5332  0.2268  0.1007
 2362TIP3    H128501   1.859   6.420  14.554  2.1384 -0.7179  0.2278
 2362TIP3    H228502   1.870   6.467  14.410  0.7743 -0.6598  0.1288
 2363TIP3   OH228503   4.722   3.365  12.328  0.2311  0.4970 -0.8690
 2363TIP3    H128504   4.701   3.320  12.410  0.2353  1.1607 -0.5084
 2363TIP3    H228505   4.815   3.347  12.314 -0.0672 -0.7092 -1.4064
 2364TIP3   OH228506   5.983   3.030   4.694  0.0347 -0.4167 -0.1936
 2364TIP3    H128507   6.010   3.055   4.782  0.5118 -2.0294  0.1458
 2364TIP3    H228508   6.039   2.954   4.673 -1.2141 -1.0712 -1.2259
 2365TIP3   OH228509   0.929   6.301  11.221 -0.3647  0.8246  0.2274
 2365TIP3    H128510   0.997   6.354  11.264 -0.3749  1.3531 -0.3936
 2365TIP3    H228511   0.848   6.351  11.234 -0.1833  1.5680 -1.3808
 2366TIP3   OH228512   3.957   6.575   3.057  0.1889  0.5669  0.0501
 2366TIP3    H128513   4.015   6.642   3.092  0.9366  0.2580 -0.5773
 2366TIP3    H228514   3.929   6.525   3.133 -0.5671  1.7356  0.5495
 2367TIP3   OH228515   1.932   6.706   0.351  0.2012 -0.4135 -0.0747
 2367TIP3    H128516   1.940   6.671   0.262  0.1954 -0.6627  0.0225
 2367TIP3    H228517   2.018   6.694   0.389  0.1993 -0.3201 -0.0432
 2368TIP3   OH228518   2.140   0.373   1.706 -0.3397  0.4085  0.2814
 2368TIP3    H128519   2.063   0.342   1.753 -0.9423  0.5763 -0.5720
 2368TIP3    H228520   2.161   0.458   1.745 -0.6860  0.4330  0.4074
 2369TIP3   OH228521   6.785   5.136   1.035  0.4580 -0.3537  0.3643
 2369TIP3    H128522   6.810   5.188   0.959  3.2366  0.4499  1.7557
 2369TIP3    H228523   6.773   5.200   1.105  0.2529 -1.2878  1.1989
 2370TIP3   OH228524   4.988   0.533   0.718 -0.0668  0.0232  0.1627
 2370TIP3    H128525   4.978   0.629   0.717  0.2533  0.0894  1.9217
 2370TIP3    H228526   4.927   0.502   0.651  0.0514  1.4759 -0.6404
 2371TIP3   OH228527   2.802   5.446  13.970  0.4015 -0.4593 -0.0463
 2371TIP3    H128528   2.881   5.393  13.984 -0.5166 -1.8639 -0.0851
 2371TIP3    H228529   2.816   5.524  14.023  1.6074 -0.9201  0.3342
 2372TIP3   OH228530   5.572   5.005   4.231 -0.3791  0.7365 -0.0671
 2372TIP3    H128531   5.607   4.936   4.288 -0.9704  0.0003 -0.5842
 2372TIP3    H228532   5.634   5.078   4.241 -1.2558  1.1778  2.6436
 2373TIP3   OH228533   1.318   3.528   5.020  0.1225 -0.0783 -0.3238
 2373TIP3    H128534   1.243   3.550   4.965  0.1287 -0.4311 -0.4683
 2373TIP3    H228535   1.285   3.463   5.082  0.1606  0.1892 -0.0172
 2374TIP3   OH228536   2.290   0.633   5.246 -0.0197  0.0407 -0.2453
 2374TIP3    H128537   2.339   0.613   5.166 -0.7665 -0.4649 -0.5811
 2374TIP3    H228538   2.331   0.579   5.313 -2.3205 -3.0404 -1.2429
 2375TIP3   OH228539   3.471   5.982   3.488  0.4635  0.3004  0.6382
 2375TIP3    H128540   3.390   5.962   3.536 -0.0625  1.0611  0.0795
 2375TIP3    H228541   3.481   5.909   3.427  1.4495 -0.9820  2.2697
 2376TIP3   OH228542   2.248   4.834   5.531  0.4556 -0.2130 -0.1041
 2376TIP3    H128543   2.194   4.835   5.611 -1.3305 -2.6255 -1.2122
 2376TIP3    H228544   2.338   4.833   5.563 -0.2364 -1.3843  1.9028
 2377TIP3   OH228545   2.025   5.552   5.811  0.0722 -0.0537  0.5834
 2377TIP3    H128546   1.998   5.472   5.856  0.4167 -0.7491 -0.4104
 2377TIP3    H228547   2.108   5.528   5.770 -0.0136  0.6999 -0.0288
 2378TIP3   OH228548   5.339   0.317   3.584 -0.4324  0.4182  0.4370
 2378TIP3    H128549   5.314   0.263   3.509 -1.0946  0.7284  0.4318
 2378TIP3    H228550   5.291   0.279   3.658  0.1925  0.1331  0.6957
 2379TIP3   OH228551   4.217   4.321   4.760 -0.3130 -0.2342  0.3234
 2379TIP3    H128552   4.209   4.413   4.737  2.6783  0.3325  1.2803
 2379TIP3    H228553   4.228   4.275   4.677 -0.5861  0.4304 -0.0791
 2380TIP3   OH228554   2.716   0.655   5.011  0.5420  0.3914  0.3961
 2380TIP3    H128555   2.765   0.729   5.046  1.2625 -0.5531  1.3920
 2380TIP3    H228556   2.781   0.587   4.997 -0.3983 -0.7053  1.2596
 2381TIP3   OH228557   0.233   0.274   1.347 -0.2358 -0.3219 -0.2219
 2381TIP3    H128558   0.225   0.316   1.433 -0.9594  0.9073 -0.8634
 2381TIP3    H228559   0.284   0.336   1.295 -2.2569  0.3186 -1.5146
 2382TIP3   OH228560   0.070   6.669  15.635  0.2620  0.1337 -0.2858
 2382TIP3    H128561   0.002   6.666  15.567 -1.4370  1.6615  1.2817
 2382TIP3    H228562   0.027   6.637  15.714  1.5351  0.5767  0.6086
 2383TIP3   OH228563   1.016   0.598   4.702  1.3645  0.1451  0.5329
 2383TIP3    H128564   1.074   0.655   4.754  0.9072 -0.6768  1.9846
 2383TIP3    H228565   1.008   0.643   4.618 -1.7321  4.0601  2.7333
 2384TIP3   OH228566   5.878   4.591  16.593 -0.0435 -0.5502 -0.1977
 2384TIP3    H128567   5.836   4.505  16.586 -1.3588  0.1920 -2.3587
 2384TIP3    H228568   5.953   4.586  16.533  1.5552 -1.0788  1.8161
 2385TIP3   OH228569   3.472   3.670   0.248  0.4397 -0.3104 -0.1954
 2385TIP3    H128570   3.382   3.690   0.275  0.7093  0.6023  0.0320
 2385TIP3    H228571   3.475   3.574   0.245 -0.4005 -0.3572  0.2828
 2386TIP3   OH228572   2.250   1.357   3.426  0.6369  0.1649  0.0280
 2386TIP3    H128573   2.337   1.396   3.420  0.3646  1.0310  1.4172
 2386TIP3    H228574   2.193   1.420   3.381  0.6252 -0.0384 -0.2388
 2387TIP3   OH228575   2.967   4.160   0.412 -0.1317 -0.4170 -0.8281
 2387TIP3    H128576   2.906   4.177   0.483  1.8505 -0.0753  0.8476
 2387TIP3    H228577   3.022   4.089   0.445  1.5895  0.5680 -1.5043
 2388TIP3   OH228578   6.368   5.267  13.352 -0.0187  0.3572  0.6653
 2388TIP3    H128579   6.438   5.203  13.361  0.4840  0.5616 -1.4261
 2388TIP3    H228580   6.379   5.302  13.264 -2.4319  0.7657  0.4777
 2389TIP3   OH228581   0.117   3.638   1.650 -0.2468 -0.0574 -0.4358
 2389TIP3    H128582   0.178   3.702   1.615  0.5310 -1.0625 -0.9529
 2389TIP3    H228583   0.075   3.600   1.573 -1.4186  0.5119 -0.0939
 2390TIP3   OH228584   0.744   0.340  14.767  0.1248 -0.0577 -0.0306
 2390TIP3    H128585   0.685   0.407  14.734  0.8127 -0.6063 -2.4532
 2390TIP3    H228586   0.713   0.259  14.728  1.1458 -0.6796  0.4368
 2391TIP3   OH228587   1.923   2.316  11.148 -0.3453 -0.0878 -0.3837
 2391TIP3    H128588   1.867   2.302  11.071 -1.1147 -0.9624  0.3303
 2391TIP3    H228589   1.876   2.381  11.201 -1.2354 -1.6257  0.7443
 2392TIP3   OH228590   5.290   3.222  11.068  0.1731  0.6659  0.2078
 2392TIP3    H128591   5.328   3.285  11.007  0.1250 -0.4630 -1.0360
 2392TIP3    H228592   5.201   3.207  11.035 -0.0383  0.4494  0.8742
 2393TIP3   OH228593   2.580   4.483   3.823  0.0314  1.0065  0.0323
 2393TIP3    H128594   2.544   4.559   3.868 -0.7142 -0.2004  1.5273
 2393TIP3    H228595   2.656   4.516   3.775 -0.4874  2.7356  0.3895
 2394TIP3   OH228596   4.458   3.881   1.976  0.0413 -0.2618  0.2496
 2394TIP3    H128597   4.488   3.949   2.037 -0.8569  0.4893 -0.1286
 2394TIP3    H228598   4.474   3.918   1.890  3.0469 -2.0760 -0.0413
 2395TIP3   OH228599   0.846   6.349  12.320  0.1298 -0.4471  0.4668
 2395TIP3    H128600   0.867   6.427  12.371 -0.1057 -0.0627 -0.0187
 2395TIP3    H228601   0.931   6.317  12.289  0.0466  0.9325 -1.2443
 2396TIP3   OH228602   4.124   2.424   2.657 -0.5250 -0.1243 -0.0201
 2396TIP3    H128603   4.071   2.416   2.578 -2.1778  1.4107  0.8923
 2396TIP3    H228604   4.079   2.370   2.722 -0.3384  0.2600  0.4352
 2397TIP3   OH228605   2.615   6.447  15.365 -0.1328 -0.0124 -0.4282
 2397TIP3    H128606   2.659   6.364  15.349  2.0639  0.8546  0.8491
 2397TIP3    H228607   2.543   6.449  15.303  0.6897 -2.2004 -1.4875
 2398TIP3   OH228608   2.802   1.554  16.505 -0.2154 -0.3534  0.2028
 2398TIP3    H128609   2.798   1.459  16.516 -0.6794 -0.3954 -0.2908
 2398TIP3    H228610   2.859   1.567  16.429  0.8774 -0.1797  1.0448
 2399TIP3   OH228611   5.451   4.515   5.520  0.1971 -0.1977 -0.0641
 2399TIP3    H128612   5.493   4.451   5.461 -2.2983 -0.8065 -1.2218
 2399TIP3    H228613   5.417   4.582   5.462 -0.5452  0.2309  0.8677
 2400TIP3   OH228614   0.671   1.537   2.777  0.5941 -0.3403  0.8126
 2400TIP3    H128615   0.729   1.470   2.814  0.8363 -0.7237 -0.2229
 2400TIP3    H228616   0.583   1.506   2.796  0.6495 -2.0609 -1.4678
 2401TIP3   OH228617   6.785   0.018  12.650  0.1556 -0.4095 -0.1080
 2401TIP3    H128618   6.698  -0.010  12.677  0.8831 -1.0711  1.6539
 2401TIP3    H228619   6.803   0.095  12.704 -0.2199  1.0922 -2.0729
 2402TIP3   OH228620   0.304   0.791   4.429 -0.1416 -0.1820  0.3849
 2402TIP3    H128621   0.252   0.854   4.479 -1.1386 -0.7347  0.0626
 2402TIP3    H228622   0.364   0.753   4.493 -0.2810  0.3160  0.8120
 2403TIP3   OH228623   5.046   3.006   2.095 -0.2695 -0.1189 -0.4283
 2403TIP3    H128624   4.952   2.993   2.080 -0.1648 -3.2116  1.3118
 2403TIP3    H228625   5.050   3.055   2.178 -0.3365  1.3081 -1.2411
 2404TIP3   OH228626   6.549   3.086   4.515  0.3328  0.2700  0.0691
 2404TIP3    H128627   6.585   3.165   4.475  1.7180 -0.6045 -0.4296
 2404TIP3    H228628   6.604   3.015   4.482  0.2228 -0.6982  1.9018
 2405TIP3   OH228629   4.864   0.950  15.649 -0.1249 -0.1757  0.3375
 2405TIP3    H128630   4.784   1.001  15.647  0.1910  0.3387  0.8137
 2405TIP3    H228631   4.854   0.892  15.724  0.0830  0.1129  0.5911
 2406TIP3   OH228632   5.451   3.888  17.076 -0.5737  0.0301  0.0991
 2406TIP3    H128633   5.417   3.811  17.122 -0.2151  0.2778  0.7826
 2406TIP3    H228634   5.482   3.854  16.992 -2.8869 -0.1388 -0.7263
 2407TIP3   OH228635   3.473   0.217   4.000  0.0949  0.3389  0.0084
 2407TIP3    H128636   3.499   0.306   3.975 -3.6123  1.9068  1.4012
 2407TIP3    H228637   3.543   0.187   4.058  1.1443  2.5641 -0.0477
 2408TIP3   OH228638   4.644   5.937  15.302  0.2972  0.1316 -0.5783
 2408TIP3    H128639   4.729   5.904  15.329 -0.9605 -1.9195  0.9473
 2408TIP3    H228640   4.596   5.951  15.383 -1.2805  0.0349 -1.4735
 2409TIP3   OH228641   6.716   5.931  13.770  0.0225  0.0273  0.1844
 2409TIP3    H128642   6.769   5.930  13.690 -2.2000  1.2374 -1.3479
 2409TIP3    H228643   6.748   6.006  13.820 -0.0768  0.5883 -0.6004
 2410TIP3   OH228644   4.318   4.262  13.702  0.0982 -0.3914 -0.1105
 2410TIP3    H128645   4.352   4.175  13.679 -2.8114 -1.0748 -2.1323
 2410TIP3    H228646   4.347   4.318  13.630  1.4021  0.2043  0.8558
 2411TIP3   OH228647   3.643   1.328  16.722 -0.4694 -0.0543 -0.3483
 2411TIP3    H128648   3.710   1.369  16.777 -1.6460  1.4236  0.0131
 2411TIP3    H228649   3.565   1.325  16.776 -0.9888 -0.8297 -1.1216
 2412TIP3   OH228650   4.705   4.564   3.685  0.5705  0.0514  0.2792
 2412TIP3    H128651   4.765   4.589   3.615 -1.1052  2.7895 -0.2874
 2412TIP3    H228652   4.618   4.579   3.648 -0.3632  0.2233  2.4807
 2413TIP3   OH228653   0.509   4.263  14.357 -0.2905  0.0103 -0.1621
 2413TIP3    H128654   0.584   4.207  14.337  0.4220  0.8828  0.0320
 2413TIP3    H228655   0.437   4.202  14.372 -0.0789 -0.7774 -2.1998
 2414TIP3   OH228656   0.627   5.534   2.702 -0.1788 -0.1502  0.1165
 2414TIP3    H128657   0.627   5.458   2.760 -1.4014 -0.1782  0.0852
 2414TIP3    H228658   0.712   5.574   2.716 -0.9592  0.5969  2.9383
 2415TIP3   OH228659   4.626   5.130   1.481  0.0148 -0.0746 -0.0349
 2415TIP3    H128660   4.597   5.187   1.553  0.6581 -0.5085  0.5768
 2415TIP3    H228661   4.573   5.051   1.491  1.0481 -0.6800  0.7992
 2416TIP3   OH228662   2.246   6.242  14.228 -0.6148 -0.2047  0.1489
 2416TIP3    H128663   2.308   6.174  14.203  1.1104  1.5303 -0.3986
 2416TIP3    H228664   2.176   6.236  14.163  1.3239  0.9149 -2.1202
 2417TIP3   OH228665   5.653   0.455   5.298  0.0370  0.4027 -0.2255
 2417TIP3    H128666   5.649   0.530   5.359 -1.6965 -0.8389  1.2482
 2417TIP3    H228667   5.735   0.412   5.319  0.1014  0.7713  0.3002
 2418TIP3   OH228668   3.220   1.490  13.569 -0.3696  0.6563 -0.6323
 2418TIP3    H128669   3.204   1.569  13.519 -0.2886  0.9793 -0.1537
 2418TIP3    H228670   3.185   1.509  13.656 -1.1706 -0.1645 -0.7683
 2419TIP3   OH228671   0.128   3.653   4.553  0.0204  0.1846 -0.6739
 2419TIP3    H128672   0.147   3.560   4.568 -0.7305  0.3803  1.6653
 2419TIP3    H228673   0.214   3.695   4.548  0.3505 -0.4556 -0.3986
 2420TIP3   OH228674   5.857   0.937   0.954  0.5510  0.0530 -0.3591
 2420TIP3    H128675   5.769   0.909   0.979  0.7639 -0.0826  0.2455
 2420TIP3    H228676   5.863   1.027   0.986  0.0124  0.6611 -1.9402
 2421TIP3   OH228677   3.069   2.098   6.624  0.5972  0.8100  0.1345
 2421TIP3    H128678   3.026   2.182   6.636 -1.3818 -0.0107 -0.8898
 2421TIP3    H228679   3.002   2.033   6.647  1.6135 -0.4950 -0.4879
 2422TIP3   OH228680   4.422   6.195   2.418  0.0783 -0.4331 -0.0891
 2422TIP3    H128681   4.337   6.156   2.399 -0.0639 -0.4110  0.4908
 2422TIP3    H228682   4.404   6.258   2.487  0.8161 -1.4305  1.0143
 2423TIP3   OH228683   2.959   0.438  12.427 -0.0723 -0.8039 -0.4186
 2423TIP3    H128684   2.917   0.401  12.504 -0.3232  1.8348  0.7690
 2423TIP3    H228685   3.042   0.474  12.460 -0.5764  1.1220 -1.1689
 2424TIP3   OH228686   2.043   1.923  13.790 -0.3933  0.5137  0.1352
 2424TIP3    H128687   1.950   1.910  13.772  0.0212 -2.4889 -0.2594
 2424TIP3    H228688   2.087   1.874  13.720  1.4959  2.2700  0.0492
 2425TIP3   OH228689   2.332   4.560   2.102 -0.5716 -0.2721 -0.3251
 2425TIP3    H128690   2.368   4.644   2.076 -0.5203 -1.0471 -2.8387
 2425TIP3    H228691   2.344   4.503   2.026 -0.9795 -2.4434  1.1659
 2426TIP3   OH228692   0.296   2.397   1.119 -0.0038  0.0123  0.1529
 2426TIP3    H128693   0.387   2.373   1.137  0.5948  2.0806  0.0667
 2426TIP3    H228694   0.277   2.467   1.181 -0.4485  1.8553 -1.9850
 2427TIP3   OH228695   0.235   2.094  13.340 -0.5974  0.1924 -0.1975
 2427TIP3    H128696   0.258   2.014  13.387 -0.7347 -0.4863 -1.2729
 2427TIP3    H228697   0.251   2.073  13.248 -1.2361  1.1992 -0.5417
 2428TIP3   OH228698   6.160   2.556   1.888  0.0963  0.3440  0.1557
 2428TIP3    H128699   6.119   2.637   1.859  0.5918  0.3817 -0.4452
 2428TIP3    H228700   6.139   2.493   1.819 -0.7498 -0.1754  0.8871
 2429TIP3   OH228701   2.214   2.054  11.893 -0.3900  0.2190  0.1839
 2429TIP3    H128702   2.222   2.049  11.988  3.5821 -0.9192 -0.0970
 2429TIP3    H228703   2.264   2.133  11.870  0.4280 -0.6448 -1.0739
 2430TIP3   OH228704   6.412   1.554  17.165  0.3182 -0.0754 -0.1928
 2430TIP3    H128705   6.393   1.567  17.258  0.9087 -0.1204 -0.0644
 2430TIP3    H228706   6.348   1.489  17.136 -0.6343  0.8213 -0.1021
 2431TIP3   OH228707   0.773   3.812  14.516  0.3249 -0.4378  0.3587
 2431TIP3    H128708   0.703   3.811  14.582  0.4373  2.0699  0.5638
 2431TIP3    H228709   0.728   3.810  14.432 -0.0771  1.8109  0.4816
 2432TIP3   OH228710   2.329   3.960  10.929  0.6589  0.2268 -0.5976
 2432TIP3    H128711   2.360   3.887  10.982  1.1811  0.4339 -0.6150
 2432TIP3    H228712   2.384   4.034  10.955 -1.4330  1.2206  1.1423
 2433TIP3   OH228713   3.462   1.887  16.683 -0.0100  0.1473 -0.1520
 2433TIP3    H128714   3.391   1.840  16.639  0.8032 -1.0417 -0.2189
 2433TIP3    H228715   3.526   1.819  16.703  1.8466  1.4633 -1.5405
 2434TIP3   OH228716   6.100   2.360  13.397 -0.1659  0.6357 -0.2776
 2434TIP3    H128717   6.161   2.323  13.461  0.2257  0.3450 -0.8162
 2434TIP3    H228718   6.035   2.291  13.384 -1.3112  1.3903  1.2000
 2435TIP3   OH228719   3.481   5.585  11.325 -0.2256  0.3887  0.7982
 2435TIP3    H128720   3.523   5.599  11.241 -1.1046 -2.5740 -0.1828
 2435TIP3    H228721   3.530   5.513  11.365 -0.4749  1.0646  2.3860
 2436TIP3   OH228722   3.041   3.475   3.540  0.4255  0.1819 -0.0805
 2436TIP3    H128723   3.135   3.491   3.532  0.4768 -1.4353 -3.4097
 2436TIP3    H228724   3.034   3.383   3.564 -0.3049  0.4077  0.5743
 2437TIP3   OH228725   1.480   4.899   2.047  0.2115 -0.4125  0.7008
 2437TIP3    H128726   1.393   4.935   2.027  1.3027  2.0507  0.2153
 2437TIP3    H228727   1.536   4.933   1.977  1.3493 -3.0785  0.2301
 2438TIP3   OH228728   4.783   4.803   5.064 -0.0089 -0.0879  1.1194
 2438TIP3    H128729   4.700   4.836   5.029  0.3497 -0.9176 -0.5544
 2438TIP3    H228730   4.764   4.713   5.091 -0.0882  0.2975  2.3909
 2439TIP3   OH228731   0.221   5.812  13.934  0.4912  0.1066  1.2138
 2439TIP3    H128732   0.170   5.756  13.992 -1.8550  0.9597  0.0506
 2439TIP3    H228733   0.211   5.772  13.847  0.0785  1.4104  0.6419
 2440TIP3   OH228734   0.873   1.309  12.920 -0.1402 -0.4640  0.0226
 2440TIP3    H128735   0.860   1.276  13.009  0.8834  0.8232  0.6552
 2440TIP3    H228736   0.965   1.335  12.916 -0.6815  1.4189 -0.7526
 2441TIP3   OH228737   4.769   3.936   4.481 -0.9561  0.0538 -0.0683
 2441TIP3    H128738   4.717   3.872   4.432 -0.0408 -0.6765 -0.1042
 2441TIP3    H228739   4.796   3.889   4.560  0.2229  0.1956 -0.3800
 2442TIP3   OH228740   1.307   6.375   1.723 -0.1929 -0.4499  0.2371
 2442TIP3    H128741   1.292   6.460   1.766  0.9304  1.1622 -2.3907
 2442TIP3    H228742   1.301   6.311   1.793  1.1971  2.0205  2.7108
 2443TIP3   OH228743   5.692   0.269  15.934 -0.3611  0.6302 -0.4933
 2443TIP3    H128744   5.738   0.279  16.018  2.3593  0.2393 -1.8760
 2443TIP3    H228745   5.696   0.356  15.895 -2.0184  0.9166 -0.0242
 2444TIP3   OH228746   4.437   4.756   5.746  0.5949 -0.0763  0.7326
 2444TIP3    H128747   4.445   4.846   5.714 -0.3337  0.0954  0.9753
 2444TIP3    H228748   4.360   4.757   5.803 -0.2355 -1.3139 -0.3228
 2445TIP3   OH228749   5.413   0.583  16.937  0.2719 -0.7352 -0.1793
 2445TIP3    H128750   5.449   0.617  17.019  0.6116 -0.0481 -0.6093
 2445TIP3    H228751   5.334   0.536  16.963 -0.9999  1.6104  0.2672
 2446TIP3   OH228752   4.900   4.563  14.560  0.0841 -0.6521 -0.2711
 2446TIP3    H128753   4.913   4.640  14.506  0.1348 -0.5643 -0.1350
 2446TIP3    H228754   4.983   4.551  14.607 -0.7058  0.6321  1.5177
 2447TIP3   OH228755   5.762   4.156   2.815 -0.3885  0.6065  0.0677
 2447TIP3    H128756   5.823   4.082   2.819 -0.4076  0.5615 -0.4700
 2447TIP3    H228757   5.781   4.206   2.894 -0.2858  0.0959  0.3692
 2448TIP3   OH228758   0.347   5.524  11.612 -0.1184  0.0840 -0.0417
 2448TIP3    H128759   0.379   5.527  11.702 -0.3674  0.5342  0.0280
 2448TIP3    H228760   0.427   5.519  11.559  0.0372  0.1629  0.1866
 2449TIP3   OH228761   5.580   4.192   3.321 -0.5684 -0.0327  0.0595
 2449TIP3    H128762   5.624   4.121   3.367 -3.1147 -0.3815  2.0470
 2449TIP3    H228763   5.607   4.271   3.367  0.8191  0.1239 -1.0045
 2450TIP3   OH228764   6.786   0.167  11.652 -0.6964 -0.3532 -0.9167
 2450TIP3    H128765   6.824   0.141  11.568 -1.4289  1.7912 -1.9250
 2450TIP3    H228766   6.716   0.103  11.667  0.5780 -1.8163 -1.0364
 2451TIP3   OH228767   1.099   6.483   3.739 -0.4187 -0.4587  1.0164
 2451TIP3    H128768   1.147   6.565   3.753  0.0296 -0.6722  0.7577
 2451TIP3    H228769   1.056   6.465   3.822 -0.1873 -0.1704  1.1979
 2452TIP3   OH228770   5.146   6.490   0.091  0.0988  0.1026 -0.2362
 2452TIP3    H128771   5.056   6.459   0.103 -0.2356  2.0672  2.8307
 2452TIP3    H228772   5.200   6.415   0.114 -0.7529 -0.3748  0.2340
 2453TIP3   OH228773   1.494   3.957   3.842 -0.5652  0.0879  0.0604
 2453TIP3    H128774   1.465   4.041   3.806  2.7864  1.4355  0.3359
 2453TIP3    H228775   1.588   3.967   3.853 -0.4216 -2.9561  2.1867
 2454TIP3   OH228776   0.336   4.946   4.227  0.6523 -0.6482  0.5591
 2454TIP3    H128777   0.293   5.028   4.205  2.9817  0.3627 -0.3060
 2454TIP3    H228778   0.336   4.896   4.146  1.2024 -0.6059  0.5325
 2455TIP3   OH228779   2.075   5.064   4.786  0.2075 -0.0170 -0.2815
 2455TIP3    H128780   2.162   5.102   4.785  0.4367 -0.5467 -1.7055
 2455TIP3    H228781   2.058   5.039   4.695 -1.6588  0.6080 -0.1278
 2456TIP3   OH228782   1.121   4.954  16.938 -0.3891 -0.0516 -0.3839
 2456TIP3    H128783   1.135   5.048  16.931 -0.5533 -0.1787 -2.7405
 2456TIP3    H228784   1.209   4.917  16.941 -0.3108  0.2380  2.0992
 2457TIP3   OH228785   2.637   6.294   0.665  0.7571  0.2549 -0.4812
 2457TIP3    H128786   2.707   6.271   0.725 -1.2282 -1.2024  1.3345
 2457TIP3    H228787   2.596   6.211   0.641  0.1113  1.0114 -2.1439
 2458TIP3   OH228788   0.974   2.541   3.683  0.5414  0.6401  0.1578
 2458TIP3    H128789   1.057   2.579   3.653  0.7085  0.3612  0.2566
 2458TIP3    H228790   1.001   2.465   3.735  0.1969  0.1128 -0.4345
 2459TIP3   OH228791   2.811   1.573   3.893 -0.1747 -0.8040  0.6460
 2459TIP3    H128792   2.783   1.605   3.979  0.6486 -0.3246  0.7343
 2459TIP3    H228793   2.906   1.581   3.894 -0.0798 -1.7878  0.0820
 2460TIP3   OH228794   1.030   4.622   2.294  0.0974 -0.2902  0.2554
 2460TIP3    H128795   1.015   4.537   2.253  0.1402  0.6931 -1.8702
 2460TIP3    H228796   1.069   4.675   2.225 -0.4475  1.6262  1.3942
 2461TIP3   OH228797   4.247   3.766   5.905  0.1847  0.0282 -0.6503
 2461TIP3    H128798   4.248   3.756   6.001  3.7771  1.2204 -0.5145
 2461TIP3    H228799   4.240   3.860   5.891 -0.4808 -0.1578 -1.6073
 2462TIP3   OH228800   1.350   1.236   1.717 -0.4701 -0.2133 -0.4981
 2462TIP3    H128801   1.375   1.300   1.784 -1.4459 -0.8711  0.4883
 2462TIP3    H228802   1.350   1.152   1.762  2.3763 -1.1773 -2.1676
 2463TIP3   OH228803   3.617   4.450   4.010 -0.5823 -1.0987 -0.5155
 2463TIP3    H128804   3.700   4.431   4.054 -0.0771  1.0075 -0.5207
 2463TIP3    H228805   3.553   4.456   4.081 -0.5503 -1.7528 -0.4289
 2464TIP3   OH228806   6.080   4.022  13.160 -0.1786  0.2959 -0.4228
 2464TIP3    H128807   6.007   4.003  13.219 -0.8434 -0.3041 -1.4241
 2464TIP3    H228808   6.095   3.939  13.113 -1.5450  1.5319 -3.1496
 2465TIP3   OH228809   4.253   3.561   1.105  0.6784  0.1877  0.5577
 2465TIP3    H128810   4.203   3.637   1.074  1.3653  0.8393  1.0291
 2465TIP3    H228811   4.240   3.560   1.199  2.5058  1.0738  0.8351
 2466TIP3   OH228812   4.065   3.156   1.637  0.2063 -0.5141  0.2605
 2466TIP3    H128813   4.038   3.117   1.554 -1.3771  0.0224  0.5165
 2466TIP3    H228814   3.987   3.154   1.692  1.5687 -2.0667  2.2236
 2467TIP3   OH228815   4.057   0.964   3.027  0.1087 -0.4416  0.4515
 2467TIP3    H128816   4.112   1.027   2.980  0.7503 -1.1968  0.1747
 2467TIP3    H228817   4.055   0.996   3.118  0.4440 -0.0364  0.3150
 2468TIP3   OH228818   1.165   3.166  15.160 -0.4871 -0.4534 -0.7945
 2468TIP3    H128819   1.092   3.105  15.150 -1.3934  0.6740 -1.1373
 2468TIP3    H228820   1.135   3.247  15.119  0.4181  0.4608  0.3070
 2469TIP3   OH228821   5.048   2.974  16.411  0.4089 -0.1530  0.1829
 2469TIP3    H128822   5.015   2.895  16.454 -1.4869  0.6595  0.2584
 2469TIP3    H228823   5.060   2.948  16.319 -0.6136 -0.4300  0.1202
 2470TIP3   OH228824   5.807   5.263   5.486  0.1186  0.2188  0.5584
 2470TIP3    H128825   5.763   5.290   5.406  1.8535  0.5333 -0.3163
 2470TIP3    H228826   5.800   5.339   5.544 -1.7834 -0.2682  1.0109
 2471TIP3   OH228827   0.903   5.200  15.517  0.0512  0.2804  0.1181
 2471TIP3    H128828   0.954   5.244  15.449 -0.3659  0.5080 -0.0485
 2471TIP3    H228829   0.828   5.257  15.531 -0.8000 -0.6693 -0.5146
 2472TIP3   OH228830   1.428   6.242  16.436  0.1936 -0.6671 -0.3969
 2472TIP3    H128831   1.378   6.162  16.455 -1.7695  0.8796  1.1522
 2472TIP3    H228832   1.381   6.283  16.363  0.7553 -0.5269 -0.6853
 2473TIP3   OH228833   4.557   2.154   2.569  0.2081  0.4363 -0.5174
 2473TIP3    H128834   4.503   2.168   2.647 -1.1548 -0.2019 -1.3455
 2473TIP3    H228835   4.545   2.062   2.547  1.5809  0.3009 -0.7602
 2474TIP3   OH228836   1.845   3.252  15.768  0.2427 -0.9275  0.3420
 2474TIP3    H128837   1.832   3.158  15.780 -1.1011 -0.4767  2.5673
 2474TIP3    H228838   1.758   3.287  15.753  0.4337  0.2598  1.8432
 2475TIP3   OH228839   6.267   1.303  17.155 -0.3853  0.1859  0.0970
 2475TIP3    H128840   6.322   1.234  17.193  0.3356  0.2406 -0.8226
 2475TIP3    H228841   6.178   1.270  17.162 -0.3528  0.5149  2.5183
 2476TIP3   OH228842   1.478   1.602   0.079 -0.0462 -0.0094  0.2100
 2476TIP3    H128843   1.395   1.555   0.089 -0.6834  1.2044  0.6701
 2476TIP3    H228844   1.453   1.694   0.068  1.1231  0.0651 -2.1569
 2477TIP3   OH228845   2.575   3.486   4.866  0.2247  0.3052  0.7274
 2477TIP3    H128846   2.542   3.482   4.955  2.5111 -0.8293  1.5450
 2477TIP3    H228847   2.517   3.427   4.816 -1.0059  0.8901  1.4466
 2478TIP3   OH228848   2.955   2.545   0.791  0.2909  0.2056  0.5567
 2478TIP3    H128849   2.929   2.626   0.746  1.0837 -0.7052 -1.6402
 2478TIP3    H228850   3.049   2.537   0.772 -0.1031 -2.0465 -0.6002
 2479TIP3   OH228851   4.286   4.691  13.170  0.1515 -0.5593  0.4342
 2479TIP3    H128852   4.307   4.689  13.076 -1.1293 -1.0883  0.1454
 2479TIP3    H228853   4.337   4.620  13.207  0.7809 -0.2520  0.1566
 2480TIP3   OH228854   0.224   2.741   2.157 -0.7353 -0.0626  0.7680
 2480TIP3    H128855   0.189   2.830   2.165 -3.4088 -0.9387 -0.6227
 2480TIP3    H228856   0.176   2.690   2.223 -0.1530 -0.7305  0.6807
 2481TIP3   OH228857   6.641   0.678  13.649  0.6727  0.1067 -0.3374
 2481TIP3    H128858   6.718   0.674  13.593  1.4163  0.4391  0.6402
 2481TIP3    H228859   6.650   0.760  13.697 -0.5152  0.3578 -0.5240
 2482TIP3   OH228860   1.865   4.409   0.225 -0.0322  0.1986 -0.2219
 2482TIP3    H128861   1.836   4.320   0.206 -1.2454  0.8473 -1.4671
 2482TIP3    H228862   1.788   4.464   0.210  1.0538  1.6149 -0.7545
 2483TIP3   OH228863   3.187   1.102  12.734  0.3969 -0.6089  0.2290
 2483TIP3    H128864   3.181   1.197  12.722 -0.5456 -0.6338  0.4349
 2483TIP3    H228865   3.153   1.087  12.823 -0.9445 -1.2842 -0.3780
 2484TIP3   OH228866   6.280   1.201  15.705  0.3360  0.2817 -0.6347
 2484TIP3    H128867   6.348   1.174  15.767 -0.1248  0.0113 -0.2348
 2484TIP3    H228868   6.290   1.142  15.630 -0.4073 -0.7520  0.0583
 2485TIP3   OH228869   3.961   4.815  12.836  0.3906 -0.3406  0.4742
 2485TIP3    H128870   3.974   4.866  12.917  1.8430  0.1959 -0.0706
 2485TIP3    H228871   4.001   4.868  12.768 -1.1282 -0.6448 -0.6695
 2486TIP3   OH228872   1.478   5.965  16.273  0.0272  0.1754  0.3492
 2486TIP3    H128873   1.411   5.938  16.210  2.4916 -1.7329 -1.5627
 2486TIP3    H228874   1.469   5.903  16.345 -0.2703 -0.0415  0.1273
 2487TIP3   OH228875   6.229   1.081  10.577  0.2962 -0.7555 -0.1314
 2487TIP3    H128876   6.314   1.050  10.606  1.2786 -0.1025 -2.2328
 2487TIP3    H228877   6.229   1.175  10.598 -0.7687 -1.1362  1.7733
 2488TIP3   OH228878   0.334   1.151   0.946 -0.5268 -0.1720 -0.0991
 2488TIP3    H128879   0.386   1.173   1.024 -1.2274 -0.8659  0.5738
 2488TIP3    H228880   0.398   1.139   0.877  0.4226 -3.2534  1.2335
 2489TIP3   OH228881   6.764   2.342  16.824  0.5763  0.4193  0.4992
 2489TIP3    H128882   6.772   2.247  16.830  0.3268  0.3374 -0.4666
 2489TIP3    H228883   6.839   2.375  16.873 -1.1701 -0.2229  3.7243
 2490TIP3   OH228884   4.114   6.490   3.366 -0.4523 -0.2729 -0.1401
 2490TIP3    H128885   4.202   6.526   3.369 -0.2633 -0.6612 -1.0934
 2490TIP3    H228886   4.087   6.487   3.458  0.8283 -0.9290  0.2226
 2491TIP3   OH228887   0.557   3.482   4.042 -0.1684 -0.1722 -0.2452
 2491TIP3    H128888   0.531   3.570   4.068  0.7514 -0.3970  1.5029
 2491TIP3    H228889   0.638   3.495   3.992 -1.0971  0.1291 -1.6857
 2492TIP3   OH228890   1.357   5.129   5.949  0.5103 -0.1083  0.3605
 2492TIP3    H128891   1.344   5.145   6.043  0.6755 -0.2708  0.4119
 2492TIP3    H228892   1.324   5.208   5.906  1.6950  0.5462  0.6324
 2493TIP3   OH228893   1.106   3.514   3.075  0.2127  0.2497 -0.1095
 2493TIP3    H128894   1.145   3.546   3.157  0.1563  0.1782 -0.0543
 2493TIP3    H228895   1.012   3.528   3.086  0.2549  0.7240 -0.3772
 2494TIP3   OH228896   0.229   6.405  12.291 -0.0812  0.2077 -0.2391
 2494TIP3    H128897   0.187   6.416  12.376 -2.0123 -2.9889 -0.7206
 2494TIP3    H228898   0.203   6.482  12.241 -0.0052  1.4515  1.6023
 2495TIP3   OH228899   0.836   6.529   4.525  0.7255  0.6796  0.2680
 2495TIP3    H128900   0.754   6.520   4.574  0.4746  2.0980  0.1157
 2495TIP3    H228901   0.823   6.606   4.470  1.1301 -0.6752 -1.7992
 2496TIP3   OH228902   4.545   2.326  16.159 -0.6187 -0.3067 -0.9498
 2496TIP3    H128903   4.638   2.303  16.154 -1.1055 -2.3492 -0.9070
 2496TIP3    H228904   4.522   2.314  16.251 -1.0412 -0.2197 -1.0431
 2497TIP3   OH228905   6.629   0.691  12.116 -0.1002  0.1799  0.5570
 2497TIP3    H128906   6.596   0.602  12.103 -1.9781  0.8922  0.3377
 2497TIP3    H228907   6.632   0.701  12.211 -1.6602  0.5008  0.5897
 2498TIP3   OH228908   0.170   5.871   5.164 -0.2013  0.1065 -0.6248
 2498TIP3    H128909   0.097   5.863   5.225 -0.0739  0.3599 -0.4418
 2498TIP3    H228910   0.151   5.949   5.112 -0.2308 -0.0195 -0.8051
 2499TIP3   OH228911   4.339   4.700   6.564  0.4292 -0.2689 -0.5202
 2499TIP3    H128912   4.283   4.724   6.639  0.6847 -1.2290 -0.0185
 2499TIP3    H228913   4.354   4.783   6.518 -0.6300  0.1518 -0.1228
 2500TIP3   OH228914   2.610   5.006  14.307  0.3188 -0.1086  0.2884
 2500TIP3    H128915   2.666   4.979  14.234 -2.2229 -0.8824 -1.4973
 2500TIP3    H228916   2.554   4.930  14.323  0.1447  0.4403  2.3492
 2501TIP3   OH228917   6.713   1.736   5.558  0.0824 -0.3146 -0.0459
 2501TIP3    H128918   6.758   1.697   5.484  0.5994  1.1577 -0.5248
 2501TIP3    H228919   6.620   1.720   5.540  0.2385 -0.5365 -0.6843
 2502TIP3   OH228920   3.780   1.290   3.728  0.8641  0.1190 -0.0700
 2502TIP3    H128921   3.781   1.336   3.644 -1.3555 -0.4572 -0.4626
 2502TIP3    H228922   3.807   1.356   3.792 -1.6378  1.8613 -0.7059
 2503TIP3   OH228923   5.007   4.851   3.197  0.3434 -0.5223 -0.5115
 2503TIP3    H128924   4.960   4.830   3.117  0.2487  0.2778 -0.6735
 2503TIP3    H228925   5.079   4.788   3.200 -0.2831 -1.2572 -0.6574
 2504TIP3   OH228926   4.954   5.454  14.422 -0.3761 -0.4255  0.1484
 2504TIP3    H128927   5.049   5.440  14.429 -0.4674 -0.8646  0.4950
 2504TIP3    H228928   4.925   5.393  14.354 -0.3272  0.0973 -0.3481
 2505TIP3   OH228929   0.958   2.851  13.907  0.1380 -0.3475  0.4252
 2505TIP3    H128930   0.969   2.758  13.888 -0.9464 -0.4929  0.5295
 2505TIP3    H228931   0.911   2.853  13.990 -0.2049  0.3024  0.2151
 2506TIP3   OH228932   1.712   5.533  14.308  0.2081  0.1411 -0.4999
 2506TIP3    H128933   1.779   5.478  14.350 -0.3379 -0.1609 -0.0219
 2506TIP3    H228934   1.645   5.472  14.279 -0.1648  0.5082 -0.4145
 2507TIP3   OH228935   3.194   4.380  12.057  0.3665 -0.4350  0.2016
 2507TIP3    H128936   3.209   4.472  12.037  0.1437 -0.5283 -0.4109
 2507TIP3    H228937   3.259   4.359  12.124 -1.3734  0.8669  2.3347
 2508TIP3   OH228938   3.260   4.490   2.910 -0.5274 -0.0447  0.3358
 2508TIP3    H128939   3.304   4.445   2.983 -1.6215  0.5344  1.3810
 2508TIP3    H228940   3.188   4.432   2.887 -2.1670  1.2911  1.9345
 2509TIP3   OH228941   1.350   2.220   0.454 -0.5017 -0.2812  0.6553
 2509TIP3    H128942   1.425   2.279   0.449 -0.2284 -0.7140 -0.4625
 2509TIP3    H228943   1.377   2.154   0.518 -0.1733 -0.0902  0.7175
 2510TIP3   OH228944   0.986   0.403   0.568 -0.3429  0.3972 -0.6019
 2510TIP3    H128945   1.056   0.454   0.527  0.4070 -0.4310 -0.3969
 2510TIP3    H228946   0.911   0.462   0.572  0.5106  1.4820 -0.3550
 2511TIP3   OH228947   5.434   6.488  12.798 -0.3403  0.3961  0.0495
 2511TIP3    H128948   5.410   6.486  12.891  1.1764 -0.1508  0.4562
 2511TIP3    H228949   5.371   6.431  12.755 -0.3968 -0.2166  0.9254
 2512TIP3   OH228950   3.508   3.219  13.362  0.3587 -0.6021  0.6820
 2512TIP3    H128951   3.518   3.295  13.419 -0.7670  1.4565 -1.7743
 2512TIP3    H228952   3.596   3.180  13.359  1.0120  0.7527  1.7630
 2513TIP3   OH228953   0.224   6.102   1.350  0.2710 -0.1537 -0.5719
 2513TIP3    H128954   0.213   6.007   1.356  1.4125 -0.2776 -0.4220
 2513TIP3    H228955   0.284   6.124   1.421 -0.9033  0.8425  0.1315
 2514TIP3   OH228956   3.717   6.609  13.128  0.3685  0.3742 -0.2663
 2514TIP3    H128957   3.779   6.546  13.091 -0.4756  0.2026 -1.3849
 2514TIP3    H228958   3.766   6.691  13.133  0.9802  0.0122 -0.2499
 2515TIP3   OH228959   0.645   0.311   2.877 -0.1180  0.0646  0.3051
 2515TIP3    H128960   0.668   0.339   2.966  1.4981 -1.2664  0.3300
 2515TIP3    H228961   0.573   0.249   2.889 -0.9800  1.1069  0.5555
 2516TIP3   OH228962   1.077   1.538  15.150  0.2303  0.0025  0.1679
 2516TIP3    H128963   1.052   1.521  15.240 -0.3033 -0.2436 -0.0238
 2516TIP3    H228964   1.146   1.475  15.131 -0.7318 -0.9777 -0.0856
 2517TIP3   OH228965   2.578   2.494   3.905  0.2305 -0.5599  0.3815
 2517TIP3    H128966   2.570   2.465   3.995  0.2086 -1.2865  0.1433
 2517TIP3    H228967   2.523   2.434   3.855 -0.3618  0.3046 -0.0197
 2518TIP3   OH228968   3.847   2.495  11.773  0.2399 -0.5257 -0.6205
 2518TIP3    H128969   3.893   2.451  11.845 -1.8748 -1.8171 -0.0235
 2518TIP3    H228970   3.763   2.521  11.810 -0.0328  0.6974 -2.0503
 2519TIP3   OH228971   0.144   3.352   1.505 -0.2920 -0.0863 -0.0404
 2519TIP3    H128972   0.230   3.393   1.499 -1.2251  1.8980 -0.1840
 2519TIP3    H228973   0.121   3.331   1.414 -0.8580  1.2946 -0.2203
 2520TIP3   OH228974   6.372   3.764   4.355 -0.0979  0.2974 -0.0558
 2520TIP3    H128975   6.446   3.802   4.309 -1.1842 -0.0709 -2.1367
 2520TIP3    H228976   6.330   3.837   4.400  0.0346  0.9222 -0.9529
 2521TIP3   OH228977   3.864   1.045   4.071 -0.8154 -0.0722 -0.7084
 2521TIP3    H128978   3.949   1.070   4.036 -0.3085 -0.2430  0.3891
 2521TIP3    H228979   3.856   0.952   4.051 -0.4986 -0.1834 -0.3227
 2522TIP3   OH228980   3.612   5.171   5.451  0.1288  0.1137  0.3826
 2522TIP3    H128981   3.561   5.171   5.532  1.0354 -0.0405  0.9675
 2522TIP3    H228982   3.676   5.101   5.463  0.7076  0.5371 -0.1896
 2523TIP3   OH228983   5.592   4.523  15.181  0.1037 -0.5935  0.7940
 2523TIP3    H128984   5.546   4.602  15.208  0.5291 -0.2040  0.3975
 2523TIP3    H228985   5.682   4.552  15.164  0.0195 -0.9598 -0.3322
 2524TIP3   OH228986   4.529   1.794   6.344  0.4463 -0.0267 -0.1289
 2524TIP3    H128987   4.529   1.718   6.402 -0.9746 -0.4409 -0.6530
 2524TIP3    H228988   4.617   1.832   6.354  1.2838 -1.9288 -0.1438
 2525TIP3   OH228989   2.270   4.614  11.596  0.5060  0.1258  0.6808
 2525TIP3    H128990   2.267   4.640  11.688 -1.3971  0.8441  0.4367
 2525TIP3    H228991   2.250   4.694  11.548  3.3943  0.2080 -0.4589
 2526TIP3   OH228992   3.979   0.426   4.954  0.6009  0.2348 -0.4757
 2526TIP3    H128993   3.904   0.454   4.902  0.4351  0.7897  0.0526
 2526TIP3    H228994   4.035   0.504   4.959  0.9581 -0.0213 -0.4210
 2527TIP3   OH228995   3.149   0.416  14.271 -0.2017 -0.4295 -0.7211
 2527TIP3    H128996   3.223   0.370  14.312 -0.4395  0.6679  0.9897
 2527TIP3    H228997   3.072   0.385  14.319 -0.6949 -0.4562 -1.5237
 2528TIP3   OH228998   0.235   2.374   1.421  0.0374  0.0330 -0.4776
 2528TIP3    H128999   0.287   2.294   1.423  0.1050 -0.1131 -3.9246
 2528TIP3    H229000   0.266   2.425   1.495  0.4414 -2.8382  1.4145
 2529TIP3   OH229001   4.721   2.458  17.165  0.0704 -0.0781  0.0821
 2529TIP3    H129002   4.690   2.390  17.105 -0.7159 -0.2273  0.6499
 2529TIP3    H229003   4.681   2.435  17.249  0.6509  0.4923  0.5184
 2530TIP3   OH229004   1.922   2.716   0.548 -0.1903  0.0068  0.3252
 2530TIP3    H129005   1.873   2.640   0.579 -1.5060  0.2348 -1.1725
 2530TIP3    H229006   1.949   2.761   0.628  1.1072 -2.3275  1.2548
 2531TIP3   OH229007   6.075   0.491  11.058 -0.1507 -0.4462  0.8883
 2531TIP3    H129008   6.070   0.398  11.078 -0.7836 -0.4675  0.6479
 2531TIP3    H229009   6.120   0.495  10.973  0.3614 -0.4949  1.1518
 2532TIP3   OH229010   3.465   1.743   6.716 -0.0042  0.2710 -0.1622
 2532TIP3    H129011   3.405   1.674   6.690 -0.0956  0.6691 -1.0268
 2532TIP3    H229012   3.411   1.822   6.719  0.7473  0.9153 -2.3987
 2533TIP3   OH229013   0.295   4.087   5.042 -0.0571 -0.5027 -0.1964
 2533TIP3    H129014   0.381   4.092   5.001  0.1265  2.2507  0.3914
 2533TIP3    H229015   0.247   4.162   5.006 -1.1865 -0.2732  1.6871
 2534TIP3   OH229016   0.500   6.225  11.517 -0.0789 -0.2816  0.3361
 2534TIP3    H129017   0.532   6.138  11.490  0.6091 -0.2912  1.1749
 2534TIP3    H229018   0.409   6.210  11.542  0.5451 -1.1139  2.1760
 2535TIP3   OH229019   1.954   1.792  16.641  0.3405  0.2384  0.9163
 2535TIP3    H129020   1.922   1.843  16.716  1.5896  2.4621  0.0002
 2535TIP3    H229021   2.049   1.803  16.643  0.3883  0.4459 -1.0496
 2536TIP3   OH229022   5.014   5.170  14.754 -0.4265 -0.0572 -0.8920
 2536TIP3    H129023   4.932   5.134  14.721 -1.5189 -0.2212  1.8815
 2536TIP3    H229024   4.990   5.253  14.794  0.8662  0.1992 -0.6152
 2537TIP3   OH229025   2.018   2.955   0.357  0.0645 -0.2726  0.1245
 2537TIP3    H129026   1.935   2.919   0.387  0.3411 -0.5972  0.5124
 2537TIP3    H229027   2.084   2.913   0.413  0.5076 -0.1871 -0.3294
 2538TIP3   OH229028   4.708   2.416   1.886  0.6024  0.1131  0.2903
 2538TIP3    H129029   4.694   2.363   1.964 -0.1126  0.9238  0.7098
 2538TIP3    H229030   4.704   2.353   1.813  1.5229 -0.6781  0.9130
 2539TIP3   OH229031   0.117   0.079   2.403 -0.1902  0.1426  0.1247
 2539TIP3    H129032   0.084   0.055   2.316 -0.1882 -0.7497  0.3651
 2539TIP3    H229033   0.206   0.044   2.405  0.6633  2.2525 -0.3916
 2540TIP3   OH229034   6.429   6.179  12.505  0.1970  0.0369 -0.2322
 2540TIP3    H129035   6.416   6.238  12.431 -1.7592 -0.2559 -0.1508
 2540TIP3    H229036   6.454   6.236  12.577 -2.7196  0.9566  0.1241
 2541TIP3   OH229037   2.202   4.792   0.085  0.2541  0.3859  0.2633
 2541TIP3    H129038   2.265   4.746   0.030  0.3413  0.8254 -0.0035
 2541TIP3    H229039   2.117   4.772   0.046  0.4012  1.6382 -0.7241
 2542TIP3   OH229040   2.596   2.278  10.953  0.4927  0.4401 -0.4431
 2542TIP3    H129041   2.558   2.210  10.896 -0.7204 -0.8656  1.8615
 2542TIP3    H229042   2.593   2.357  10.899  0.7887 -1.0494 -2.7460
 2543TIP3   OH229043   0.523   4.682  14.492  0.2567  0.5860 -0.1452
 2543TIP3    H129044   0.535   4.622  14.566 -1.1616  0.1578 -0.2289
 2543TIP3    H229045   0.545   4.630  14.415 -0.2240  0.3979 -0.1608
 2544TIP3   OH229046   3.207   6.728  13.101  0.0757  0.2098 -0.6567
 2544TIP3    H129047   3.167   6.782  13.033 -3.1998  0.4414  1.3582
 2544TIP3    H229048   3.178   6.639  13.081 -0.2868  0.1764  0.0159
 2545TIP3   OH229049   0.078   1.373   5.608  0.0674 -0.5607 -0.3882
 2545TIP3    H129050   0.133   1.449   5.591  0.0911  0.0703  2.2827
 2545TIP3    H229051   0.011   1.375   5.540  0.7099  1.2317 -0.9731
 2546TIP3   OH229052   4.497   3.416  13.989  0.3476 -0.1707  0.0141
 2546TIP3    H129053   4.460   3.365  14.061 -1.7158  0.2025 -0.7501
 2546TIP3    H229054   4.574   3.458  14.027  0.3819 -1.5010  1.4619
 2547TIP3   OH229055   4.769   5.972  14.059  0.4361  0.1722 -0.2064
 2547TIP3    H129056   4.743   5.936  14.144  0.9306  0.3779  0.0334
 2547TIP3    H229057   4.767   6.067  14.072 -1.3549  0.2559 -0.9824
 2548TIP3   OH229058   4.413   6.144  15.161  0.5990  0.7544 -0.7122
 2548TIP3    H129059   4.378   6.121  15.248  0.9117 -1.1375 -1.0651
 2548TIP3    H229060   4.503   6.169  15.178  0.2813  1.6371 -0.3213
 2549TIP3   OH229061   1.400   4.166   6.480  0.1011 -0.3467  0.2405
 2549TIP3    H129062   1.392   4.133   6.390  0.2829  0.7685 -0.1903
 2549TIP3    H229063   1.493   4.158   6.500  0.0823 -0.4660  0.2809
 2550TIP3   OH229064   6.536   3.608   6.310 -0.2888  0.3679 -0.2433
 2550TIP3    H129065   6.441   3.605   6.302 -0.3635  2.9735 -0.6720
 2550TIP3    H229066   6.557   3.701   6.310  2.2725 -0.1834 -0.1614
 2551TIP3   OH229067   1.592   0.780  12.935 -0.1558 -0.3374  0.0582
 2551TIP3    H129068   1.676   0.802  12.894 -0.2591 -0.2700 -0.1220
 2551TIP3    H229069   1.559   0.706  12.885 -0.3862 -0.1147 -0.1240
 2552TIP3   OH229070   3.235   6.380   4.487 -0.2300 -0.2194 -0.3602
 2552TIP3    H129071   3.230   6.297   4.440  1.7263 -1.5882  1.7593
 2552TIP3    H229072   3.324   6.410   4.472  0.1589 -0.2652  1.7525
 2553TIP3   OH229073   1.817   3.298   0.133 -0.0630 -0.3677 -0.2409
 2553TIP3    H129074   1.834   3.223   0.076 -0.1965 -0.1080 -0.6194
 2553TIP3    H229075   1.721   3.305   0.135 -0.0301  0.3367 -0.9105
 2554TIP3   OH229076   0.508   2.209   3.169  0.5597 -0.6944 -0.1691
 2554TIP3    H129077   0.575   2.197   3.236  1.3147 -1.3838 -1.0339
 2554TIP3    H229078   0.503   2.304   3.158  0.7245 -0.5970  0.5660
 2555TIP3   OH229079   4.561   3.135  15.242 -0.0427 -0.0145 -0.8129
 2555TIP3    H129080   4.550   3.209  15.303 -3.2656 -0.7068 -0.4700
 2555TIP3    H229081   4.548   3.174  15.156  0.3563  0.1927 -0.7831
 2556TIP3   OH229082   4.500   3.134  16.713 -0.4567  0.4942  0.0713
 2556TIP3    H129083   4.435   3.127  16.643  0.1947 -0.1224 -0.4861
 2556TIP3    H229084   4.576   3.174  16.670 -0.4816  1.2453  0.7265
 2557TIP3   OH229085   0.705   4.600   3.750 -0.0857 -0.1168 -0.4389
 2557TIP3    H129086   0.730   4.657   3.823 -2.2374  0.7692 -0.3377
 2557TIP3    H229087   0.752   4.634   3.675 -0.3178  0.9777 -0.0970
 2558TIP3   OH229088   4.685   5.567  15.423 -0.4860  0.0796 -0.3543
 2558TIP3    H129089   4.778   5.572  15.403 -0.7965  1.4524 -1.6165
 2558TIP3    H229090   4.674   5.485  15.470  1.5093  0.3916  0.6844
 2559TIP3   OH229091   0.924   5.485  14.136 -0.6880  0.1647  0.1227
 2559TIP3    H129092   0.996   5.457  14.192 -0.5075 -2.6545 -1.4463
 2559TIP3    H229093   0.957   5.565  14.095  0.6511  0.1692  1.1516
 2560TIP3   OH229094   0.892   4.389  15.774  0.6527 -0.2337  0.2444
 2560TIP3    H129095   0.796   4.383  15.768  0.7648 -2.3421 -0.0204
 2560TIP3    H229096   0.918   4.432  15.693 -0.0907  0.5711  0.4261
 2561TIP3   OH229097   6.027   5.237   3.387  0.2765  0.2336  0.1255
 2561TIP3    H129098   5.942   5.224   3.346  0.1552  0.1918  0.3837
 2561TIP3    H229099   6.067   5.150   3.386 -0.2183 -0.0253  1.1595
 2562TIP3   OH229100   1.195   4.111   1.226 -0.1763  0.1851  0.1186
 2562TIP3    H129101   1.133   4.110   1.153 -0.7862 -1.3314  0.6293
 2562TIP3    H229102   1.280   4.129   1.185 -0.7966  1.3018 -0.7065
 2563TIP3   OH229103   1.897   4.657   4.404  0.1741  0.1154 -0.0290
 2563TIP3    H129104   1.881   4.750   4.390 -0.7437 -0.1207 -0.5280
 2563TIP3    H229105   1.931   4.652   4.494 -0.6428  0.8210  0.3220
 2564TIP3   OH229106   4.520   4.818   0.929 -0.6879 -0.1886  0.3802
 2564TIP3    H129107   4.426   4.827   0.940 -0.3464  1.6912  2.2009
 2564TIP3    H229108   4.557   4.888   0.983  1.7869 -1.6933  0.7253
 2565TIP3   OH229109   0.881   2.029   4.407 -0.4283  0.4056 -0.1646
 2565TIP3    H129110   0.946   2.091   4.439 -0.6085 -0.5589  2.1852
 2565TIP3    H229111   0.800   2.079   4.403 -0.3533  0.6093  0.7129
 2566TIP3   OH229112   5.976   5.802  13.823  0.3091 -0.3669  0.0987
 2566TIP3    H129113   5.927   5.831  13.746  0.3272  0.2400  0.3179
 2566TIP3    H229114   5.909   5.775  13.886  0.2601  0.3008  0.3347
 2567TIP3   OH229115   6.684   4.557  14.254  0.4241  0.2911  0.1511
 2567TIP3    H129116   6.762   4.522  14.296 -1.4941 -1.3645  2.5198
 2567TIP3    H229117   6.655   4.488  14.194  0.0499  0.3367  0.2772
 2568TIP3   OH229118   4.215   1.819   5.305 -0.1199 -0.3377 -0.3420
 2568TIP3    H129119   4.179   1.902   5.275 -0.1237  0.4534  1.7112
 2568TIP3    H229120   4.307   1.839   5.324 -0.1333 -0.7847  0.2026
 2569TIP3   OH229121   2.220   1.372   1.366  0.0103 -0.4579  0.0460
 2569TIP3    H129122   2.168   1.299   1.334 -0.1006  0.2076 -1.3567
 2569TIP3    H229123   2.284   1.388   1.296  0.5169  0.2951  0.6724
 2570TIP3   OH229124   3.704   2.642  12.882  0.3012  0.1902 -0.1925
 2570TIP3    H129125   3.689   2.721  12.934  0.6612  0.1399 -0.0131
 2570TIP3    H229126   3.747   2.581  12.942 -1.8254 -0.8916  0.2845
 2571TIP3   OH229127   3.538   3.789  12.539 -0.3771 -0.0993 -0.5392
 2571TIP3    H129128   3.489   3.712  12.566 -1.3158  1.3184  2.0122
 2571TIP3    H229129   3.540   3.844  12.618  1.8566  1.6425 -1.7740
 2572TIP3   OH229130   2.047   3.885   2.230 -0.6909 -0.6076 -0.2546
 2572TIP3    H129131   2.032   3.933   2.311 -0.7906 -0.6837 -0.2289
 2572TIP3    H229132   1.963   3.887   2.185 -1.3476 -2.8036  0.8105
 2573TIP3   OH229133   0.798   4.038   6.169 -0.3715 -0.1817  0.1437
 2573TIP3    H129134   0.753   3.986   6.236 -0.7185 -0.6562 -0.4512
 2573TIP3    H229135   0.776   3.995   6.087  1.2761 -0.5169 -0.1527
 2574TIP3   OH229136   0.892   1.005  14.973  0.6219  0.0891  0.3506
 2574TIP3    H129137   0.913   1.098  14.986 -0.1967 -0.0165  2.7211
 2574TIP3    H229138   0.973   0.959  14.995  0.9834  0.2122 -0.6809
 2575TIP3   OH229139   5.805   2.338   4.651  0.1838 -0.0730 -0.0442
 2575TIP3    H129140   5.865   2.340   4.725  2.0852  0.4062 -1.5734
 2575TIP3    H229141   5.823   2.255   4.607  1.3470  1.0753 -1.7925
 2576TIP3   OH229142   1.176   4.573  16.679  0.3285  0.3294  0.2632
 2576TIP3    H129143   1.263   4.533  16.678 -1.2220 -3.2288 -2.9582
 2576TIP3    H229144   1.174   4.626  16.599 -1.1535 -1.2164 -0.7339
 2577TIP3   OH229145   0.555   1.692   2.365  0.4476 -0.3060  0.1327
 2577TIP3    H129146   0.464   1.697   2.337  0.7766  0.8945 -0.7338
 2577TIP3    H229147   0.587   1.609   2.330 -0.1810 -0.5088  0.0473
 2578TIP3   OH229148   2.408   0.236  13.881  0.3757  0.4262  0.5854
 2578TIP3    H129149   2.441   0.259  13.794  0.3481 -0.1924  0.4072
 2578TIP3    H229150   2.385   0.320  13.921 -0.3460  0.6557 -0.2993
 2579TIP3   OH229151   0.697   3.080   1.080 -0.6163 -0.4817 -0.3015
 2579TIP3    H129152   0.642   3.117   1.011  1.6583  0.7483 -1.5156
 2579TIP3    H229153   0.649   3.098   1.161 -1.7412  1.0447 -1.2837
 2580TIP3   OH229154   5.961   2.892   2.546  0.1107  0.1407 -0.3434
 2580TIP3    H129155   5.904   2.926   2.616  0.5785 -0.8500  0.5248
 2580TIP3    H229156   6.048   2.925   2.569  0.7532 -2.4295  1.0562
 2581TIP3   OH229157   4.335   4.363  14.337  0.3900 -0.5949  0.1135
 2581TIP3    H129158   4.425   4.369  14.306  0.6705 -1.1991  0.8039
 2581TIP3    H229159   4.314   4.270  14.332  0.3975 -0.6919  1.5885
 2582TIP3   OH229160   1.859   3.462  12.967 -0.2753 -0.7633 -0.4143
 2582TIP3    H129161   1.816   3.544  12.943  0.2030 -0.6385 -0.8473
 2582TIP3    H229162   1.950   3.474  12.940  0.1167 -0.8810  0.8337
 2583TIP3   OH229163   2.187   1.755  13.206 -0.3092 -0.2619  0.2839
 2583TIP3    H129164   2.231   1.688  13.260 -0.7946 -0.5124  0.3680
 2583TIP3    H229165   2.146   1.813  13.270  0.2092  0.1831  0.2129
 2584TIP3   OH229166   3.961   6.385   6.091 -0.3325 -0.3270 -0.4697
 2584TIP3    H129167   4.042   6.409   6.136 -0.5787  1.2558 -0.8405
 2584TIP3    H229168   3.915   6.329   6.154  1.6485 -2.3845 -0.7988
 2585TIP3   OH229169   0.924   3.974  10.598 -0.3787 -0.2803  0.1890
 2585TIP3    H129170   0.844   4.011  10.637 -2.1518 -1.5821 -2.0544
 2585TIP3    H229171   0.948   4.037  10.529  0.0424 -0.3088  0.3114
 2586TIP3   OH229172   4.680   5.059  11.828  0.2932  0.4371 -0.0588
 2586TIP3    H129173   4.692   5.150  11.799 -0.0752  0.2849 -0.6899
 2586TIP3    H229174   4.617   5.022  11.766  2.5646 -1.0849 -1.5255
 2587TIP3   OH229175   4.051   2.319   2.238 -0.7874 -0.2492  0.0908
 2587TIP3    H129176   4.117   2.271   2.287 -1.3069 -0.4578  0.5943
 2587TIP3    H229177   3.977   2.327   2.299 -0.5634  1.5167  0.1693
 2588TIP3   OH229178   1.824   3.737  13.476  0.3025  0.0890 -0.1517
 2588TIP3    H129179   1.889   3.789  13.524 -0.1623 -0.9067  1.6180
 2588TIP3    H229180   1.798   3.668  13.538 -2.0424  0.1519 -0.9896
 2589TIP3   OH229181   6.231   5.145  16.439 -0.1571  0.3842  0.0649
 2589TIP3    H129182   6.151   5.160  16.389 -0.7272  0.5370  1.0114
 2589TIP3    H229183   6.291   5.105  16.377 -0.8448  0.5967 -0.7477
 2590TIP3   OH229184   2.967   4.732   0.206 -0.1336  0.7631 -0.0307
 2590TIP3    H129185   2.957   4.658   0.266 -1.9538  0.4444 -0.6795
 2590TIP3    H229186   3.057   4.726   0.175  0.6147  0.5057  2.0987
 2591TIP3   OH229187   3.935   0.093   0.100 -0.4801 -0.6516  0.2441
 2591TIP3    H129188   3.886   0.019   0.137 -1.3805  0.0432  0.4467
 2591TIP3    H229189   3.935   0.159   0.169 -1.1184  0.1821 -0.5471
 2592TIP3   OH229190   3.089   2.274  13.654 -0.6355  0.3518 -0.1252
 2592TIP3    H129191   3.100   2.362  13.619 -1.4339  0.7058  0.5086
 2592TIP3    H229192   3.017   2.281  13.717  0.4540 -0.3786  1.2212
 2593TIP3   OH229193   4.483   3.767  14.572 -0.2946 -0.2507 -0.3030
 2593TIP3    H129194   4.539   3.698  14.606  0.9014  1.0628  0.4413
 2593TIP3    H229195   4.424   3.787  14.644 -0.3817 -0.2123 -0.3851
 2594TIP3   OH229196   1.150   0.922  11.862  0.2906  0.4232 -0.2623
 2594TIP3    H129197   1.118   0.985  11.796  0.5947 -0.2705 -1.0834
 2594TIP3    H229198   1.244   0.917  11.846  0.0066 -1.6791 -1.4814
 2595TIP3   OH229199   1.150   6.341  14.089 -0.0526 -0.4137  0.2285
 2595TIP3    H129200   1.228   6.386  14.056 -0.5871 -0.9334 -1.7783
 2595TIP3    H229201   1.182   6.254  14.116  0.2154 -0.3242  0.2015
 2596TIP3   OH229202   1.036   4.336   5.763  0.2565 -0.2387 -0.0059
 2596TIP3    H129203   0.968   4.269   5.773 -0.4287  0.3217 -0.8881
 2596TIP3    H229204   1.053   4.366   5.852 -1.3613  0.3155  0.1237
 2597TIP3   OH229205   5.181   4.962  14.787 -0.0882  0.0534  0.3668
 2597TIP3    H129206   5.113   5.030  14.779  0.5132  0.6691  0.4259
 2597TIP3    H229207   5.183   4.922  14.700 -1.1674 -0.5980  0.6270
 2598TIP3   OH229208   3.215   5.791  10.801  0.2468  0.6667  0.4856
 2598TIP3    H129209   3.129   5.781  10.841  0.6247  0.3234  1.2289
 2598TIP3    H229210   3.197   5.803  10.708 -0.5220 -1.1156  0.3856
 2599TIP3   OH229211   1.210   5.823   1.974 -0.1846 -0.1977  0.4189
 2599TIP3    H129212   1.273   5.797   1.907 -0.7010  1.2457 -0.6534
 2599TIP3    H229213   1.209   5.750   2.035 -0.2011 -1.8556 -1.5051
 2600TIP3   OH229214   4.203   3.624   5.454 -0.2670 -0.1464  0.4202
 2600TIP3    H129215   4.154   3.590   5.379  0.5836 -1.1972  0.3290
 2600TIP3    H229216   4.205   3.719   5.440  0.7336 -0.4214 -1.4051
 2601TIP3   OH229217   4.023   3.669  13.216  0.7181 -0.0677  0.2916
 2601TIP3    H129218   4.065   3.628  13.141 -1.0779 -2.5995  0.5742
 2601TIP3    H229219   4.083   3.654  13.289  1.3220  0.1913 -0.1546
 2602TIP3   OH229220   2.935   0.268  15.009  0.0972 -0.2229  0.4348
 2602TIP3    H129221   2.840   0.274  14.994  0.0388  0.9690  1.1535
 2602TIP3    H229222   2.971   0.246  14.924 -0.7387  0.4239 -0.0968
 2603TIP3   OH229223   2.213   2.408  16.880  0.0147  0.2798 -0.0385
 2603TIP3    H129224   2.136   2.353  16.893 -0.1156  0.5660  0.3918
 2603TIP3    H229225   2.287   2.355  16.910  0.1118 -0.4202 -1.4921
 2604TIP3   OH229226   3.986   3.200   2.805 -0.0515 -0.2104 -0.1673
 2604TIP3    H129227   3.931   3.139   2.854  0.6566 -2.0743 -1.5888
 2604TIP3    H229228   4.011   3.267   2.868 -2.6395 -0.2009  0.8861
 2605TIP3   OH229229   6.179   4.629   0.884 -0.4811  0.5072  0.0630
 2605TIP3    H129230   6.258   4.676   0.911  0.4311 -1.8336  1.6277
 2605TIP3    H229231   6.107   4.684   0.915  0.5575  0.8991  1.8700
 2606TIP3   OH229232   1.501   0.681   2.518  0.3506 -0.5816 -0.7319
 2606TIP3    H129233   1.479   0.774   2.515  1.7850 -0.2108  0.1669
 2606TIP3    H229234   1.416   0.636   2.510 -0.3181  0.7836 -1.3907
 2607TIP3   OH229235   0.757   5.238   2.302 -0.1752 -0.3826  0.3737
 2607TIP3    H129236   0.669   5.274   2.293 -0.1808 -0.4168  0.2981
 2607TIP3    H229237   0.784   5.264   2.390  0.0987  0.4228  0.0521
 2608TIP3   OH229238   1.566   3.748  16.337  0.1761 -0.6848  0.3009
 2608TIP3    H129239   1.623   3.810  16.383  0.1326 -0.4742  0.0672
 2608TIP3    H229240   1.620   3.669  16.327  0.8446 -0.0630 -1.0239
 2609TIP3   OH229241   0.188   3.928  11.486  0.0526  0.1300  0.2973
 2609TIP3    H129242   0.273   3.960  11.454  1.0352 -0.4586  2.2463
 2609TIP3    H229243   0.202   3.835  11.501 -0.8448  0.0995  0.9361
 2610TIP3   OH229244   4.743   1.649  15.668  0.5469  0.7767 -0.1578
 2610TIP3    H129245   4.822   1.701  15.682  0.2216  1.8065 -1.9454
 2610TIP3    H229246   4.717   1.669  15.578 -1.0007 -0.5816 -0.0395
 2611TIP3   OH229247   3.016   1.440  13.103 -0.0004 -0.2589 -0.4655
 2611TIP3    H129248   2.976   1.525  13.082  0.6020  0.0394 -0.4272
 2611TIP3    H229249   2.945   1.389  13.142 -0.4671  0.0924 -0.8433
 2612TIP3   OH229250   6.170   2.803  14.289  0.0569  0.4364  0.0423
 2612TIP3    H129251   6.129   2.780  14.372  1.0358 -0.5361  0.2584
 2612TIP3    H229252   6.105   2.780  14.223  0.2756 -1.1466  0.3778
 2613TIP3   OH229253   6.687   0.216   4.462  0.2363 -0.2645  0.0204
 2613TIP3    H129254   6.707   0.252   4.549 -2.1704  2.8002 -0.6078
 2613TIP3    H229255   6.701   0.290   4.402  1.2300 -2.1647 -2.1430
 2614TIP3   OH229256   6.503   4.554   1.729  0.2773 -0.0166 -0.2945
 2614TIP3    H129257   6.574   4.527   1.671  1.2449 -0.2343  0.9770
 2614TIP3    H229258   6.442   4.480   1.728 -1.1212  1.1185 -3.2291
 2615TIP3   OH229259   0.823   5.452  13.904 -0.0635  0.0491  0.0574
 2615TIP3    H129260   0.818   5.544  13.878 -1.9060 -0.3001 -0.8308
 2615TIP3    H229261   0.859   5.455  13.993  1.4246  1.5201 -0.5599
 2616TIP3   OH229262   1.010   3.708   4.004  0.0746 -0.3594 -0.2850
 2616TIP3    H129263   1.059   3.791   4.006 -0.3875 -0.0657 -1.0965
 2616TIP3    H229264   0.922   3.733   4.032  0.3190 -0.8543  0.9787
 2617TIP3   OH229265   2.339   2.975   2.937 -0.0528  0.3946 -0.0661
 2617TIP3    H129266   2.393   3.036   2.887 -0.9100 -0.5518 -2.2402
 2617TIP3    H229267   2.335   3.012   3.025 -0.7728  3.6520 -1.3841
 2618TIP3   OH229268   1.417   3.756   4.053 -0.0901  0.2498  0.6213
 2618TIP3    H129269   1.507   3.776   4.028  0.2150  0.8665  2.1501
 2618TIP3    H229270   1.370   3.839   4.043 -0.0188  0.4414  1.8268
 2619TIP3   OH229271   3.465   0.456  11.870 -0.9389  0.0743  0.1850
 2619TIP3    H129272   3.556   0.471  11.894 -0.7146 -1.2576  0.2333
 2619TIP3    H229273   3.469   0.388  11.803 -1.7251  2.0024 -1.8692
 2620TIP3   OH229274   3.929   6.126  16.466  0.0077  0.2265  0.5311
 2620TIP3    H129275   3.997   6.184  16.502  1.3585  0.3326 -2.1042
 2620TIP3    H229276   3.943   6.129  16.372  0.4679 -4.8357  0.3192
 2621TIP3   OH229277   1.911   0.343  14.669  0.0205  0.3098 -0.3201
 2621TIP3    H129278   1.905   0.355  14.763 -0.5864  0.2141 -0.3420
 2621TIP3    H229279   1.830   0.297  14.645  0.4352 -0.1822 -0.8047
 2622TIP3   OH229280   2.799   2.089  16.920  0.2051  0.8796  0.1812
 2622TIP3    H129281   2.874   2.102  16.861  0.2046 -1.1202 -0.2749
 2622TIP3    H229282   2.836   2.102  17.008  0.9865  0.3962 -0.0685
 2623TIP3   OH229283   2.518   5.747  12.336 -0.5801 -0.1434  0.2076
 2623TIP3    H129284   2.476   5.816  12.388 -2.3672  0.3238 -1.8041
 2623TIP3    H229285   2.578   5.705  12.398  0.1636  2.8244  1.6365
 2624TIP3   OH229286   0.709   1.482  15.344  0.4454 -0.0681 -0.1990
 2624TIP3    H129287   0.741   1.403  15.301  1.4418  0.6448 -0.7977
 2624TIP3    H229288   0.713   1.549  15.276 -0.9567  0.3583  0.1373
 2625TIP3   OH229289   0.277   5.310  15.507 -0.1578  0.2831  0.0031
 2625TIP3    H129290   0.205   5.349  15.458 -2.0555 -1.6176  1.1879
 2625TIP3    H229291   0.328   5.262  15.442  0.6200  2.3895 -0.9932
 2626TIP3   OH229292   5.830   5.994  12.797 -0.6477  0.2901 -0.2569
 2626TIP3    H129293   5.792   5.908  12.779 -1.9632  0.8944 -0.4126
 2626TIP3    H229294   5.804   6.047  12.722 -0.4443  1.0117  0.1839
 2627TIP3   OH229295   5.256   3.695  14.413  0.1989 -0.0753 -0.3327
 2627TIP3    H129296   5.167   3.707  14.448  0.7655  0.1159  1.0980
 2627TIP3    H229297   5.294   3.628  14.470  2.0932  2.2466  1.1860
 2628TIP3   OH229298   4.049   5.977   5.692 -0.1242  0.7713 -0.0142
 2628TIP3    H129299   4.006   5.892   5.693  1.6777 -0.1799 -0.5625
 2628TIP3    H229300   4.090   5.985   5.779  2.0481 -0.1982 -0.9026
 2629TIP3   OH229301   5.258   0.977  12.238  0.4288  0.1983 -0.2220
 2629TIP3    H129302   5.317   1.050  12.259  1.1216 -0.6507  0.8824
 2629TIP3    H229303   5.218   1.001  12.155  2.0845  0.9531 -0.8171
 2630TIP3   OH229304   1.339   5.517  12.853  0.0346 -0.1018 -0.8437
 2630TIP3    H129305   1.390   5.549  12.778 -0.8004 -0.9519 -1.7797
 2630TIP3    H229306   1.356   5.423  12.856  0.5409  0.0231  0.4088
 2631TIP3   OH229307   1.776   6.176   1.382 -0.6750 -0.5963 -0.2987
 2631TIP3    H129308   1.860   6.205   1.419 -1.3209  1.4649 -0.4136
 2631TIP3    H229309   1.712   6.238   1.416 -2.2841 -2.4983  0.2612
 2632TIP3   OH229310   4.692   1.222  14.866 -0.5725 -0.2116 -0.0750
 2632TIP3    H129311   4.716   1.146  14.813 -0.5901  0.5155 -1.1438
 2632TIP3    H229312   4.664   1.288  14.802 -2.1370  0.1305  0.9407
 2633TIP3   OH229313   2.050   3.283  15.547  0.0443  0.0975 -0.2312
 2633TIP3    H129314   1.996   3.244  15.616  2.0540 -1.2025  0.6616
 2633TIP3    H229315   2.138   3.285  15.583  0.7442  1.5172 -1.9279
 2634TIP3   OH229316   0.340   2.126  16.286  0.7263  0.1560  0.0893
 2634TIP3    H129317   0.273   2.070  16.326  1.2321  0.0290  0.7826
 2634TIP3    H229318   0.294   2.206  16.261 -0.2780 -1.0996 -2.1670
 2635TIP3   OH229319   1.896   0.580   5.451 -0.3317  0.0217 -0.5388
 2635TIP3    H129320   1.864   0.491   5.437 -0.8565  0.2628 -0.8846
 2635TIP3    H229321   1.917   0.583   5.545 -1.8370  0.0097 -0.1777
 2636TIP3   OH229322   5.523   1.357  13.767  0.3290 -0.5403  0.0190
 2636TIP3    H129323   5.428   1.362  13.771  0.3682 -1.0636  3.5710
 2636TIP3    H229324   5.542   1.269  13.733 -0.4593 -1.0557  0.9028
 2637TIP3   OH229325   6.225   3.952  14.252  0.3011  0.1736  0.2775
 2637TIP3    H129326   6.298   4.005  14.219 -0.5289  1.2069  0.0606
 2637TIP3    H229327   6.156   4.016  14.272 -0.1288 -0.6745  1.6080
 2638TIP3   OH229328   2.985   1.634   5.424 -0.8770  0.4473 -0.2004
 2638TIP3    H129329   2.906   1.683   5.448 -0.8199  0.5621 -0.2476
 2638TIP3    H229330   3.031   1.619   5.507 -1.7064 -0.9384  0.0350
 2639TIP3   OH229331   6.639   6.604  11.086 -0.7201  0.3130 -0.2264
 2639TIP3    H129332   6.571   6.670  11.102  0.0548  0.7945  1.0748
 2639TIP3    H229333   6.700   6.613  11.159  0.4061 -0.5659 -1.0406
 2640TIP3   OH229334   0.425   5.205   2.563  0.0391  0.1530  0.0787
 2640TIP3    H129335   0.483   5.157   2.503  0.3952 -0.8114  1.1687
 2640TIP3    H229336   0.374   5.262   2.507  0.4971 -0.6113 -1.1290
 2641TIP3   OH229337   2.436   2.663  13.990  0.0909 -0.3529 -0.3696
 2641TIP3    H129338   2.341   2.670  13.989 -0.0397 -2.0206 -1.3746
 2641TIP3    H229339   2.465   2.728  13.926 -0.3499  0.3708  0.1608
 2642TIP3   OH229340   1.309   2.119   1.526  0.6458 -0.1972 -0.2187
 2642TIP3    H129341   1.350   2.132   1.440  0.2694  1.8127 -0.1355
 2642TIP3    H229342   1.222   2.084   1.506  0.1092  1.3894 -0.7423
 2643TIP3   OH229343   0.705   6.433  11.477 -0.2274  0.3143  0.1072
 2643TIP3    H129344   0.623   6.390  11.503 -0.8364  0.4505 -1.5091
 2643TIP3    H229345   0.772   6.367  11.493 -0.8273 -0.3117  0.0940
 2644TIP3   OH229346   0.049   5.360  16.459 -0.0211  0.9855 -0.1814
 2644TIP3    H129347   0.061   5.390  16.369  0.5258 -1.8008 -1.0991
 2644TIP3    H229348  -0.040   5.326  16.462  0.8267 -1.3718 -0.4732
 2645TIP3   OH229349   1.997   3.326  15.260  0.4612 -0.1265 -0.6568
 2645TIP3    H129350   2.064   3.339  15.193  1.2274  0.3669  0.1954
 2645TIP3    H229351   2.027   3.378  15.335 -1.0290  0.3719 -0.3726
 2646TIP3   OH229352   0.464   1.687  11.898 -0.9756  0.5124 -0.7696
 2646TIP3    H129353   0.475   1.782  11.904 -0.7935  0.4831 -0.6196
 2646TIP3    H229354   0.505   1.653  11.978  0.9160  0.1583 -1.8392
 2647TIP3   OH229355   4.226   1.640   1.711 -0.5455  0.0233 -0.0779
 2647TIP3    H129356   4.228   1.735   1.699 -3.4622  0.2094  0.4585
 2647TIP3    H229357   4.136   1.615   1.689 -0.6847 -2.2113  2.6927
 2648TIP3   OH229358   0.033   4.387  13.891  0.6058  0.2067 -0.4745
 2648TIP3    H129359   0.003   4.299  13.914  1.1951  0.2537  0.4794
 2648TIP3    H229360   0.099   4.373  13.824  0.3209 -0.0480 -0.7036
 2649TIP3   OH229361   2.974   5.236   6.612  0.3534 -0.9083 -0.0806
 2649TIP3    H129362   2.963   5.181   6.689 -0.6730 -0.4294  0.1320
 2649TIP3    H229363   2.884   5.255   6.583  0.7082 -0.1216 -0.6909
 2650TIP3   OH229364   5.003   2.228  15.055 -0.2733  0.2738  0.0282
 2650TIP3    H129365   4.963   2.195  15.135 -1.5969 -0.0535 -0.7652
 2650TIP3    H229366   5.086   2.180  15.048  0.8481  1.7808  2.2821
 2651TIP3   OH229367   1.004   1.690   1.824  0.1974  0.4318  0.5726
 2651TIP3    H129368   1.085   1.659   1.865  0.9583  0.4230 -0.9091
 2651TIP3    H229369   0.992   1.778   1.859  1.4975  0.8944 -0.1141
 2652TIP3   OH229370   4.922   6.730  13.355 -0.0925 -0.6067 -0.8203
 2652TIP3    H129371   4.847   6.783  13.332  1.0950  0.8571 -1.4043
 2652TIP3    H229372   4.969   6.781  13.421  0.9980 -0.9732 -1.2850
 2653TIP3   OH229373   2.023   0.680   5.186 -0.2760  0.1098 -0.2190
 2653TIP3    H129374   1.979   0.637   5.259 -0.5635  0.2599 -0.3035
 2653TIP3    H229375   2.113   0.693   5.216  0.0045 -1.2220 -0.4681
 2654TIP3   OH229376   4.003   2.354  17.137 -0.4729  0.2312 -0.3392
 2654TIP3    H129377   3.909   2.373  17.134 -0.5450 -0.4053 -4.2291
 2654TIP3    H229378   4.011   2.263  17.107  1.3577 -0.0085  0.7394
 2655TIP3   OH229379   1.150   1.261  13.805 -0.0973 -0.2633  0.0424
 2655TIP3    H129380   1.089   1.284  13.735 -1.6998  0.5957  1.6639
 2655TIP3    H229381   1.143   1.166  13.814  0.3776 -0.4194 -1.1733
 2656TIP3   OH229382   3.453   5.482  15.651  0.5949  0.2346 -0.2768
 2656TIP3    H129383   3.364   5.454  15.631  0.5211  0.8323 -0.8236
 2656TIP3    H229384   3.453   5.498  15.745  0.3906 -0.6930 -0.1158
 2657TIP3   OH229385   0.627   1.728   2.987  0.1842 -0.2312  0.4380
 2657TIP3    H129386   0.624   1.703   2.894  0.3100 -1.5650  0.7819
 2657TIP3    H229387   0.679   1.658   3.028 -0.4806 -0.0216  1.6348
 2658TIP3   OH229388   3.355   4.497  15.934  0.0473  0.5768  0.3225
 2658TIP3    H129389   3.337   4.423  15.993  0.7153  0.9744  1.0372
 2658TIP3    H229390   3.335   4.464  15.847 -1.9566  0.2878  0.8531
 2659TIP3   OH229391   2.658   5.206   4.760 -0.3133  0.2628 -0.2522
 2659TIP3    H129392   2.585   5.247   4.806 -0.9990  0.0515 -1.1371
 2659TIP3    H229393   2.734   5.258   4.786 -0.6760  0.1186  1.1507
 2660TIP3   OH229394   5.894   0.694  12.012 -0.0189  0.2817  0.9794
 2660TIP3    H129395   5.853   0.720  11.929  0.4244  2.3567  1.3607
 2660TIP3    H229396   5.917   0.602  12.001 -0.0608  0.5125 -1.1708
 2661TIP3   OH229397   0.804   3.281  11.601 -0.6026  0.4208  0.0624
 2661TIP3    H129398   0.722   3.322  11.626  0.5189  0.3135  4.2882
 2661TIP3    H229399   0.811   3.204  11.658  1.7280 -0.3908 -1.2392
 2662TIP3   OH229400   4.335   0.018  10.633 -0.4690  0.2017  0.1542
 2662TIP3    H129401   4.311  -0.067  10.669 -0.9727 -0.4061 -1.5945
 2662TIP3    H229402   4.307   0.015  10.542 -0.9214  2.4188  0.1845
 2663TIP3   OH229403   0.489   6.260   2.158 -0.3193 -0.2835 -0.7272
 2663TIP3    H129404   0.578   6.294   2.165 -0.8946  1.6171 -2.0919
 2663TIP3    H229405   0.496   6.168   2.182  1.6523  0.3293  1.1767
 2664TIP3   OH229406   4.459   1.646  13.557  0.9024  0.2771 -0.4502
 2664TIP3    H129407   4.392   1.597  13.510  0.9743 -2.5158  2.1985
 2664TIP3    H229408   4.451   1.618  13.648  2.8169  3.1617  0.7163
 2665TIP3   OH229409   0.446   1.232   4.768 -0.1560 -0.4623  0.0304
 2665TIP3    H129410   0.511   1.207   4.834  0.4760  2.7779  0.7287
 2665TIP3    H229411   0.365   1.245   4.819  0.1270  1.2340  0.0652
 2666TIP3   OH229412   4.640   3.606   3.590  0.5214  0.3919  0.2653
 2666TIP3    H129413   4.697   3.670   3.547  0.2829 -0.4490 -1.3232
 2666TIP3    H229414   4.568   3.594   3.529  0.4571 -1.2355  0.6473
 2667TIP3   OH229415   4.672   2.901  15.343 -0.0576  0.7534 -0.7442
 2667TIP3    H129416   4.624   2.961  15.286 -2.7511 -0.1975  0.4028
 2667TIP3    H229417   4.653   2.932  15.432  0.2097 -0.5488 -0.2080
 2668TIP3   OH229418   4.346   0.518   1.843  0.2709  0.1892 -0.4146
 2668TIP3    H129419   4.411   0.549   1.906  0.2835  0.6071 -0.6381
 2668TIP3    H229420   4.396   0.500   1.763 -0.1391  2.0938 -1.1189
 2669TIP3   OH229421   6.212   1.804  16.894  0.2209  0.5221  0.2282
 2669TIP3    H129422   6.238   1.881  16.944 -1.3664  1.3181 -0.1508
 2669TIP3    H229423   6.202   1.735  16.959  0.2028  1.0088  0.7438
 2670TIP3   OH229424   2.163   5.973  11.539  0.4407 -0.6906 -0.4107
 2670TIP3    H129425   2.211   5.952  11.459 -0.0604 -1.6313 -0.4765
 2670TIP3    H229426   2.215   5.933  11.609  0.8954  0.1580 -0.2499
 2671TIP3   OH229427   5.982   1.273  17.203  0.1214  0.1503  0.0633
 2671TIP3    H129428   5.954   1.192  17.161 -0.8217  0.6861 -0.3553
 2671TIP3    H229429   5.946   1.268  17.292  1.4403 -0.6155  0.5817
 2672TIP3   OH229430   5.510   5.509  14.234 -0.2291  0.5942 -0.0367
 2672TIP3    H129431   5.586   5.514  14.175 -0.5825  0.3031 -0.5217
 2672TIP3    H229432   5.519   5.423  14.276 -1.4291 -0.3370 -1.6581
 2673TIP3   OH229433   1.263   2.235  14.830  0.5329  0.3949 -0.3848
 2673TIP3    H129434   1.340   2.183  14.807 -0.0046 -0.0861 -1.1576
 2673TIP3    H229435   1.203   2.172  14.870  0.6773  0.8387  0.5420
 2674TIP3   OH229436   2.629   6.494  14.219 -0.3992 -0.0807 -0.6794
 2674TIP3    H129437   2.540   6.512  14.190 -0.5130  0.4143 -0.0257
 2674TIP3    H229438   2.674   6.579  14.212 -0.2080 -0.1388 -0.2032
 2675TIP3   OH229439   4.044   3.099  14.192  0.3557  0.0072  0.2254
 2675TIP3    H129440   3.952   3.119  14.174  0.0909 -0.9507  0.5119
 2675TIP3    H229441   4.083   3.184  14.212 -0.6219  0.3355  0.7783
 2676TIP3   OH229442   6.459   1.494   3.206  0.7599 -0.4024  0.4532
 2676TIP3    H129443   6.512   1.465   3.131  0.1076 -4.2537  1.3761
 2676TIP3    H229444   6.416   1.574   3.175  2.9809 -0.1368 -2.1632
 2677TIP3   OH229445   5.681   6.048  11.098 -0.3131 -0.1059  0.0067
 2677TIP3    H129446   5.718   5.962  11.117  0.5464  0.0446 -0.9228
 2677TIP3    H229447   5.632   6.072  11.177  0.7741 -0.7485  0.8822
 2678TIP3   OH229448   3.494   2.185  16.178  0.1888 -0.6273 -0.2058
 2678TIP3    H129449   3.452   2.099  16.180  1.4486 -1.2657 -0.6360
 2678TIP3    H229450   3.505   2.204  16.085 -0.9179  0.4295 -0.1392
 2679TIP3   OH229451   3.181   1.982  13.300 -0.2424 -0.1869  0.0503
 2679TIP3    H129452   3.210   1.961  13.211 -0.0396 -0.5571  0.2015
 2679TIP3    H229453   3.180   1.897  13.345  0.9003  0.1584  0.7550
 2680TIP3   OH229454   6.246   0.886  15.298  0.3879  0.5399  0.0482
 2680TIP3    H129455   6.153   0.881  15.321  0.3632 -0.5949 -0.2708
 2680TIP3    H229456   6.258   0.817  15.234  0.7668  2.7863 -2.3659
 2681TIP3   OH229457   2.963   3.567   5.126  1.2469 -0.5871 -0.2871
 2681TIP3    H129458   3.017   3.598   5.198  0.0147 -1.3637  1.0081
 2681TIP3    H229459   2.891   3.630   5.122  0.9321 -0.9487 -0.3623
 2682TIP3   OH229460   3.686   3.207   5.844 -0.1163  0.3541 -0.0142
 2682TIP3    H129461   3.645   3.131   5.802 -1.8564  1.7328 -0.8688
 2682TIP3    H229462   3.732   3.252   5.773 -2.5957  2.3766 -0.4088
 2683TIP3   OH229463   2.321   1.628  12.526 -0.3895 -0.2258 -1.2318
 2683TIP3    H129464   2.289   1.696  12.586  0.2582 -0.3644 -0.7247
 2683TIP3    H229465   2.415   1.644  12.519 -0.8150  1.3047 -4.1857
 2684TIP3   OH229466   5.607   0.722  10.380  0.3172  0.4954  0.6904
 2684TIP3    H129467   5.536   0.659  10.370 -0.1444  1.1816 -0.4232
 2684TIP3    H229468   5.597   0.783  10.306  1.8460  0.8076  0.7131
 2685TIP3   OH229469   1.970   0.545  16.301  0.4798 -0.0065 -0.6897
 2685TIP3    H129470   1.918   0.625  16.287  0.8397  0.0522 -1.7334
 2685TIP3    H229471   2.038   0.572  16.363 -1.7053 -0.5115  1.9942
 2686TIP3   OH229472   4.889   1.912  13.493  0.2353 -0.0741  0.2954
 2686TIP3    H129473   4.916   1.941  13.406 -0.1440  0.2234  0.2730
 2686TIP3    H229474   4.817   1.851  13.477  0.7104 -0.6503  0.3650
 2687TIP3   OH229475   4.271   5.944   5.873  0.6319 -0.2601 -0.3423
 2687TIP3    H129476   4.302   5.886   5.943 -1.7249 -1.0735  0.0787
 2687TIP3    H229477   4.300   6.031   5.899  1.0320 -0.7520  0.9136
 2688TIP3   OH229478   2.100   5.851  14.984  0.3974 -0.0298 -0.2561
 2688TIP3    H129479   2.178   5.796  14.972 -0.7372 -2.0651  1.3615
 2688TIP3    H229480   2.029   5.799  14.946 -0.7608  0.1047  1.6644
 2689TIP3   OH229481   0.735   3.565  12.893  0.3777 -0.3180 -0.4187
 2689TIP3    H129482   0.687   3.483  12.879 -1.6609  0.9170 -0.9225
 2689TIP3    H229483   0.765   3.590  12.805  0.2835 -0.1049 -0.3902
 2690TIP3   OH229484   5.716   2.393  15.277 -0.5978 -0.2441  0.1635
 2690TIP3    H129485   5.659   2.316  15.285  1.0530 -1.5663 -0.5345
 2690TIP3    H229486   5.789   2.375  15.337  1.1871 -0.5281 -2.0282
 2691TIP3   OH229487   1.608   0.696   2.843 -0.2280  0.2908  0.3744
 2691TIP3    H129488   1.572   0.764   2.785 -2.0989 -0.8054  0.2027
 2691TIP3    H229489   1.653   0.745   2.911  3.3706  1.6035 -2.7765
 2692TIP3   OH229490   2.883   6.767  16.701  0.1205 -0.2288  0.2576
 2692TIP3    H129491   2.888   6.757  16.606  0.1161 -2.4610  0.4659
 2692TIP3    H229492   2.790   6.781  16.719 -0.1018 -1.4148  0.0623
 2693TIP3   OH229493   4.674   3.174  12.524 -0.1255  0.1607 -0.4375
 2693TIP3    H129494   4.601   3.214  12.573  0.2636 -0.9453  1.0659
 2693TIP3    H229495   4.719   3.119  12.588  0.3843 -1.3520 -2.0623
 2694TIP3   OH229496   4.666   4.900  17.157  0.6081 -0.2025  0.1353
 2694TIP3    H129497   4.618   4.854  17.226  3.2050 -3.0242  0.1822
 2694TIP3    H229498   4.716   4.968  17.203 -0.2597  0.1367  0.5829
 2695TIP3   OH229499   5.656   4.204   5.988  0.5254 -0.4473  0.3315
 2695TIP3    H129500   5.741   4.161   5.982  0.1634 -1.0017 -1.1853
 2695TIP3    H229501   5.616   4.167   6.067  1.2637 -0.9695  0.4686
 2696TIP3   OH229502   3.124   2.541  14.492  0.6034 -0.0405 -0.1724
 2696TIP3    H129503   3.196   2.501  14.443  0.0991 -1.6259  0.3738
 2696TIP3    H229504   3.045   2.509  14.449  0.1908  1.3493 -0.4922
 2697TIP3   OH229505   2.320   1.988   5.891 -0.5003 -0.9882 -0.1362
 2697TIP3    H129506   2.394   1.978   5.831  0.0152  0.7817  0.1772
 2697TIP3    H229507   2.253   1.928   5.857  0.3395 -1.1253 -1.5834
 2698TIP3   OH229508   1.606   6.000   5.999 -0.4464  0.2168 -0.0412
 2698TIP3    H129509   1.656   5.944   6.058 -0.0433 -0.8891 -1.3937
 2698TIP3    H229510   1.515   5.972   6.010 -0.4628  0.4965  0.5573
 2699TIP3   OH229511   6.742   4.242   6.367 -0.2473 -0.2296  0.1337
 2699TIP3    H129512   6.767   4.305   6.299 -0.3576 -0.1879  0.1311
 2699TIP3    H229513   6.706   4.168   6.319 -0.4247 -0.1558  0.1482
 2700TIP3   OH229514   5.017   4.567   3.015 -0.6320  0.2285  0.1664
 2700TIP3    H129515   4.939   4.581   3.069  0.4361  0.2022  1.7573
 2700TIP3    H229516   5.068   4.503   3.064 -0.9087 -1.9163 -2.2426
 2701TIP3   OH229517   5.921   5.370   1.830  0.5174  0.5642 -0.2024
 2701TIP3    H129518   5.994   5.312   1.851 -0.5549 -1.1414 -1.0485
 2701TIP3    H229519   5.960   5.457   1.822  2.2496 -0.1353  0.4931
 2702TIP3   OH229520   5.892   2.583  13.920 -0.2947  0.0947 -0.4152
 2702TIP3    H129521   5.830   2.513  13.943 -0.8758  0.8948  0.5060
 2702TIP3    H229522   5.847   2.634  13.853  0.6107 -1.0952 -1.9498
 2703TIP3   OH229523   4.930   2.273  16.858 -0.2072  0.3992  0.0596
 2703TIP3    H129524   4.941   2.236  16.946  0.6934  1.4510  0.4095
 2703TIP3    H229525   5.004   2.334  16.849 -1.1224  1.3902 -0.8643
 2704TIP3   OH229526   1.410   0.275  11.891  0.0042 -0.3578  0.3903
 2704TIP3    H129527   1.471   0.342  11.923 -1.7221  2.2248 -1.4981
 2704TIP3    H229528   1.345   0.325  11.841 -4.0042 -2.9077  2.7908
 2705TIP3   OH229529   4.479   5.393   1.261  0.0078  0.3794  0.0366
 2705TIP3    H129530   4.562   5.346   1.271  0.0295  0.5109  0.5033
 2705TIP3    H229531   4.415   5.340   1.308 -0.3537 -0.1752 -1.0629
 2706TIP3   OH229532   0.782   2.915   1.439  0.0710 -0.1620  0.0500
 2706TIP3    H129533   0.825   2.970   1.504 -1.7255  2.8236 -1.2232
 2706TIP3    H229534   0.795   2.961   1.356 -0.0863 -2.4825 -1.3119
 2707TIP3   OH229535   1.012   4.049   4.243 -0.0881  0.0326  0.4237
 2707TIP3    H129536   0.932   4.100   4.253  0.4362  0.9441  0.0145
 2707TIP3    H229537   1.082   4.108   4.270  0.5020 -0.5489  0.1801
 2708TIP3   OH229538   0.419   6.017  13.903 -0.3487  0.1304 -0.5200
 2708TIP3    H129539   0.403   6.109  13.883 -1.7185 -0.1430 -0.7206
 2708TIP3    H229540   0.333   5.975  13.896 -0.0970 -0.7917  1.5493
 2709TIP3   OH229541   4.191   3.042   3.944  0.3966  0.3708  0.1790
 2709TIP3    H129542   4.188   3.072   4.035 -2.8203  1.0870 -0.1022
 2709TIP3    H229543   4.210   3.121   3.893 -1.8972  0.7796 -0.0731
 2710TIP3   OH229544   5.104   5.016  11.489  0.5231 -0.3039  0.2731
 2710TIP3    H129545   5.135   4.970  11.568 -0.7149 -0.8890  0.4279
 2710TIP3    H229546   5.184   5.046  11.446  1.3047 -1.7283  0.7047
 2711TIP3   OH229547   1.441   4.069  11.739 -0.1306  0.0009  0.1317
 2711TIP3    H129548   1.366   4.049  11.684 -1.2062  1.9950  0.8230
 2711TIP3    H229549   1.407   4.065  11.828  0.7191  0.3901  0.4783
 2712TIP3   OH229550   0.543   4.095   3.361 -0.3416 -0.3561  0.0633
 2712TIP3    H129551   0.570   4.183   3.386  0.5184 -0.5095 -0.2801
 2712TIP3    H229552   0.601   4.072   3.288 -1.5170 -0.6451 -0.8040
 2713TIP3   OH229553   1.028   2.407   1.010 -0.2018 -0.3829  0.4370
 2713TIP3    H129554   1.034   2.472   0.940  0.0541  1.0947  1.8115
 2713TIP3    H229555   0.942   2.422   1.050  0.1145 -0.4781  1.1660
 2714TIP3   OH229556   2.169   2.327   3.076  0.2921 -0.2281  0.4445
 2714TIP3    H129557   2.200   2.410   3.040 -0.1245 -0.2589  0.0070
 2714TIP3    H229558   2.171   2.339   3.171  0.4730  0.1912  0.3870
 2715TIP3   OH229559   4.735   2.383   2.505 -0.6499  0.1119 -0.4112
 2715TIP3    H129560   4.650   2.352   2.534 -0.2765  1.0239  1.7602
 2715TIP3    H229561   4.784   2.304   2.482 -1.1139 -0.6042  1.0500
 2716TIP3   OH229562   2.981   1.258   0.157 -0.0641  0.4831  0.4274
 2716TIP3    H129563   3.061   1.223   0.117  1.2114  1.1553  2.2827
 2716TIP3    H229564   2.948   1.186   0.211  0.0087  0.6092  0.6438
 2717TIP3   OH229565   2.748   4.022  16.576 -0.1526 -0.7062 -0.1797
 2717TIP3    H129566   2.797   4.104  16.587  0.9443 -1.5643  1.5599
 2717TIP3    H229567   2.656   4.049  16.574  0.1575  0.5110  1.1527
 2718TIP3   OH229568   3.625   5.427  17.150 -0.1127 -0.2016  0.4542
 2718TIP3    H129569   3.543   5.463  17.183 -2.5820 -2.4157 -2.8745
 2718TIP3    H229570   3.635   5.344  17.198 -0.0626 -0.1275  0.5697
 2719TIP3   OH229571   4.493   1.887   4.693  0.5749  0.8394 -0.2720
 2719TIP3    H129572   4.401   1.890   4.720  0.4913 -1.4498 -0.2012
 2719TIP3    H229573   4.542   1.905   4.774  0.1990  1.6237 -0.2161
 2720TIP3   OH229574   4.177   3.037   5.559  0.1404 -0.6960 -0.2904
 2720TIP3    H129575   4.147   3.101   5.623 -0.5544 -1.7861  0.4846
 2720TIP3    H229576   4.143   3.069   5.475 -0.1159 -0.0013  0.0755
 2721TIP3   OH229577   3.799   1.007   6.941 -0.0314  0.4045 -0.0380
 2721TIP3    H129578   3.775   1.063   6.868 -0.1106  2.2307  1.3431
 2721TIP3    H229579   3.879   0.963   6.913 -0.3625  0.6749 -1.4136
 2722TIP3   OH229580   5.581   6.616   2.729  0.3109 -0.4250  0.0308
 2722TIP3    H129581   5.556   6.536   2.775 -0.3940 -0.2094  0.0321
 2722TIP3    H229582   5.670   6.599   2.698  0.1724 -1.2055  0.0415
 2723TIP3   OH229583   4.634   5.961  17.068 -0.2836  0.2862 -0.9354
 2723TIP3    H129584   4.689   6.019  17.015 -0.0827 -1.2816 -2.4580
 2723TIP3    H229585   4.694   5.920  17.130  0.1423 -0.8703 -2.1105
 2724TIP3   OH229586   1.897   3.357  12.674  0.7459  0.2491 -0.7094
 2724TIP3    H129587   1.902   3.265  12.648  1.2788 -0.1187  0.6299
 2724TIP3    H229588   1.964   3.366  12.742  0.0281  1.3891 -0.1371
 2725TIP3   OH229589   5.410   0.791   0.370  0.2134  0.0921 -0.1700
 2725TIP3    H129590   5.365   0.725   0.316 -0.0576  0.6587 -0.6438
 2725TIP3    H229591   5.500   0.759   0.377  0.0400 -0.4158 -0.2583
 2726TIP3   OH229592   5.259   2.446  17.022 -0.1037  0.5040 -0.1613
 2726TIP3    H129593   5.248   2.465  16.929 -0.0753  2.1162  0.1512
 2726TIP3    H229594   5.274   2.351  17.026  0.6833  0.5530 -1.8657
 2727TIP3   OH229595   2.980   2.729   2.704  0.3448 -0.0254 -0.0174
 2727TIP3    H129596   3.010   2.698   2.619 -0.9322 -0.1119 -0.4437
 2727TIP3    H229597   2.885   2.736   2.695  0.2672  0.6088  1.1880
 2728TIP3   OH229598   5.176   6.693   4.257  0.2826  0.4571 -0.4932
 2728TIP3    H129599   5.241   6.640   4.212  0.4747  0.2544  0.0158
 2728TIP3    H229600   5.133   6.633   4.318 -1.4170  0.2325 -1.8720
 2729TIP3   OH229601   0.647   3.011  14.657  0.0195 -0.3658 -0.4729
 2729TIP3    H129602   0.618   3.030  14.567 -0.1204  2.0876  0.0398
 2729TIP3    H229603   0.630   2.918  14.669 -1.3155 -0.4152 -2.5058
 2730TIP3   OH229604   2.343   5.119   4.842  0.3134  0.0417  0.0473
 2730TIP3    H129605   2.391   5.197   4.869 -0.7096  0.3267  1.0824
 2730TIP3    H229606   2.407   5.067   4.794  0.8325  1.8065 -1.2167
 2731TIP3   OH229607   3.186   6.585   2.142  0.6134  0.8486  0.5390
 2731TIP3    H129608   3.221   6.604   2.229  1.4800 -0.0035  0.3941
 2731TIP3    H229609   3.242   6.513   2.109  0.9521  1.8380 -1.1272
 2732TIP3   OH229610   3.052   6.738  14.008  0.4218 -0.7081  0.2770
 2732TIP3    H129611   2.966   6.713  13.974  0.8837 -1.2701 -0.5098
 2732TIP3    H229612   3.051   6.833  14.009  0.1136 -0.6969 -0.6071
 2733TIP3   OH229613   4.870   0.653   3.222  0.1353 -0.0196  0.2220
 2733TIP3    H129614   4.876   0.634   3.316  0.1991  0.8303  0.3873
 2733TIP3    H229615   4.938   0.718   3.206 -1.0385  1.1477 -0.0766
 2734TIP3   OH229616   0.417   0.309  14.548 -0.1332 -0.2176 -0.6133
 2734TIP3    H129617   0.391   0.238  14.489 -0.2361 -0.1780 -0.6155
 2734TIP3    H229618   0.364   0.296  14.626  1.7270 -1.7087  0.4520
 2735TIP3   OH229619   5.091   3.076   1.705  0.2572  0.6065  0.4139
 2735TIP3    H129620   5.154   3.017   1.745  1.0407  2.2544  1.6934
 2735TIP3    H229621   5.138   3.116   1.632 -0.2506 -0.2752 -0.4089
 2736TIP3   OH229622   3.390   4.923  12.169 -0.5519  0.1563 -0.0146
 2736TIP3    H129623   3.316   4.962  12.122  0.2167 -0.5811 -1.8855
 2736TIP3    H229624   3.386   4.961  12.257 -2.4968  0.9541 -0.4290
 2737TIP3   OH229625   2.220   4.112  10.684  0.7794 -0.2189 -0.4283
 2737TIP3    H129626   2.270   4.104  10.766 -0.0444 -1.9974 -0.0785
 2737TIP3    H229627   2.268   4.058  10.621  0.5567 -0.0909 -0.7085
 2738TIP3   OH229628   4.321   1.553  10.176  0.0134  0.1061  0.3804
 2738TIP3    H129629   4.259   1.481  10.162  0.5966 -0.3212 -0.0309
 2738TIP3    H229630   4.302   1.585  10.264 -0.8362  0.0145  0.2334
 2739TIP3   OH229631   4.757   0.185   4.244  0.2472  0.1201 -0.1810
 2739TIP3    H129632   4.806   0.151   4.319  1.1198 -0.6586 -1.0885
 2739TIP3    H229633   4.821   0.188   4.173 -0.9720 -0.7895 -1.3532
 2740TIP3   OH229634   0.880   5.594  15.228 -0.6786  0.4925  0.9349
 2740TIP3    H129635   0.894   5.504  15.260  1.0757  0.6921  0.7701
 2740TIP3    H229636   0.810   5.628  15.284 -0.5929 -0.5987  1.7351
 2741TIP3   OH229637   4.735   5.116  14.630  0.3428 -0.1812 -0.5448
 2741TIP3    H129638   4.663   5.081  14.682 -0.4187  0.6731 -0.9994
 2741TIP3    H229639   4.743   5.207  14.658  2.5845 -0.8215  0.9303
 2742TIP3   OH229640   5.266   4.190   6.174  0.3856 -0.1359 -0.3185
 2742TIP3    H129641   5.176   4.156   6.173  0.6010 -0.6851 -1.5381
 2742TIP3    H229642   5.305   4.152   6.253 -1.0762  1.7826  1.3985
 2743TIP3   OH229643   6.460   0.262  12.995  0.5401  0.0614  0.9377
 2743TIP3    H129644   6.512   0.184  12.978  0.0548 -0.5052  2.0384
 2743TIP3    H229645   6.523   0.335  12.987  1.2140 -0.5180  0.9184
 2744TIP3   OH229646   4.686   6.298  15.984  0.3421 -0.0308 -0.3478
 2744TIP3    H129647   4.704   6.286  15.891  2.0359  0.8668 -0.1657
 2744TIP3    H229648   4.606   6.351  15.986  1.3902  1.6583 -1.3530
 2745TIP3   OH229649   3.995   6.518  12.539  0.7127 -0.6307 -0.2550
 2745TIP3    H129650   4.059   6.534  12.469 -0.4799  0.4004 -1.1263
 2745TIP3    H229651   3.911   6.540  12.500  0.0811  0.4248  1.6571
 2746TIP3   OH229652   0.258   6.660  12.905 -0.0786 -0.1628 -0.1800
 2746TIP3    H129653   0.223   6.586  12.955  1.2144  0.0982  1.1569
 2746TIP3    H229654   0.221   6.737  12.949 -0.8534  0.0104 -1.1260
 2747TIP3   OH229655   0.094   0.834   1.850  0.6159  0.1467  1.2363
 2747TIP3    H129656   0.041   0.754   1.845 -0.3348  0.9028 -4.0221
 2747TIP3    H229657   0.185   0.802   1.844  0.2208 -0.6233 -1.6802
 2748TIP3   OH229658   1.988   6.218   3.371  0.5461  0.2459 -0.1519
 2748TIP3    H129659   1.942   6.212   3.454  1.9979  1.6881  0.7716
 2748TIP3    H229660   2.045   6.141   3.370  1.0852  0.6300  0.5456
 2749TIP3   OH229661   3.534   5.340   2.402  0.2418 -0.0375  0.2616
 2749TIP3    H129662   3.490   5.425   2.410 -0.2222 -0.1989 -0.4940
 2749TIP3    H229663   3.582   5.345   2.319  0.0186 -0.5968  0.0948
 2750TIP3   OH229664   4.503   5.716  15.785 -0.7429 -0.7172 -0.2906
 2750TIP3    H129665   4.534   5.806  15.794  1.4113 -1.4779  0.2335
 2750TIP3    H229666   4.444   5.718  15.710  0.4526  0.8339 -1.2054
 2751TIP3   OH229667   5.132   2.195   4.818  0.4807 -0.4906  0.1471
 2751TIP3    H129668   5.090   2.201   4.904  1.6215  0.1463  0.6713
 2751TIP3    H229669   5.118   2.104   4.791 -0.7526 -0.4270  0.5513
 2752TIP3   OH229670   2.295   1.663   4.030 -0.3667  0.0192  0.2431
 2752TIP3    H129671   2.266   1.712   4.107  2.8646  0.6448  1.1679
 2752TIP3    H229672   2.231   1.594   4.019 -0.9378 -0.0360  3.4749
 2753TIP3   OH229673   0.033   3.372  10.941 -0.1850  0.7661 -0.1526
 2753TIP3    H129674   0.003   3.301  10.998 -1.9016  2.7305  1.4547
 2753TIP3    H229675   0.117   3.399  10.978  0.8705 -0.9302 -1.2527
 2754TIP3   OH229676   6.581   1.833  13.911  0.3347  0.6056 -0.0035
 2754TIP3    H129677   6.537   1.824  13.996  0.5855  0.3885  0.1016
 2754TIP3    H229678   6.578   1.927  13.893  0.6621  0.7028  0.4448
 2755TIP3   OH229679   5.678   4.268   1.895 -0.0700  0.1254 -0.4339
 2755TIP3    H129680   5.740   4.306   1.833 -0.6221 -1.3386 -1.8914
 2755TIP3    H229681   5.710   4.297   1.981  2.0169  0.2713 -1.2316
 2756TIP3   OH229682   5.125   6.380  14.477 -0.3360 -0.6332 -0.2418
 2756TIP3    H129683   5.058   6.366  14.544  1.1725 -2.0083  1.0132
 2756TIP3    H229684   5.075   6.406  14.399 -2.1404  0.6545  1.2782
 2757TIP3   OH229685   2.350   5.925  11.762 -0.4323 -0.6855  0.0880
 2757TIP3    H129686   2.319   6.012  11.786 -0.0412 -0.9292  1.5057
 2757TIP3    H229687   2.442   5.924  11.786 -0.2224 -1.2155 -0.6991
 2758TIP3   OH229688   2.683   1.436   5.177  0.0311 -0.3039 -0.6769
 2758TIP3    H129689   2.658   1.359   5.127  0.7897 -2.1397  1.6972
 2758TIP3    H229690   2.779   1.438   5.171  0.3523 -2.0781  2.8105
 2759TIP3   OH229691   0.555   6.568  12.392 -0.2034  0.1151  0.9884
 2759TIP3    H129692   0.484   6.625  12.362  0.8926  0.4473 -1.0347
 2759TIP3    H229693   0.599   6.618  12.461  1.8487  2.5292 -1.9832
 2760TIP3   OH229694   2.173   5.525   0.089 -0.1055  0.0525  0.3158
 2760TIP3    H129695   2.236   5.481   0.032 -1.5033  0.6462 -1.7058
 2760TIP3    H229696   2.098   5.466   0.093 -0.6132  0.7018  0.3608
 2761TIP3   OH229697   5.960   1.492   1.456 -0.0169 -0.1470  0.5090
 2761TIP3    H129698   5.971   1.444   1.538  0.3127 -0.6300  0.1821
 2761TIP3    H229699   6.038   1.547   1.450 -0.6886  0.9040  1.1936
 2762TIP3   OH229700   3.687   6.377  15.407 -0.4985  0.4521  0.2483
 2762TIP3    H129701   3.645   6.363  15.492 -0.1532  2.1063  0.7222
 2762TIP3    H229702   3.636   6.448  15.368 -0.6745 -0.3292 -0.9526
 2763TIP3   OH229703   3.856   2.079  12.012  0.2275  0.0850 -0.0570
 2763TIP3    H129704   3.942   2.112  11.986  0.2639 -0.9568 -1.3026
 2763TIP3    H229705   3.867   2.053  12.104  0.4773  2.5118  0.6146
 2764TIP3   OH229706   3.910   6.254   3.456 -0.0398  0.4247 -0.3576
 2764TIP3    H129707   3.865   6.292   3.380  0.9375  1.3618 -0.4891
 2764TIP3    H229708   3.948   6.330   3.501  1.6223 -0.3657 -0.4022
 2765TIP3   OH229709   2.859   5.337   4.531 -0.1000  0.3463  0.0628
 2765TIP3    H129710   2.845   5.430   4.518 -1.7941  0.1232  0.0997
 2765TIP3    H229711   2.947   5.330   4.568 -0.2291  1.9743  0.7074
 2766TIP3   OH229712   5.209   3.621  13.230 -0.4903  0.0561 -0.3147
 2766TIP3    H129713   5.285   3.674  13.256  0.0639 -0.5169 -0.7441
 2766TIP3    H229714   5.203   3.634  13.135 -0.5009 -0.4448 -0.3843
 2767TIP3   OH229715   5.879   6.141  16.772  0.0506 -0.0301  0.2036
 2767TIP3    H129716   5.891   6.125  16.678  0.2611  1.2277  0.0130
 2767TIP3    H229717   5.827   6.221  16.776  0.9648  0.5243  1.1732
 2768TIP3   OH229718   5.873   3.383   0.891 -0.0181  0.5743  0.5343
 2768TIP3    H129719   5.894   3.437   0.814  0.2886 -0.0843  0.1495
 2768TIP3    H229720   5.937   3.410   0.957  0.0929  0.7290  0.3652
 2769TIP3   OH229721   1.382   4.394   0.672  0.0257 -0.8780 -0.0074
 2769TIP3    H129722   1.393   4.358   0.760  2.0958 -0.6916 -0.1541
 2769TIP3    H229723   1.294   4.432   0.672  0.2848 -0.2173  2.2173
 2770TIP3   OH229724   4.085   5.755   0.799  0.2444 -0.1069 -0.3688
 2770TIP3    H129725   4.080   5.766   0.894  1.8094  0.4689 -0.3511
 2770TIP3    H229726   4.134   5.831   0.768 -1.4980  0.4721 -1.8044
 2771TIP3   OH229727   0.178   1.069  13.864 -0.0466  0.6761  0.2982
 2771TIP3    H129728   0.184   1.164  13.851  0.1096  0.5767 -0.3906
 2771TIP3    H229729   0.177   1.058  13.959  2.6199  1.2149  0.4146
 2772TIP3   OH229730   1.630   0.838  13.351 -0.9654  0.7469  0.0352
 2772TIP3    H129731   1.550   0.845  13.405 -1.6523 -3.5726 -0.2390
 2772TIP3    H229732   1.605   0.779  13.280  1.5135  2.1576 -2.0491
 2773TIP3   OH229733   3.267   1.284   3.480  0.0784  0.1334 -0.2368
 2773TIP3    H129734   3.228   1.201   3.455  0.6189 -0.0220 -0.5626
 2773TIP3    H229735   3.359   1.277   3.455  0.3102  0.5216  0.4639
 2774TIP3   OH229736   4.052   0.944  11.755 -0.1400 -0.6794  0.3694
 2774TIP3    H129737   4.109   0.994  11.696  0.8684 -2.3395 -0.1126
 2774TIP3    H229738   4.000   0.889  11.697 -0.6661 -0.7841  0.9395
 2775TIP3   OH229739   4.743   3.118  13.204  0.2190  0.1042 -0.2538
 2775TIP3    H129740   4.737   3.164  13.120 -1.1612  1.4641  0.5612
 2775TIP3    H229741   4.669   3.058  13.203  0.4628 -0.1976 -0.1947
 2776TIP3   OH229742   4.509   6.012   1.783  0.4243  0.6237 -0.0613
 2776TIP3    H129743   4.573   6.084   1.785  2.2078 -0.9492  2.4627
 2776TIP3    H229744   4.549   5.947   1.725  1.0815 -0.2898  1.3869
 2777TIP3   OH229745   0.088   6.463  15.036 -0.3939 -0.5936 -0.3732
 2777TIP3    H129746   0.088   6.380  15.084 -1.5530 -0.2954  0.1496
 2777TIP3    H229747  -0.005   6.484  15.024 -0.1209  1.2592  0.6025
 2778TIP3   OH229748   5.801   3.024  10.607 -0.1756  0.5246 -0.4346
 2778TIP3    H129749   5.733   3.082  10.641  0.7384  0.5618  1.3772
 2778TIP3    H229750   5.755   2.943  10.586 -1.1089  1.2133 -1.0511
 2779TIP3   OH229751   3.670   2.525  13.477 -0.1376 -0.0753 -0.2271
 2779TIP3    H129752   3.586   2.491  13.506 -0.7297 -0.0927 -1.8968
 2779TIP3    H229753   3.666   2.521  13.381  1.6551  0.1746 -0.3352
 2780TIP3   OH229754   0.952   1.896  13.728 -0.6816 -0.9524 -0.0823
 2780TIP3    H129755   1.003   1.823  13.692  0.8643 -0.7882  1.7012
 2780TIP3    H229756   0.995   1.975  13.697 -1.0540 -0.8049 -0.2289
 2781TIP3   OH229757   0.816   1.058   4.482  0.3800 -0.0121  0.0292
 2781TIP3    H129758   0.827   1.152   4.470  1.5178 -0.3344 -1.6198
 2781TIP3    H229759   0.727   1.048   4.516  0.4870  1.6946  0.8640
 2782TIP3   OH229760   6.780   5.578  12.105  0.0355 -0.4430 -0.5848
 2782TIP3    H129761   6.737   5.663  12.112 -0.9959 -0.8223 -2.1165
 2782TIP3    H229762   6.802   5.570  12.013  3.9009 -0.0556  0.1993
 2783TIP3   OH229763   0.050   6.165   2.302  0.3076  0.1608 -0.0695
 2783TIP3    H129764   0.102   6.243   2.319  0.3422  0.2212 -0.4488
 2783TIP3    H229765   0.048   6.118   2.386 -0.6969  1.1542  0.4838
 2784TIP3   OH229766   3.445   3.813  15.353 -0.3736 -0.0672  0.0518
 2784TIP3    H129767   3.374   3.869  15.324 -0.3652 -0.1613 -0.1493
 2784TIP3    H229768   3.403   3.747  15.408 -0.2844  0.5901  0.9256
 2785TIP3   OH229769   1.748   6.490   1.598  0.4411  0.0246 -0.0595
 2785TIP3    H129770   1.670   6.545   1.590 -0.1315 -0.5098  1.8091
 2785TIP3    H229771   1.715   6.400   1.592  1.2033 -0.1765 -1.5664
 2786TIP3   OH229772   3.159   1.456  17.095 -0.3896  0.7992 -0.5552
 2786TIP3    H129773   3.166   1.371  17.051 -0.8283 -0.1028  1.0682
 2786TIP3    H229774   3.244   1.466  17.139 -1.8785 -0.9017  2.8803
 2787TIP3   OH229775   6.111   0.541   5.403 -0.2063 -0.0064  0.4604
 2787TIP3    H129776   6.028   0.565   5.363  0.0957  2.8432  1.4765
 2787TIP3    H229777   6.095   0.543   5.497  1.2585  1.5750  0.6974
 2788TIP3   OH229778   5.469   1.524   4.184 -0.0773 -0.4591 -0.0732
 2788TIP3    H129779   5.500   1.572   4.261  0.6241 -0.2227 -0.4988
 2788TIP3    H229780   5.373   1.532   4.188 -0.1839 -2.3723  2.0046
 2789TIP3   OH229781   5.368   5.179   2.604  0.0081  0.2622  0.3728
 2789TIP3    H129782   5.452   5.141   2.581 -1.0559 -1.5314 -0.6902
 2789TIP3    H229783   5.327   5.114   2.661 -0.9641  0.7809  0.2829
 2790TIP3   OH229784   2.719   0.804   1.635 -0.0962  0.0770  0.1118
 2790TIP3    H129785   2.664   0.856   1.575  0.2300 -0.4711 -0.6698
 2790TIP3    H229786   2.768   0.746   1.577  2.0184  1.2200  0.7179
 2791TIP3   OH229787   3.920   3.832  16.103  0.6385 -0.0902 -0.6131
 2791TIP3    H129788   3.914   3.757  16.044 -1.5569  0.2705 -0.9058
 2791TIP3    H229789   3.890   3.798  16.188 -0.9393  0.5781 -0.8874
 2792TIP3   OH229790   5.521   3.380   5.680  0.1072  0.8678 -0.4011
 2792TIP3    H129791   5.608   3.407   5.652  1.0670 -1.5176  0.1628
 2792TIP3    H229792   5.488   3.328   5.606 -0.7773  1.6097 -0.5364
 2793TIP3   OH229793   0.498   0.478  12.308 -0.2991  0.0578  0.1790
 2793TIP3    H129794   0.505   0.559  12.258 -1.2972 -1.3778 -2.3880
 2793TIP3    H229795   0.564   0.421  12.270  2.2075  0.4680  3.7138
 2794TIP3   OH229796   0.487   5.678   5.671  0.0641  0.2839  0.6976
 2794TIP3    H129797   0.428   5.745   5.706  1.6353  2.3733 -0.4847
 2794TIP3    H229798   0.542   5.726   5.608 -0.1473 -2.5591 -1.7511
 2795TIP3   OH229799   0.206   3.379  15.609  0.0313 -0.1323 -0.0625
 2795TIP3    H129800   0.163   3.435  15.544 -0.2231  0.2701  0.4441
 2795TIP3    H229801   0.260   3.319  15.557  0.7247  0.9283 -0.6047
 2796TIP3   OH229802   4.232   4.950   4.073  0.9668  0.4027  0.2475
 2796TIP3    H129803   4.233   5.022   4.010  1.6859 -1.8907 -2.4479
 2796TIP3    H229804   4.321   4.914   4.069  0.3522 -1.2175  0.8483
 2797TIP3   OH229805   3.553   0.475   3.974 -0.5749 -0.4227  0.0501
 2797TIP3    H129806   3.627   0.521   4.012  0.0910  0.4357 -2.2047
 2797TIP3    H229807   3.476   0.517   4.012  0.0520  1.3786 -0.6222
 2798TIP3   OH229808   3.459   4.243  13.554 -0.3067 -0.0024 -0.3313
 2798TIP3    H129809   3.399   4.305  13.596 -0.0383 -0.6274  1.0141
 2798TIP3    H229810   3.529   4.298  13.519 -0.2447  0.4908  0.5484
 2799TIP3   OH229811   2.955   0.404   5.527  0.6159  0.1475 -0.7310
 2799TIP3    H129812   2.870   0.448   5.531 -0.8609 -2.6062 -0.8331
 2799TIP3    H229813   2.990   0.427   5.441 -0.4109  0.6008 -1.0419
 2800TIP3   OH229814   2.174   3.352   5.194  0.0006  0.0802 -0.0515
 2800TIP3    H129815   2.158   3.388   5.107  0.4622  0.9396  0.2103
 2800TIP3    H229816   2.176   3.257   5.182  1.0221  0.2383 -1.1364
 2801TIP3   OH229817   6.557   1.241   3.542  0.6117 -0.1811  0.3736
 2801TIP3    H129818   6.481   1.241   3.600 -0.1232  1.6301 -0.5287
 2801TIP3    H229819   6.592   1.330   3.548  0.4137  0.1162 -2.0179
 2802TIP3   OH229820   0.151   0.948   4.572 -0.5621  0.0931 -0.3397
 2802TIP3    H129821   0.165   1.042   4.578 -2.0591  0.2907  0.2104
 2802TIP3    H229822   0.158   0.917   4.662  0.7180 -0.4620 -0.6057
 2803TIP3   OH229823   2.357   5.894  15.930 -0.8203 -0.0551 -0.0870
 2803TIP3    H129824   2.339   5.988  15.931  0.1148  0.1459  3.1617
 2803TIP3    H229825   2.453   5.888  15.927 -0.7388 -0.8267  2.9403
 2804TIP3   OH229826   4.098   2.164   0.995 -0.1596 -0.0799 -0.0215
 2804TIP3    H129827   4.024   2.103   1.003  0.2046 -0.7375 -1.5467
 2804TIP3    H229828   4.079   2.233   1.059 -0.3042 -2.0389  2.0997
 2805TIP3   OH229829   5.764   3.196   2.053  0.3234 -0.9621 -0.1275
 2805TIP3    H129830   5.691   3.151   2.010  0.2290 -1.3011  0.3958
 2805TIP3    H229831   5.771   3.280   2.005 -1.0508 -0.4983  0.4663
 2806TIP3   OH229832   2.980   1.716  14.977  0.4340 -0.1736 -0.3563
 2806TIP3    H129833   3.007   1.687  14.890  1.8109  1.2689 -0.4104
 2806TIP3    H229834   3.060   1.718  15.029 -0.4567 -1.6095  1.1465
 2807TIP3   OH229835   2.516   5.009   4.626 -0.6371  0.3467  0.1120
 2807TIP3    H129836   2.569   4.954   4.683 -0.8390 -1.1706 -1.1383
 2807TIP3    H229837   2.560   5.094   4.627  1.4535 -0.6926 -0.3891
 2808TIP3   OH229838   5.052   1.455   3.212  0.1517 -0.4155  0.1608
 2808TIP3    H129839   5.142   1.459   3.247  0.4005 -3.5749  0.0201
 2808TIP3    H229840   5.007   1.393   3.270 -1.8103  0.7014 -0.1306
 2809TIP3   OH229841   3.057   4.145   4.075 -0.2719 -0.0426  0.0804
 2809TIP3    H129842   3.069   4.051   4.088 -2.0117 -0.6603 -2.5971
 2809TIP3    H229843   3.144   4.177   4.051  0.2144 -1.0260  0.4971
 2810TIP3   OH229844   6.145   2.071   5.576  0.0857  0.4781 -0.2398
 2810TIP3    H129845   6.211   2.078   5.507 -0.3234  0.4500 -0.6380
 2810TIP3    H229846   6.187   2.109   5.653  0.7611 -0.0296 -0.3491
 2811TIP3   OH229847   4.785   0.347  15.154  0.2590 -0.2678 -0.1796
 2811TIP3    H129848   4.751   0.436  15.162 -0.1825  0.0074 -4.1349
 2811TIP3    H229849   4.880   0.357  15.165  0.0412  0.3650  1.2954
 2812TIP3   OH229850   1.443   3.841   4.757 -0.2538  0.6136 -0.2930
 2812TIP3    H129851   1.393   3.798   4.688 -2.4694  1.6420  0.6058
 2812TIP3    H229852   1.419   3.933   4.750 -1.1436  0.6217  2.3164
 2813TIP3   OH229853   4.755   4.423  11.831  0.2931  0.5934 -0.7832
 2813TIP3    H129854   4.748   4.423  11.735  0.9895  0.0686 -0.8434
 2813TIP3    H229855   4.850   4.421  11.848  0.1792  1.0939 -0.0818
 2814TIP3   OH229856   5.707   2.867   1.018 -0.2505  0.4164 -0.2497
 2814TIP3    H129857   5.700   2.802   0.949  0.6916  0.6449 -0.5760
 2814TIP3    H229858   5.697   2.951   0.973  0.3461  0.5651 -0.1160
 2815TIP3   OH229859   4.085   2.909   1.842 -0.1081 -0.7240  0.0581
 2815TIP3    H129860   4.057   2.979   1.784  2.0598  0.5086  0.4457
 2815TIP3    H229861   4.003   2.868   1.872 -1.4448  2.1429  0.4422
 2816TIP3   OH229862   2.635   3.904   0.573  0.2909 -0.1732  0.3124
 2816TIP3    H129863   2.676   3.911   0.487  0.9599  1.0438  0.7240
 2816TIP3    H229864   2.706   3.918   0.636 -0.0017 -2.0329  1.0996
 2817TIP3   OH229865   6.258   1.188   0.251 -0.3591 -0.2697 -1.2361
 2817TIP3    H129866   6.217   1.272   0.265  0.9101  0.2908 -0.8021
 2817TIP3    H229867   6.223   1.131   0.319 -1.2789 -0.1268 -1.5850
 2818TIP3   OH229868   4.733   3.594   4.630 -0.0484  0.0595 -0.3008
 2818TIP3    H129869   4.802   3.536   4.599 -0.9605 -0.9146 -0.5553
 2818TIP3    H229870   4.778   3.656   4.688  1.1938  0.0921 -1.2783
 2819TIP3   OH229871   3.193   0.878  16.924 -0.6357 -0.3743 -0.6349
 2819TIP3    H129872   3.254   0.856  16.995 -1.4941 -2.8472 -0.6291
 2819TIP3    H229873   3.182   0.973  16.931  0.6225 -0.3457  1.4567
 2820TIP3   OH229874   3.395   2.135   0.368 -0.1544 -0.0384 -0.1107
 2820TIP3    H129875   3.415   2.042   0.381  1.2365  0.1927 -0.5217
 2820TIP3    H229876   3.300   2.137   0.354 -0.4686 -1.1903  1.6854
 2821TIP3   OH229877   3.536   5.911  12.984 -0.5302 -0.1195 -0.2327
 2821TIP3    H129878   3.618   5.942  13.022 -0.8062 -1.7904  1.7918
 2821TIP3    H229879   3.550   5.914  12.889  1.1861  1.3953  0.0491
 2822TIP3   OH229880   2.098   0.283  10.878 -0.6050  0.0626 -0.3622
 2822TIP3    H129881   2.057   0.358  10.920 -0.5753  0.2832 -0.7332
 2822TIP3    H229882   2.145   0.319  10.803 -0.9622 -0.3830 -0.8037
 2823TIP3   OH229883   5.512   3.336  13.986 -0.0752  0.8322  0.2334
 2823TIP3    H129884   5.588   3.394  13.993 -0.2477  1.0653  0.1845
 2823TIP3    H229885   5.452   3.367  14.053 -0.0518  0.5299  0.3951
 2824TIP3   OH229886   1.360   5.847  15.285  0.6435  0.2197 -0.1727
 2824TIP3    H129887   1.398   5.854  15.372  1.4727 -0.4508 -0.4746
 2824TIP3    H229888   1.293   5.779  15.293 -1.5769  2.4497  0.7229
 2825TIP3   OH229889   6.521   5.281   2.302 -0.3406  0.0861 -0.2238
 2825TIP3    H129890   6.513   5.254   2.394 -0.1145  2.1107  0.4294
 2825TIP3    H229891   6.495   5.204   2.252 -1.9471 -0.5746  1.5531
 2826TIP3   OH229892   0.046   5.491   0.697 -0.0125  0.1510 -0.0974
 2826TIP3    H129893   0.004   5.535   0.624 -1.7097 -1.2358  0.0046
 2826TIP3    H229894   0.127   5.456   0.660 -0.5853 -0.0520 -1.1875
 2827TIP3   OH229895   6.240   4.202   5.813 -0.4110 -0.1215 -0.4528
 2827TIP3    H129896   6.187   4.225   5.890 -0.4172  1.7465 -0.9736
 2827TIP3    H229897   6.273   4.114   5.831 -0.9015  0.0575  1.4126
 2828TIP3   OH229898   0.213   2.962   0.212 -0.0952  0.2200  0.8115
 2828TIP3    H129899   0.261   2.916   0.144  1.8333  0.4228  2.0059
 2828TIP3    H229900   0.156   3.023   0.164  2.1482  1.2680 -0.6233
 2829TIP3   OH229901   5.824   4.539  15.414 -0.0262 -0.2301 -0.6151
 2829TIP3    H129902   5.745   4.575  15.454  0.3698  3.6412 -3.0335
 2829TIP3    H229903   5.798   4.452  15.384 -2.2952 -0.4175  1.6993
 2830TIP3   OH229904   5.247   6.362  14.861 -0.8226  0.5356 -0.0990
 2830TIP3    H129905   5.247   6.294  14.928 -0.2641  0.5291 -0.1040
 2830TIP3    H229906   5.160   6.357  14.822 -1.0279  0.3063  0.3859
 2831TIP3   OH229907   3.092   1.431  11.985  0.4740 -0.1965 -0.2956
 2831TIP3    H129908   3.172   1.479  11.967  0.6916 -0.3869  0.1546
 2831TIP3    H229909   3.121   1.341  12.002  0.3883  0.1595  1.9505
 2832TIP3   OH229910   0.658   2.646  15.959  0.1182 -0.0162  0.5027
 2832TIP3    H129911   0.706   2.595  15.895  1.2166  2.9066 -1.1201
 2832TIP3    H229912   0.726   2.687  16.013 -0.5971  1.5321  0.2716
 2833TIP3   OH229913   2.846   3.530  14.281  0.2437  0.4760 -0.0407
 2833TIP3    H129914   2.777   3.464  14.275  0.8580 -0.1801 -0.0435
 2833TIP3    H229915   2.820   3.587  14.353 -0.2151  0.1341  0.0578
 2834TIP3   OH229916   0.809   3.148   2.313 -0.4697 -0.5124  0.3592
 2834TIP3    H129917   0.827   3.063   2.352  2.4161  0.6080  1.6153
 2834TIP3    H229918   0.819   3.134   2.219  0.4829 -1.4496  0.5944
 2835TIP3   OH229919   6.391   3.540   0.512  0.9270  0.0651 -0.0348
 2835TIP3    H129920   6.415   3.565   0.423 -0.3811  1.1595 -0.1026
 2835TIP3    H229921   6.425   3.611   0.567  0.7163 -0.0222  0.2088
 2836TIP3   OH229922   0.145   4.932  15.300  0.3098 -0.2262  0.5006
 2836TIP3    H129923   0.108   4.849  15.268  1.2090 -0.6031  0.4161
 2836TIP3    H229924   0.211   4.905  15.364 -0.6455  0.4882  1.8131
 2837TIP3   OH229925   4.696   6.326  16.562 -0.4763 -0.0033  0.0077
 2837TIP3    H129926   4.675   6.414  16.531  0.8869  0.5854  0.6978
 2837TIP3    H229927   4.689   6.271  16.485 -0.9971  0.7795 -0.5065
 2838TIP3   OH229928   2.006   0.329   4.118 -0.6872  0.2113  0.0988
 2838TIP3    H129929   2.100   0.348   4.116 -0.7088  0.2308 -1.4809
 2838TIP3    H229930   1.964   0.412   4.096 -1.0161 -0.1409 -0.6254
 2839TIP3   OH229931   2.800   4.458   1.195  0.7177 -0.1467  0.2792
 2839TIP3    H129932   2.891   4.479   1.215  0.6468  1.2155 -0.7442
 2839TIP3    H229933   2.750   4.528   1.238  0.2529 -0.0705 -0.3755
 2840TIP3   OH229934   5.582   5.974  12.317  0.3444  0.7309  0.0646
 2840TIP3    H129935   5.578   6.019  12.401  0.8967 -0.5443  0.7914
 2840TIP3    H229936   5.609   5.885  12.339 -0.2552  0.1734 -1.3868
 2841TIP3   OH229937   4.213   0.785   5.252 -0.6195  0.5261  0.7662
 2841TIP3    H129938   4.211   0.768   5.158 -1.4082 -1.9868  1.2054
 2841TIP3    H229939   4.124   0.814   5.273 -0.3635  1.3666  0.6867
 2842TIP3   OH229940   0.597   2.142   1.352  0.5273  0.3282 -0.1372
 2842TIP3    H129941   0.603   2.046   1.351 -0.9334  0.1715 -4.1560
 2842TIP3    H229942   0.504   2.160   1.366  0.7246  1.1629  0.1314
 2843TIP3   OH229943   0.209   5.035  13.042  0.1675  0.4115  0.1178
 2843TIP3    H129944   0.161   4.965  12.998 -1.3120  2.3689 -1.4665
 2843TIP3    H229945   0.291   5.042  12.993 -0.2965  0.7263 -0.6313
 2844TIP3   OH229946   1.911   3.393   3.212 -0.1499 -0.0966 -0.3397
 2844TIP3    H129947   1.940   3.358   3.296 -0.8309 -2.0756 -0.9120
 2844TIP3    H229948   1.952   3.480   3.207  0.1111 -0.0737  1.8971
 2845TIP3   OH229949   2.100   6.385  14.815  0.7651  0.0351  0.5949
 2845TIP3    H129950   2.119   6.396  14.722  3.9641  0.7314  1.2390
 2845TIP3    H229951   2.132   6.298  14.836 -0.7868 -0.4807  0.8771
 2846TIP3   OH229952   6.157   3.032   2.357 -1.0804 -0.0184  0.6086
 2846TIP3    H129953   6.110   3.114   2.372 -1.9717 -0.8123  2.3633
 2846TIP3    H229954   6.165   2.994   2.445 -0.1261 -1.5001 -0.1171
 2847TIP3   OH229955   5.428   3.782   0.329  0.1968  0.7625 -0.2739
 2847TIP3    H129956   5.471   3.792   0.414  0.7335 -2.8233 -0.0384
 2847TIP3    H229957   5.338   3.757   0.351 -0.2723  1.9214 -0.7986
 2848TIP3   OH229958   3.583   2.991   5.685  0.3044  0.0502 -0.1072
 2848TIP3    H129959   3.510   2.990   5.624  1.1729  1.5139 -1.2075
 2848TIP3    H229960   3.617   2.901   5.684 -1.3252 -0.5738  0.2388
 2849TIP3   OH229961   6.214   1.180   6.750 -0.0809 -0.1884  0.7320
 2849TIP3    H129962   6.273   1.128   6.695 -0.0027  0.0259  0.6153
 2849TIP3    H229963   6.131   1.132   6.748  0.2388 -0.7836  1.3299
 2850TIP3   OH229964   1.118   5.005   2.132  0.0232 -0.2551  0.2848
 2850TIP3    H129965   1.112   5.052   2.215 -1.6525 -0.1473  0.1340
 2850TIP3    H229966   1.028   5.007   2.097 -0.1713 -3.7822  0.3905
 2851TIP3   OH229967   6.053   1.042   5.101 -0.2639  0.2793  0.1833
 2851TIP3    H129968   6.019   1.110   5.160 -1.3045 -0.3206  0.2754
 2851TIP3    H229969   5.976   1.008   5.056  0.1615 -1.3420  0.6551
 2852TIP3   OH229970   5.669   2.995   5.957  1.3061 -0.1233  0.9382
 2852TIP3    H129971   5.655   2.976   6.050  0.3114 -1.7684  0.4738
 2852TIP3    H229972   5.741   2.936   5.932  0.5375 -0.8057  0.3076
 2853TIP3   OH229973   1.218   1.887  11.101 -0.6475  0.3977 -0.2442
 2853TIP3    H129974   1.214   1.974  11.061 -2.7062  0.0411 -0.8929
 2853TIP3    H229975   1.232   1.903  11.194 -1.9787  1.4701 -0.2236
 2854TIP3   OH229976   5.718   6.760  16.178 -0.0398 -0.2534 -0.1482
 2854TIP3    H129977   5.676   6.706  16.244 -1.3187 -0.3747 -1.0412
 2854TIP3    H229978   5.723   6.847  16.218  0.5854 -0.6674  0.6798
 2855TIP3   OH229979   2.215   5.829   0.976  0.0068  0.2082  0.1129
 2855TIP3    H129980   2.127   5.793   0.969 -1.0728  2.6102  0.5979
 2855TIP3    H229981   2.266   5.783   0.910 -1.5766 -1.3244 -0.0632
 2856TIP3   OH229982   4.973   1.649  12.248  0.2898 -0.7994 -0.3803
 2856TIP3    H129983   5.003   1.632  12.338 -0.9949 -0.5229  0.1058
 2856TIP3    H229984   5.054   1.648  12.196  0.7464 -4.0118  0.2736
 2857TIP3   OH229985   6.758   1.978   4.418  0.1576 -0.4981  0.0279
 2857TIP3    H129986   6.832   1.982   4.479 -0.3502  1.1629  0.5651
 2857TIP3    H229987   6.691   1.930   4.466 -0.3439  1.0586  0.9151
 2858TIP3   OH229988   1.659   5.620  13.870  0.7162  0.4861 -0.7301
 2858TIP3    H129989   1.569   5.589  13.880 -0.0342  2.1690 -2.0004
 2858TIP3    H229990   1.652   5.696  13.812  2.8032  1.4305  0.1981
 2859TIP3   OH229991   5.763   1.648   1.250  0.0449  0.3096  0.2060
 2859TIP3    H129992   5.790   1.715   1.187 -0.3503  1.1786  0.9551
 2859TIP3    H229993   5.811   1.569   1.223 -0.5228  0.5203 -1.5198
 2860TIP3   OH229994   0.262   2.740  16.678 -0.1421 -0.5697 -0.3936
 2860TIP3    H129995   0.353   2.739  16.708 -0.5460 -0.6192  0.8626
 2860TIP3    H229996   0.266   2.701  16.590  1.4248  1.9602 -1.5179
 2861TIP3   OH229997   6.188   1.154   1.348 -0.1519  0.2319  0.4291
 2861TIP3    H129998   6.145   1.100   1.282  1.1106 -1.3248  0.8512
 2861TIP3    H229999   6.231   1.223   1.298  1.2415 -1.2437 -0.4456
 2862TIP3   OH230000   3.170   2.189  14.620 -0.5452  0.3973  0.2397
 2862TIP3    H130001   3.170   2.111  14.675 -1.8213 -0.1713 -0.5224
 2862TIP3    H230002   3.236   2.172  14.553  1.1313  1.1625  1.6396
 2863TIP3   OH230003   6.678   0.420  17.154  0.3666 -0.3267 -0.3260
 2863TIP3    H130004   6.617   0.347  17.148  0.5747 -0.6556  1.4934
 2863TIP3    H230005   6.657   0.463  17.237 -0.2979  2.1683 -1.7155
 2864TIP3   OH230006   0.227   0.404  14.128 -0.0991 -0.3389 -0.1159
 2864TIP3    H130007   0.165   0.467  14.091 -0.8436 -0.2297  1.2680
 2864TIP3    H230008   0.304   0.409  14.071 -0.3817  1.3708 -0.3654
 2865TIP3   OH230009   4.303   5.285  13.235  0.0141 -0.1825 -0.2245
 2865TIP3    H130010   4.285   5.195  13.262 -1.2975  0.2677  0.4315
 2865TIP3    H230011   4.216   5.325  13.224  0.5815  0.9875 -0.5749
 2866TIP3   OH230012   2.730   0.168   2.082 -0.2901 -0.3824 -0.0971
 2866TIP3    H130013   2.670   0.242   2.075 -0.5884 -0.2864  2.8437
 2866TIP3    H230014   2.791   0.179   2.009 -1.4707  1.7066 -0.8012
 2867TIP3   OH230015   0.586   0.082  16.541  0.2466 -0.8061 -0.2868
 2867TIP3    H130016   0.646   0.151  16.569  0.3178 -1.1156  0.3367
 2867TIP3    H230017   0.536   0.060  16.620 -2.0109  0.7417 -1.2026
 2868TIP3   OH230018   3.939   5.971  16.079 -0.1878 -0.1146 -0.4026
 2868TIP3    H130019   3.888   6.034  16.028 -0.6702 -0.5077 -0.4075
 2868TIP3    H230020   3.986   6.025  16.143 -0.4827  0.2624 -0.5043
 2869TIP3   OH230021   6.625   3.557   2.083  0.1515  0.2414 -0.0991
 2869TIP3    H130022   6.682   3.619   2.037  0.5793 -1.0113 -1.2579
 2869TIP3    H230023   6.536   3.580   2.055  0.4560 -0.9327 -2.0735
 2870TIP3   OH230024   1.541   3.220   4.164  0.0084  0.1628 -0.1085
 2870TIP3    H130025   1.483   3.290   4.193  1.1682  1.2494 -0.3532
 2870TIP3    H230026   1.566   3.175   4.244  2.1639  2.3310  0.5031
 2871TIP3   OH230027   1.582   6.373  12.972 -0.7187 -0.1803  0.5901
 2871TIP3    H130028   1.489   6.352  12.966 -0.7348  0.4032 -1.4654
 2871TIP3    H230029   1.608   6.340  13.058 -2.0211 -3.6474 -0.2256
 2872TIP3   OH230030   5.039   4.693  17.074  0.4221 -0.6930 -0.2315
 2872TIP3    H130031   4.950   4.671  17.048  0.9161 -0.7378 -1.9410
 2872TIP3    H230032   5.090   4.614  17.057  1.0930 -0.1449 -0.8065
 2873TIP3   OH230033   0.013   3.596   0.847  0.8067  0.4759 -0.6203
 2873TIP3    H130034   0.033   3.678   0.892  1.6343 -0.2252  0.3136
 2873TIP3    H230035  -0.071   3.568   0.885 -0.0110  1.4084 -1.6982
 2874TIP3   OH230036   4.262   4.302  11.283 -0.5886  0.1690  0.5777
 2874TIP3    H130037   4.221   4.217  11.264  0.2706  0.0984 -1.0628
 2874TIP3    H230038   4.198   4.349  11.336 -1.9949 -0.6413 -0.4006
 2875TIP3   OH230039   2.274   4.999  16.556 -0.0209  0.3501 -0.1551
 2875TIP3    H130040   2.331   5.054  16.609  0.4724  0.0572 -0.3810
 2875TIP3    H230041   2.207   4.967  16.617  1.1608 -0.8645  0.5442
 2876TIP3   OH230042   1.681   0.076  16.526 -0.3578  0.3308 -1.2271
 2876TIP3    H130043   1.599   0.126  16.523 -0.4648  0.3148  0.8724
 2876TIP3    H230044   1.696   0.060  16.619  1.1790 -1.0964 -1.6981
 2877TIP3   OH230045   6.465   3.060  15.311  0.3499  0.5762  0.0510
 2877TIP3    H130046   6.496   2.971  15.326 -0.9228  0.1241  0.0726
 2877TIP3    H230047   6.499   3.110  15.384  1.9172  0.3292 -0.4914
 2878TIP3   OH230048   5.327   4.020   5.947 -0.3314  0.6864  0.0217
 2878TIP3    H130049   5.335   4.086   6.016  0.0868  0.4058  0.2487
 2878TIP3    H230050   5.274   3.951   5.986 -1.3266  1.1821 -0.4429
 2879TIP3   OH230051   6.148   4.431  11.784  0.1579 -0.5401  0.2238
 2879TIP3    H130052   6.222   4.372  11.765  0.0915 -0.3225 -0.7080
 2879TIP3    H230053   6.113   4.398  11.868  0.3954 -1.5598 -0.0627
 2880TIP3   OH230054   4.276   4.514   5.021 -0.6483  0.0808 -0.2519
 2880TIP3    H130055   4.191   4.471   5.029 -0.5804 -0.0023  0.0440
 2880TIP3    H230056   4.256   4.605   5.000 -0.8279  0.1889  0.3673
 2881TIP3   OH230057   4.007   2.537  15.406  0.4599  0.4861  0.0542
 2881TIP3    H130058   4.096   2.511  15.428  0.8279 -0.3039 -2.2433
 2881TIP3    H230059   4.015   2.629  15.380  0.7325  0.2287 -0.7934
 2882TIP3   OH230060   1.218   0.825   6.049  0.5638 -0.0834  0.4118
 2882TIP3    H130061   1.210   0.848   6.141  0.2384 -0.8280  0.5760
 2882TIP3    H230062   1.164   0.746   6.039  0.2101  0.2632 -0.5093
 2883TIP3   OH230063   2.819   6.091   2.122  0.1287 -0.1210  0.5458
 2883TIP3    H130064   2.885   6.108   2.190  1.4828 -0.4805 -0.6494
 2883TIP3    H230065   2.767   6.171   2.119  0.7391  0.3086  1.2531
 2884TIP3   OH230066   4.997   6.429  13.955 -0.0567  0.1048  0.1159
 2884TIP3    H130067   4.974   6.520  13.940 -1.6241 -0.0610  1.3364
 2884TIP3    H230068   5.050   6.430  14.034  0.7949  0.0546 -0.4477
 2885TIP3   OH230069   6.080   2.701   4.842 -0.3730  0.7104  0.0940
 2885TIP3    H130070   6.010   2.753   4.883  0.6361  0.7384  1.8166
 2885TIP3    H230071   6.161   2.744   4.868  0.3861 -0.5017 -0.2181
 2886TIP3   OH230072   4.007   3.106  17.121 -0.1814  0.1625  0.0934
 2886TIP3    H130073   4.085   3.110  17.176  0.9548  3.1508 -1.6454
 2886TIP3    H230074   4.041   3.089  17.033 -1.4898  1.2278 -0.6358
 2887TIP3   OH230075   2.249   5.683   1.740  0.5977  0.0025  0.3112
 2887TIP3    H130076   2.219   5.773   1.724  0.2348  0.1342  1.6845
 2887TIP3    H230077   2.344   5.691   1.749  0.5759  0.2309  0.3405
 2888TIP3   OH230078   4.721   0.628  11.323  0.7526 -0.3346 -0.0603
 2888TIP3    H130079   4.683   0.638  11.236 -0.3947  2.1254  0.6889
 2888TIP3    H230080   4.714   0.715  11.363  1.9549 -1.2373  2.2118
 2889TIP3   OH230081   3.451   0.134   4.360  1.0418  0.4060  1.0671
 2889TIP3    H130082   3.463   0.046   4.395 -0.3363  0.1516  0.9559
 2889TIP3    H230083   3.527   0.149   4.305  0.0165 -1.7793 -1.0342
 2890TIP3   OH230084   4.351   0.098  16.743 -0.3577 -0.0539 -0.5010
 2890TIP3    H130085   4.316   0.059  16.823 -0.0702 -1.7272 -1.1721
 2890TIP3    H230086   4.440   0.126  16.767  0.0763 -1.4106 -0.4793
 2891TIP3   OH230087   2.782   6.440   5.760 -0.4317 -0.3370  0.3315
 2891TIP3    H130088   2.809   6.504   5.827 -0.3000 -1.3417  1.2548
 2891TIP3    H230089   2.858   6.432   5.703 -0.8562  1.1908 -0.4606
 2892TIP3   OH230090   5.424   2.471  13.552  0.3576 -0.2002 -0.3890
 2892TIP3    H130091   5.402   2.379  13.536 -0.4082  0.1881 -1.7023
 2892TIP3    H230092   5.431   2.509  13.464  1.1705  0.8848  0.1300
 2893TIP3   OH230093   2.752   6.159  16.720 -0.4020  0.1629 -0.4596
 2893TIP3    H130094   2.761   6.249  16.752 -0.8345  0.3916 -0.9536
 2893TIP3    H230095   2.731   6.107  16.797  0.1578  0.4353 -0.1203
 2894TIP3   OH230096   5.603   5.051   4.840  0.0648  0.6619  0.0875
 2894TIP3    H130097   5.635   5.020   4.755 -1.1976  1.3275 -0.6411
 2894TIP3    H230098   5.657   5.004   4.904 -1.5767 -2.8166 -0.9712
 2895TIP3   OH230099   4.074   6.168  13.802 -0.2868  0.4426 -0.0595
 2895TIP3    H130100   4.090   6.233  13.872 -1.1623 -0.3572  0.9003
 2895TIP3    H230101   3.990   6.194  13.765  0.3004  1.0164 -1.0019
 2896TIP3   OH230102   5.193   6.596  14.199 -0.1193  0.0833 -0.7566
 2896TIP3    H130103   5.112   6.631  14.236  0.6964  0.7858  0.3925
 2896TIP3    H230104   5.227   6.666  14.143  1.4081  1.1190  1.3857
 2897TIP3   OH230105   0.342   1.620  12.345  0.6296  0.0956  0.4788
 2897TIP3    H130106   0.285   1.650  12.415  0.4727 -1.9017  1.2226
 2897TIP3    H230107   0.429   1.616  12.385  0.4932 -1.3002  0.6335
 2898TIP3   OH230108   5.554   3.682   0.831 -0.1154 -0.6696 -0.4821
 2898TIP3    H130109   5.486   3.750   0.828 -0.0529 -0.6153 -0.7147
 2898TIP3    H230110   5.507   3.603   0.857 -0.0145 -0.3259  0.7868
 2899TIP3   OH230111   4.816   2.866   0.183  0.2557  0.1466 -0.1684
 2899TIP3    H130112   4.815   2.955   0.218  1.0842 -0.0271  0.3067
 2899TIP3    H230113   4.776   2.813   0.251 -0.6781  0.2233 -0.6522
 2900TIP3   OH230114   1.280   3.901  15.199 -0.5690  0.2435 -0.2126
 2900TIP3    H130115   1.216   3.835  15.173  0.0373 -0.0830 -0.8883
 2900TIP3    H230116   1.227   3.977  15.224 -1.2152  0.0770 -1.0454
 2901TIP3   OH230117   2.687   1.976   0.085  0.4164 -0.0998  0.3129
 2901TIP3    H130118   2.763   2.016   0.043 -0.3457 -0.3840 -1.3424
 2901TIP3    H230119   2.614   2.032   0.059 -0.2665 -1.1067  0.0840
 2902TIP3   OH230120   6.606   4.127  12.184 -0.1075  0.3836  0.6956
 2902TIP3    H130121   6.543   4.185  12.142  1.5248  0.6390 -1.4327
 2902TIP3    H230122   6.645   4.180  12.254  1.2234  1.7955 -1.0957
 2903TIP3   OH230123   2.268   6.284  13.672 -0.4441 -0.2929  0.3230
 2903TIP3    H130124   2.286   6.285  13.766  0.0702 -0.2385  0.2274
 2903TIP3    H230125   2.291   6.372  13.642 -3.0091  0.5117  0.5763
 2904TIP3   OH230126   1.022   6.192   0.142 -0.6756 -0.2811 -0.0497
 2904TIP3    H130127   0.928   6.188   0.163 -1.0167  0.7039 -1.3565
 2904TIP3    H230128   1.064   6.148   0.216 -2.3234 -2.8617 -0.5729
 2905TIP3   OH230129   5.129   5.893  13.287 -0.2382 -0.5937  0.1645
 2905TIP3    H130130   5.112   5.875  13.195 -1.0405  0.8157  0.0335
 2905TIP3    H230131   5.042   5.908  13.325  0.1654 -0.2448  0.9609
 2906TIP3   OH230132   3.141   1.066   4.495  0.4530  0.5201 -0.5009
 2906TIP3    H130133   3.121   1.039   4.405  1.3892  0.1020 -0.5933
 2906TIP3    H230134   3.221   1.018   4.517 -0.8627 -0.8732  1.2722
 2907TIP3   OH230135   2.298   4.647   4.060  0.1100 -0.5077 -0.4891
 2907TIP3    H130136   2.235   4.673   4.127 -2.9547 -2.0975 -2.6024
 2907TIP3    H230137   2.243   4.618   3.986  3.3054 -3.4184 -1.8551
 2908TIP3   OH230138   4.184   5.804  13.233  0.6949 -0.6264  0.2662
 2908TIP3    H130139   4.146   5.774  13.150 -0.3011  2.5561 -0.4853
 2908TIP3    H230140   4.169   5.731  13.293 -1.7218 -1.6138 -1.4377
 2909TIP3   OH230141   2.538   5.634   3.813 -0.5497 -0.3820 -0.2341
 2909TIP3    H130142   2.527   5.714   3.864  0.3619 -0.3432 -0.0924
 2909TIP3    H230143   2.559   5.567   3.877 -1.4057 -0.7618 -0.3419
 2910TIP3   OH230144   4.883   5.840   2.301 -0.1150  0.1875  0.5320
 2910TIP3    H130145   4.975   5.813   2.311  0.1780  0.0112 -2.1202
 2910TIP3    H230146   4.839   5.761   2.269 -0.5941  1.0459 -0.9463
 2911TIP3   OH230147   4.329   5.363  12.239  0.1160 -0.1981 -0.0855
 2911TIP3    H130148   4.360   5.443  12.281 -0.9395 -0.8785  2.1101
 2911TIP3    H230149   4.234   5.374  12.235  0.1394 -0.5051 -1.5858
 2912TIP3   OH230150   0.714   6.499   2.916  0.4735  0.0295  0.6143
 2912TIP3    H130151   0.641   6.560   2.921  0.9605  0.4371  3.5901
 2912TIP3    H230152   0.684   6.422   2.964  1.5738 -0.2652  0.8390
 2913TIP3   OH230153   6.039   4.740  11.388  0.2119  0.2907  0.2474
 2913TIP3    H130154   6.129   4.710  11.398  0.2627  0.8494  1.6068
 2913TIP3    H230155   5.993   4.665  11.350  1.1903 -0.0863 -0.2116
 2914TIP3   OH230156   0.415   1.067   0.473 -0.3845 -0.3920 -0.5519
 2914TIP3    H130157   0.448   1.010   0.543 -1.7782  0.3767  0.7742
 2914TIP3    H230158   0.388   1.006   0.404  1.0699 -1.1609 -0.4656
 2915TIP3   OH230159   2.084   0.537   4.677  0.2257  0.5141  0.0967
 2915TIP3    H130160   2.048   0.502   4.595  0.9488 -2.3013  0.9069
 2915TIP3    H230161   2.163   0.584   4.650 -0.6609  1.3649 -1.0352
 2916TIP3   OH230162   1.341   4.006   2.062 -0.3224  0.3031  0.0430
 2916TIP3    H130163   1.331   3.920   2.019  0.3838  0.2483 -0.0133
 2916TIP3    H230164   1.313   4.069   1.996 -0.0783  0.1615 -0.1966
 2917TIP3   OH230165   2.223   0.361  15.157 -0.2665 -0.0245  0.0724
 2917TIP3    H130166   2.141   0.406  15.137 -1.2344 -1.3719  0.9161
 2917TIP3    H230167   2.208   0.321  15.243  0.9317 -1.0625 -0.1853
 2918TIP3   OH230168   5.102   0.030  12.179 -0.0016  0.0486 -0.2064
 2918TIP3    H130169   5.047  -0.041  12.212  0.3686 -1.0232 -1.8275
 2918TIP3    H230170   5.061   0.056  12.096  1.6848 -0.5250 -1.2546
 2919TIP3   OH230171   0.830   0.252   0.892  0.0904  0.3872 -0.3630
 2919TIP3    H130172   0.893   0.323   0.876  0.9570  0.0411  1.4148
 2919TIP3    H230173   0.863   0.208   0.970 -0.3418 -2.0916 -1.5332
 2920TIP3   OH230174   2.388   5.772  13.993  0.3411  0.0313 -0.6320
 2920TIP3    H130175   2.426   5.722  13.920  1.1547 -1.1044  0.5419
 2920TIP3    H230176   2.373   5.859  13.957 -0.7698 -0.9460 -2.6306
 2921TIP3   OH230177   5.874   5.845   2.364  0.2847 -0.6114 -0.0369
 2921TIP3    H130178   5.848   5.935   2.343 -0.7318 -0.4153  1.8750
 2921TIP3    H230179   5.809   5.790   2.320  1.3030 -0.4624 -1.7697
 2922TIP3   OH230180   0.416   6.080  16.277  0.2700 -0.0154  0.0675
 2922TIP3    H130181   0.395   6.155  16.222 -1.3064 -0.2259  0.3552
 2922TIP3    H230182   0.421   6.117  16.366  1.5715  0.1095 -0.0562
 2923TIP3   OH230183   3.220   2.232  13.950 -0.1062 -0.0707 -0.5519
 2923TIP3    H130184   3.164   2.252  13.875 -0.1991  0.7118 -0.2764
 2923TIP3    H230185   3.264   2.315  13.970  1.3698 -0.7251 -0.9412
 2924TIP3   OH230186   2.323   0.742  11.719 -0.1498  0.6422 -0.5767
 2924TIP3    H130187   2.359   0.806  11.780 -0.3068  0.6007 -0.4419
 2924TIP3    H230188   2.386   0.741  11.646  0.6996 -0.2228  0.1535
 2925TIP3   OH230189   2.393   3.462   5.355 -0.1430 -0.1262  0.3432
 2925TIP3    H130190   2.423   3.404   5.426 -0.2179  0.6297  0.9981
 2925TIP3    H230191   2.341   3.405   5.298  1.4027 -1.1566 -0.0806
 2926TIP3   OH230192   1.648   0.206   6.258 -0.0426 -0.4845  0.0155
 2926TIP3    H130193   1.692   0.156   6.326 -0.6820 -0.8194  0.1814
 2926TIP3    H230194   1.612   0.282   6.304 -0.9269 -0.9794  0.1499
 2927TIP3   OH230195   4.871   2.454  10.871  0.3225  0.4886 -0.4961
 2927TIP3    H130196   4.882   2.461  10.776  0.8964  0.7684 -0.4156
 2927TIP3    H230197   4.822   2.532  10.895 -0.5263  0.0171 -0.6591
 2928TIP3   OH230198   6.180   3.069  13.176  0.1351 -0.0596 -0.0809
 2928TIP3    H130199   6.123   3.118  13.234  0.9535  0.3240  0.4171
 2928TIP3    H230200   6.262   3.059  13.225  1.1573  1.0835 -1.5119
 2929TIP3   OH230201   4.718   3.618  14.511  0.0326  0.8561  0.1529
 2929TIP3    H130202   4.762   3.666  14.582 -1.8249 -0.1789  2.0506
 2929TIP3    H230203   4.737   3.526  14.529  1.5315  0.6773 -2.0948
 2930TIP3   OH230204   2.418   6.116   6.214 -0.1605  0.5863 -0.2700
 2930TIP3    H130205   2.324   6.127   6.203 -0.2608 -0.2664 -0.2840
 2930TIP3    H230206   2.444   6.189   6.270 -1.3611 -0.9856  2.4457
 2931TIP3   OH230207   4.662   0.192  12.541 -0.4939 -0.0226  0.5428
 2931TIP3    H130208   4.675   0.277  12.499 -1.9651  0.7318  1.5637
 2931TIP3    H230209   4.746   0.171  12.580  0.1598  0.4913 -0.5614
 2932TIP3   OH230210   2.874   0.185  13.023  0.5189  0.3932  0.2902
 2932TIP3    H130211   2.807   0.138  12.974 -0.3187  0.3592  1.4414
 2932TIP3    H230212   2.828   0.263  13.056  0.4087 -0.7222  2.9351
 2933TIP3   OH230213   3.571   1.629   3.418 -0.1888  0.5864 -0.0674
 2933TIP3    H130214   3.628   1.558   3.388 -0.3685  0.8402 -1.0543
 2933TIP3    H230215   3.484   1.589   3.425  0.3184 -0.1326  2.7261
 2934TIP3   OH230216   5.438   4.596  17.205 -0.2027  0.2018 -0.4585
 2934TIP3    H130217   5.428   4.687  17.233  0.7368  0.4626 -0.9464
 2934TIP3    H230218   5.460   4.548  17.285 -1.0253  0.3354 -0.1396
 2935TIP3   OH230219   4.057   3.696  16.359  0.1300 -0.9311  0.3891
 2935TIP3    H130220   4.105   3.689  16.441 -1.0841 -1.8726  1.0422
 2935TIP3    H230221   3.964   3.694  16.385 -0.2701 -1.7703 -1.0304
 2936TIP3   OH230222   1.288   3.488   1.237  0.3947 -0.2923  0.1951
 2936TIP3    H130223   1.194   3.492   1.217  0.2799  0.3174  0.8293
 2936TIP3    H230224   1.308   3.395   1.240 -0.2750 -0.4310  0.4402
 2937TIP3   OH230225   5.228   3.758  11.420 -1.3367 -0.1490  0.1635
 2937TIP3    H130226   5.287   3.778  11.347 -1.6235 -0.0190 -0.0283
 2937TIP3    H230227   5.182   3.679  11.392 -0.9933 -0.4587  0.4641
 2938TIP3   OH230228   1.742   4.382  11.822  0.0880 -0.4203 -0.3044
 2938TIP3    H130229   1.679   4.311  11.811  0.8091 -1.1573  0.2666
 2938TIP3    H230230   1.805   4.369  11.751 -0.3341  0.2536 -0.8110
 2939TIP3   OH230231   0.061   5.974  15.228 -0.6887  0.1989 -0.1505
 2939TIP3    H130232  -0.023   5.990  15.272 -0.9737  0.9314 -0.9284
 2939TIP3    H230233   0.100   5.902  15.276 -0.9289  1.0583  1.3818
 2940TIP3   OH230234   0.976   5.868   1.609 -0.1806 -0.2330 -0.1624
 2940TIP3    H130235   0.882   5.850   1.598 -0.1851 -0.0422 -0.4195
 2940TIP3    H230236   0.980   5.923   1.687 -0.1488 -1.5528  0.7858
 2941TIP3   OH230237   0.890   6.697   3.417 -0.2131 -0.1010  0.5018
 2941TIP3    H130238   0.963   6.750   3.449 -1.1561  0.8396  1.1285
 2941TIP3    H230239   0.931   6.632   3.360  1.4122 -1.3713  3.0482
 2942TIP3   OH230240   3.673   6.255  14.499 -0.0509 -0.7900  0.3267
 2942TIP3    H130241   3.742   6.315  14.528 -0.5811 -0.1636  0.3109
 2942TIP3    H230242   3.600   6.272  14.559  0.2397 -2.3392  1.1488
 2943TIP3   OH230243   6.688   1.379   5.422  0.3694  0.2669  0.2914
 2943TIP3    H130244   6.657   1.401   5.334 -0.7477 -0.7864  0.4090
 2943TIP3    H230245   6.659   1.289   5.436  3.2261 -0.6724  0.5440
 2944TIP3   OH230246   4.394   0.395   1.595  0.0090 -0.2167  0.1701
 2944TIP3    H130247   4.412   0.310   1.635 -0.7449  0.2522  1.5324
 2944TIP3    H230248   4.300   0.409   1.609 -0.0972  0.3518 -1.0183
 2945TIP3   OH230249   2.065   0.678  11.580 -0.0326 -0.2857 -0.0727
 2945TIP3    H130250   2.002   0.650  11.647  0.4181 -0.9922  0.0617
 2945TIP3    H230251   2.144   0.701  11.630 -0.2145  0.6959 -0.2331
 2946TIP3   OH230252   1.837   0.276  10.693 -0.1957 -0.4110 -0.0547
 2946TIP3    H130253   1.896   0.345  10.665  1.7228 -1.3119  1.5876
 2946TIP3    H230254   1.749   0.314  10.686  0.8193  2.2386  0.9427
 2947TIP3   OH230255   5.311   5.891  11.266  0.2943 -0.1852 -0.1350
 2947TIP3    H130256   5.226   5.875  11.307 -0.5775  1.9338 -1.0361
 2947TIP3    H230257   5.364   5.814  11.289 -2.7203 -2.9178 -1.8792
 2948TIP3   OH230258   1.975   6.262  13.201 -0.0296 -0.6029  0.3848
 2948TIP3    H130259   1.918   6.190  13.174 -1.3364 -0.1382  1.8651
 2948TIP3    H230260   1.938   6.339  13.157 -0.8663 -0.2083  1.7791
 2949TIP3   OH230261   0.047   6.231  16.073 -0.0169  0.4461  0.4192
 2949TIP3    H130262   0.087   6.260  15.991 -0.3091 -1.3874 -0.3943
 2949TIP3    H230263   0.114   6.249  16.140  2.1433 -2.3371 -0.8780
 2950TIP3   OH230264   1.638   4.232  16.869 -1.0896 -0.3634  0.0847
 2950TIP3    H130265   1.717   4.276  16.902 -0.0517 -1.1356 -1.2784
 2950TIP3    H230266   1.615   4.169  16.937  0.7461 -1.6263 -0.3985
 2951TIP3   OH230267   5.968   3.274  13.263  0.2744  0.0268 -0.3286
 2951TIP3    H130268   5.985   3.257  13.355  1.7210  2.4606 -0.0962
 2951TIP3    H230269   5.896   3.337  13.263  0.9917  0.8430 -0.8346
 2952TIP3   OH230270   3.811   4.016  10.508 -0.2576 -0.3677 -0.0208
 2952TIP3    H130271   3.844   4.060  10.586  0.5756  0.0614 -0.6139
 2952TIP3    H230272   3.731   4.063  10.486  0.1824  0.3232 -0.1637
 2953TIP3   OH230273   4.637   3.977  13.274  0.0045 -0.9981 -0.0457
 2953TIP3    H130274   4.582   3.909  13.313 -0.9775 -2.0896 -3.2014
 2953TIP3    H230275   4.707   3.991  13.338 -1.4314 -2.8223  1.9949
 2954TIP3   OH230276   0.354   3.476  15.822  0.5693  0.4437 -0.3356
 2954TIP3    H130277   0.402   3.400  15.853 -0.0643  0.4489  0.6757
 2954TIP3    H230278   0.309   3.445  15.743  0.2506 -0.2528  0.1190
 2955TIP3   OH230279   4.698   0.034   1.558  0.7493  0.0344 -0.0348
 2955TIP3    H130280   4.605   0.015   1.549  0.5405  1.7411 -1.8915
 2955TIP3    H230281   4.723  -0.004   1.643 -1.4487 -1.0592  0.1491
 2956TIP3   OH230282   5.413   5.324  11.629  0.7480  0.2892  0.4645
 2956TIP3    H130283   5.355   5.321  11.553 -0.4118  1.8740  1.2507
 2956TIP3    H230284   5.471   5.398  11.613 -0.6791  1.7581  1.9184
 2957TIP3   OH230285   3.912   6.430  14.510 -0.4168 -0.7503  0.0595
 2957TIP3    H130286   3.854   6.452  14.584  0.2898  0.0337  0.3950
 2957TIP3    H230287   3.882   6.486  14.439 -0.3498 -0.6567  0.1049
 2958TIP3   OH230288   4.331   3.049  15.572 -0.5982 -0.0060  0.2892
 2958TIP3    H130289   4.286   2.980  15.620 -0.5446  1.0057  1.8207
 2958TIP3    H230290   4.303   3.038  15.481 -2.0754 -0.8561  0.8457
 2959TIP3   OH230291   3.456   2.054   3.583 -0.1141  0.3165  0.3192
 2959TIP3    H130292   3.526   2.002   3.544  0.4276  0.5930  0.9185
 2959TIP3    H230293   3.497   2.137   3.605 -0.5196  0.3266  1.0671
 2960TIP3   OH230294   0.853   0.016  12.401  0.2130 -0.0033  0.1952
 2960TIP3    H130295   0.792   0.025  12.328 -1.0395  0.5427  1.2942
 2960TIP3    H230296   0.809   0.059  12.475  1.0438 -1.3894  1.5168
 2961TIP3   OH230297   3.331   5.485  11.053 -0.6405 -0.0710  0.1029
 2961TIP3    H130298   3.289   5.424  11.114  0.8292 -0.9792  0.2226
 2961TIP3    H230299   3.405   5.436  11.018  1.2161  2.0282  1.0279
 2962TIP3   OH230300   3.379   3.099  13.074  0.1296 -0.0612  0.5775
 2962TIP3    H130301   3.366   3.164  13.143 -2.9820 -0.6631  0.6496
 2962TIP3    H230302   3.333   3.135  12.998  0.8139 -0.8618 -0.2276
 2963TIP3   OH230303   3.814   1.471  15.229 -0.3928 -0.2601 -0.0330
 2963TIP3    H130304   3.879   1.498  15.295 -1.1063  0.1342  0.5213
 2963TIP3    H230305   3.858   1.483  15.145  0.2150  0.1128  0.3371
 2964TIP3   OH230306   2.582   4.415  17.203 -0.3599 -0.5577 -0.1909
 2964TIP3    H130307   2.630   4.361  17.266  2.5795  0.8409 -1.1536
 2964TIP3    H230308   2.586   4.503  17.239 -1.6280 -0.2996 -0.6485
 2965TIP3   OH230309   1.260   2.468   4.137 -0.1301 -0.2658 -0.0105
 2965TIP3    H130310   1.257   2.550   4.087 -1.0378  0.6293  1.4783
 2965TIP3    H230311   1.327   2.483   4.204 -1.4018 -0.1332  1.2610
 2966TIP3   OH230312   5.446   6.075  15.951  0.4097 -0.1930 -0.3523
 2966TIP3    H130313   5.480   6.110  15.869 -0.6896  0.5222 -0.5155
 2966TIP3    H230314   5.453   6.148  16.013 -0.2741 -0.2182 -0.2407
 2967TIP3   OH230315   0.697   6.386   3.503  0.2165 -0.5574  0.2200
 2967TIP3    H130316   0.791   6.372   3.511  0.4503  0.3629 -0.8012
 2967TIP3    H230317   0.689   6.456   3.438 -1.1080  0.5576  1.5508
 2968TIP3   OH230318   5.820   5.844  11.649 -0.4513 -0.1170 -0.0407
 2968TIP3    H130319   5.899   5.842  11.703 -0.3901  3.2121  0.1229
 2968TIP3    H230320   5.748   5.858  11.711 -1.0903 -2.0986 -0.2921
 2969TIP3   OH230321   3.285   5.821   0.297  0.5313  0.0574  0.0494
 2969TIP3    H130322   3.299   5.744   0.352  0.6719  0.1330  0.1216
 2969TIP3    H230323   3.195   5.848   0.316 -0.2309 -1.3246 -1.5481
 2970TIP3   OH230324   0.497   4.213   4.207 -0.3404  0.0826  0.4958
 2970TIP3    H130325   0.430   4.208   4.139  2.1045  3.1448 -2.3207
 2970TIP3    H230326   0.452   4.249   4.284 -2.1210  1.3047 -1.0902
 2971TIP3   OH230327   2.567   2.844   1.468 -0.3188  0.4114 -0.2413
 2971TIP3    H130328   2.512   2.769   1.492  0.3120  0.0059 -0.0422
 2971TIP3    H230329   2.654   2.822   1.502  0.4239  0.1855 -2.2286
 2972TIP3   OH230330   4.510   2.794   4.832 -0.5120 -0.0484 -0.0582
 2972TIP3    H130331   4.495   2.889   4.839  1.9516  0.4501 -1.2072
 2972TIP3    H230332   4.507   2.776   4.738 -0.5344 -1.0486  0.1304
 2973TIP3   OH230333   2.312   6.686   1.477 -0.3396 -0.1970 -0.1108
 2973TIP3    H130334   2.274   6.772   1.494  0.0574  0.1798 -1.0996
 2973TIP3    H230335   2.404   6.695   1.502  0.1999  0.3002 -2.2277
 2974TIP3   OH230336   0.687   5.032   4.554  0.1182  0.5329 -0.3283
 2974TIP3    H130337   0.627   5.038   4.629  0.3221 -2.1556  0.0992
 2974TIP3    H230338   0.640   5.074   4.483 -0.4897  2.2638  1.0487
 2975TIP3   OH230339   2.189   5.977   3.369  0.6803 -0.2053  0.1528
 2975TIP3    H130340   2.189   5.908   3.303  0.6241 -0.6744  0.6348
 2975TIP3    H230341   2.217   5.933   3.449 -0.1974  0.1379  0.6573
 2976TIP3   OH230342   0.294   0.589  16.755 -0.2722 -0.0606 -0.0196
 2976TIP3    H130343   0.345   0.639  16.819 -0.0485 -0.6510  0.2611
 2976TIP3    H230344   0.209   0.634  16.752  1.1241  2.5394 -2.4403
 2977TIP3   OH230345   3.365   2.499   6.152  0.0105 -0.0129  0.3022
 2977TIP3    H130346   3.433   2.523   6.215 -1.7282  2.0865  1.4735
 2977TIP3    H230347   3.334   2.413   6.182  0.6857 -0.0065  1.0250
 2978TIP3   OH230348   2.245   5.989  13.657  0.0905  0.0007 -0.0026
 2978TIP3    H130349   2.241   5.949  13.570 -1.8147 -0.4513  0.2777
 2978TIP3    H230350   2.275   6.078  13.640  0.1205 -0.1967 -1.0727
 2979TIP3   OH230351   2.351   6.444   3.072 -0.1293  0.2038  0.9293
 2979TIP3    H130352   2.270   6.475   3.114 -0.1967 -0.0090  0.9573
 2979TIP3    H230353   2.395   6.524   3.043 -0.9725  0.2469 -0.2547
 2980TIP3   OH230354   5.732   6.689  11.317 -0.0154 -0.7103  0.1032
 2980TIP3    H130355   5.695   6.607  11.350 -1.9723 -0.5790 -1.6829
 2980TIP3    H230356   5.745   6.674  11.223 -1.3879  1.3701 -0.4398
 2981TIP3   OH230357   6.322   5.916  10.445 -0.5307 -0.5813 -0.1376
 2981TIP3    H130358   6.335   6.002  10.484 -1.7200 -1.0137  1.2547
 2981TIP3    H230359   6.410   5.877  10.444 -0.0125  0.5630 -0.6479
 2982TIP3   OH230360   0.342   4.554   0.355  0.2836 -0.2583  0.1616
 2982TIP3    H130361   0.362   4.576   0.446 -1.5847  0.2232  0.4679
 2982TIP3    H230362   0.415   4.498   0.327  1.3565  0.3878  1.6446
 2983TIP3   OH230363   5.660   2.641   6.138 -0.2787  0.2776  0.0459
 2983TIP3    H130364   5.648   2.588   6.216  0.4185  1.1923  0.7808
 2983TIP3    H230365   5.652   2.579   6.065 -2.5247 -0.3029  0.7507
 2984TIP3   OH230366   2.729   4.139   5.714  0.0235  0.4741  0.7560
 2984TIP3    H130367   2.636   4.159   5.699 -0.2075 -1.0784 -0.0068
 2984TIP3    H230368   2.738   4.141   5.809 -0.5531  1.6005  0.8109
 2985TIP3   OH230369   0.756   3.163  14.387  0.7763  0.5438  0.3570
 2985TIP3    H130370   0.669   3.133  14.362  0.6657  0.1818  1.1504
 2985TIP3    H230371   0.743   3.252  14.419  1.1735  1.6707 -2.4480
 2986TIP3   OH230372   0.837   4.435  11.241 -0.1852  0.4749  0.6076
 2986TIP3    H130373   0.750   4.474  11.234 -0.8863 -1.3952 -1.5154
 2986TIP3    H230374   0.896   4.510  11.250 -1.8979  1.8050  1.0503
 2987TIP3   OH230375   6.282   1.731   0.370  0.1032 -0.2545 -0.9946
 2987TIP3    H130376   6.309   1.668   0.438 -1.8730 -0.0995 -0.0143
 2987TIP3    H230377   6.338   1.711   0.296  2.3904 -0.3686  0.7197
 2988TIP3   OH230378   5.375   2.898   4.335 -0.0095 -0.5407  0.4512
 2988TIP3    H130379   5.336   2.820   4.374 -2.3519 -0.8192 -2.2766
 2988TIP3    H230380   5.320   2.970   4.367  0.0870 -0.4029  0.3028
 2989TIP3   OH230381   4.293   4.725   0.769 -0.2269 -0.4180  0.3623
 2989TIP3    H130382   4.231   4.676   0.823 -0.6219 -0.3701 -0.0495
 2989TIP3    H230383   4.241   4.794   0.728  0.2676  0.1609  0.6960
 2990TIP3   OH230384   6.658   5.466  12.982  0.0301 -0.1453  0.0862
 2990TIP3    H130385   6.570   5.455  12.945  0.5089 -0.6199 -0.9620
 2990TIP3    H230386   6.710   5.398  12.938  0.6192 -0.7713  1.7131
 2991TIP3   OH230387   3.858   1.198  17.053 -0.8040 -0.0609 -0.2521
 2991TIP3    H130388   3.772   1.240  17.060  0.1388  2.3225 -2.0681
 2991TIP3    H230389   3.845   1.126  16.991 -1.5165  0.2528 -0.4696
 2992TIP3   OH230390   0.682   5.843   3.989  0.0145  0.1035 -0.0075
 2992TIP3    H130391   0.742   5.829   4.063  1.0816  3.6108 -0.1258
 2992TIP3    H230392   0.616   5.903   4.024 -2.0148 -1.6704 -0.6693
 2993TIP3   OH230393   6.479   0.609   4.878 -0.1066 -0.1267 -0.0537
 2993TIP3    H130394   6.435   0.650   4.953 -2.2068 -0.1589 -1.2331
 2993TIP3    H230395   6.485   0.677   4.812  0.5434 -0.4662 -0.3547
 2994TIP3   OH230396   3.807   2.337   5.076 -0.1364  0.1150  0.0890
 2994TIP3    H130397   3.846   2.420   5.103  1.6521 -1.0899  1.2924
 2994TIP3    H230398   3.742   2.318   5.144  0.2806 -0.0385  0.4501
 2995TIP3   OH230399   5.873   4.722   5.325  0.5784 -0.0491 -0.4313
 2995TIP3    H130400   5.920   4.794   5.283 -0.2007 -0.0471 -1.2933
 2995TIP3    H230401   5.792   4.761   5.357  0.7514 -0.2525  0.2651
 2996TIP3   OH230402   4.387   3.583  13.490  0.6233  0.2102  0.1722
 2996TIP3    H130403   4.368   3.582  13.584  1.8632  0.5890  0.4419
 2996TIP3    H230404   4.456   3.518  13.479  0.9944  0.6898 -0.3519
 2997TIP3   OH230405   4.852   1.400  10.130 -0.4220 -0.6365  0.2269
 2997TIP3    H130406   4.851   1.338  10.057  2.0214 -0.4080 -0.0519
 2997TIP3    H230407   4.762   1.430  10.137 -1.0092 -1.8420 -1.6855
 2998TIP3   OH230408   0.499   5.367   4.294 -0.9939  0.5917  0.1799
 2998TIP3    H130409   0.558   5.425   4.246 -1.8395 -0.8761 -2.7161
 2998TIP3    H230410   0.417   5.369   4.246 -1.8293 -1.0839  1.4507
 2999TIP3   OH230411   4.139   4.696   2.025 -0.1047  0.4773  0.2351
 2999TIP3    H130412   4.231   4.718   2.039  0.0111 -0.4898  1.0794
 2999TIP3    H230413   4.092   4.778   2.039  0.4114  0.4815  2.1282
 3000TIP3   OH230414   2.371   1.511  11.080 -0.2536 -0.4717  0.2524
 3000TIP3    H130415   2.387   1.441  11.017 -1.2549 -0.1910 -0.3182
 3000TIP3    H230416   2.411   1.478  11.161  0.6729 -1.0073 -0.4065
 3001TIP3   OH230417   6.122   2.954   3.607  0.4950  0.5791  0.0525
 3001TIP3    H130418   6.178   2.889   3.649  1.3283  0.7034 -0.8531
 3001TIP3    H230419   6.057   2.977   3.674 -2.4722 -4.2802 -0.9514
 3002TIP3   OH230420   6.086   0.044  14.811 -0.2594 -0.4331  0.2614
 3002TIP3    H130421   6.109   0.000  14.729 -0.9809 -1.1471  0.4337
 3002TIP3    H230422   5.991   0.053  14.808 -0.2120  0.2261  0.6767
 3003TIP3   OH230423   6.026   5.485   4.824 -0.0749  0.3355 -0.3169
 3003TIP3    H130424   5.949   5.432   4.806  0.4778  0.1552 -2.3370
 3003TIP3    H230425   6.100   5.426   4.810  0.5098  1.2945 -1.4354
 3004TIP3   OH230426   3.775   1.701   2.382 -0.0283  0.1965  0.1521
 3004TIP3    H130427   3.770   1.756   2.304  0.7285  2.4437  1.6335
 3004TIP3    H230428   3.866   1.672   2.385 -0.1579 -0.2359 -0.0139
 3005TIP3   OH230429   1.957   2.224   6.233 -0.3205  0.1320  0.5176
 3005TIP3    H130430   2.014   2.176   6.173  0.4603  0.7313  0.7601
 3005TIP3    H230431   1.976   2.186   6.319  0.1997  0.7666  0.6901
 3006TIP3   OH230432   3.153   3.814  16.181  0.2348  0.2085  0.0638
 3006TIP3    H130433   3.103   3.733  16.195  0.8911 -0.5848 -1.9224
 3006TIP3    H230434   3.225   3.788  16.123  0.3092  2.2533 -0.8081
 3007TIP3   OH230435   0.597   0.806   3.045  0.5105  0.3890 -0.5158
 3007TIP3    H130436   0.536   0.856   3.099  1.0219  1.8407 -1.2735
 3007TIP3    H230437   0.655   0.872   3.006  1.4141 -0.8166 -1.2473
 3008TIP3   OH230438   6.357   5.053  16.205 -0.0469  0.5602 -0.6255
 3008TIP3    H130439   6.350   4.970  16.159  1.8757  1.1161 -2.0150
 3008TIP3    H230440   6.307   5.115  16.152 -1.3048  0.3321  0.2935
 3009TIP3   OH230441   5.158   3.343  14.678 -0.2751 -0.8632 -0.2495
 3009TIP3    H130442   5.235   3.399  14.691  0.5463 -1.8038 -0.8806
 3009TIP3    H230443   5.092   3.377  14.738 -0.1693  1.4633 -1.4141
 3010TIP3   OH230444   1.857   3.823   1.932 -1.2308 -0.1623  0.3743
 3010TIP3    H130445   1.913   3.900   1.921 -0.8231 -0.1292  2.4375
 3010TIP3    H230446   1.818   3.834   2.018 -1.5119 -2.0545  0.5059
 3011TIP3   OH230447   6.424   3.323  11.901  0.2448 -0.1114  0.1554
 3011TIP3    H130448   6.455   3.398  11.850  0.8171  0.0549  0.7480
 3011TIP3    H230449   6.477   3.250  11.870 -0.4667 -0.3279 -0.5851
 3012TIP3   OH230450   5.921   2.391  17.208 -0.0915  0.3774 -0.7303
 3012TIP3    H130451   5.875   2.467  17.172  0.0761 -0.5260 -2.9213
 3012TIP3    H230452   5.926   2.329  17.135  2.3767 -0.5612  0.1896
 3013TIP3   OH230453   2.198   0.271  14.879 -0.2300 -0.1900  0.0849
 3013TIP3    H130454   2.162   0.359  14.875 -0.5358 -0.3251 -0.1647
 3013TIP3    H230455   2.169   0.236  14.964  1.0942  0.4635  0.8178
 3014TIP3   OH230456   5.225   1.355  13.145 -0.5340  0.6714  0.4985
 3014TIP3    H130457   5.245   1.300  13.220  0.5429  1.7895  1.0729
 3014TIP3    H230458   5.151   1.408  13.172 -0.7977  0.3544  0.3947
 3015TIP3   OH230459   2.238   2.592   0.579 -0.6032  0.6583  0.1875
 3015TIP3    H130460   2.198   2.654   0.641 -1.2324  1.6474 -1.1894
 3015TIP3    H230461   2.323   2.630   0.559  0.4156 -0.6453  1.8961
 3016TIP3   OH230462   6.621   2.829  12.283  0.2660  0.2976  0.0560
 3016TIP3    H130463   6.645   2.912  12.324  0.6144 -0.4093  1.3258
 3016TIP3    H230464   6.704   2.792  12.252  0.3343 -0.3092  0.9292
 3017TIP3   OH230465   2.426   1.911   1.532  0.6513 -0.1589 -0.1012
 3017TIP3    H130466   2.417   1.941   1.441  0.4775 -1.1952 -0.4333
 3017TIP3    H230467   2.337   1.885   1.557  0.5753  0.7176  0.5916
 3018TIP3   OH230468   6.621   0.957  15.559  0.2422 -0.0235 -0.5932
 3018TIP3    H130469   6.655   1.047  15.554  1.2477 -0.3520  0.0415
 3018TIP3    H230470   6.559   0.951  15.487 -0.3032  1.3841 -0.2651
 3019TIP3   OH230471   1.638   6.219  17.200 -0.5704  0.3719  0.3388
 3019TIP3    H130472   1.708   6.154  17.210 -0.6986  0.6626  3.6639
 3019TIP3    H230473   1.644   6.246  17.109  1.2050 -2.3562 -0.4307
 3020TIP3   OH230474   6.048   4.521   5.348 -0.5130 -0.2884  0.1476
 3020TIP3    H130475   5.987   4.485   5.412 -1.0609 -0.7338 -0.6180
 3020TIP3    H230476   6.008   4.603   5.320 -0.8467 -0.6663 -0.4839
 3021TIP3   OH230477   5.345   6.533   6.675 -0.4398  0.3626 -0.3663
 3021TIP3    H130478   5.345   6.457   6.616  0.6323 -0.7733  1.0742
 3021TIP3    H230479   5.260   6.528   6.720 -0.2511 -0.1511 -0.0646
 3022TIP3   OH230480   6.601   1.135  12.893  0.3865 -0.2753 -0.3190
 3022TIP3    H130481   6.606   1.157  12.986  0.8132 -1.4886 -0.0362
 3022TIP3    H230482   6.534   1.066  12.889 -1.0219  1.1246 -1.1807
 3023TIP3   OH230483   1.153   3.537  13.442  0.0807  0.1584  0.2100
 3023TIP3    H130484   1.196   3.451  13.442  0.5049  0.3355  3.2881
 3023TIP3    H230485   1.143   3.558  13.349  0.3732 -3.0114 -0.5943
 3024TIP3   OH230486   3.344   3.360  15.761 -0.2532  0.1731 -0.0593
 3024TIP3    H130487   3.419   3.303  15.777 -0.4105 -0.0071  0.0411
 3024TIP3    H230488   3.375   3.424  15.698  0.0561  0.2387  0.1570
 3025TIP3   OH230489   0.962   4.390   3.337  0.1931 -0.0620 -0.4392
 3025TIP3    H130490   1.000   4.379   3.424 -0.3853 -1.9954 -0.4122
 3025TIP3    H230491   0.985   4.480   3.312  1.9424 -0.0954  0.9327
 3026TIP3   OH230492   0.619   5.161  12.295 -0.1434 -0.3280  0.6782
 3026TIP3    H130493   0.627   5.146  12.201 -0.0411 -0.6180  0.7329
 3026TIP3    H230494   0.524   5.157  12.312 -0.0308 -2.5763  0.9543
 3027TIP3   OH230495   4.001   1.287   2.395 -0.1391 -0.0475 -0.1695
 3027TIP3    H130496   3.973   1.195   2.396  0.7742 -0.3502 -1.4857
 3027TIP3    H230497   3.959   1.324   2.318  0.1423  0.4439 -0.0875
 3028TIP3   OH230498   6.222   2.569   0.727 -0.1033 -0.4160 -0.3449
 3028TIP3    H130499   6.227   2.475   0.747  0.8059 -0.3995 -0.5042
 3028TIP3    H230500   6.212   2.572   0.631  1.4319 -0.3013 -0.5052
 3029TIP3   OH230501   6.215   3.692  14.853  0.3993  0.2301 -0.0554
 3029TIP3    H130502   6.302   3.731  14.858  0.5067 -0.2375  2.4847
 3029TIP3    H230503   6.207   3.662  14.762  2.2242  1.7305 -0.7410
 3030TIP3   OH230504   4.717   4.235  16.116 -0.8191  0.2053 -0.1148
 3030TIP3    H130505   4.748   4.182  16.042 -0.4544 -0.0644  0.2263
 3030TIP3    H230506   4.786   4.299  16.130 -0.0955 -0.7917  1.0507
 3031TIP3   OH230507   0.642   5.831  14.232 -0.0322 -0.7184 -0.1581
 3031TIP3    H130508   0.569   5.798  14.180  0.3251 -1.0334 -0.4605
 3031TIP3    H230509   0.649   5.924  14.208  0.6660 -1.0568 -1.3054
 3032TIP3   OH230510   4.252   2.835  10.612 -0.0476 -0.2906  0.8961
 3032TIP3    H130511   4.168   2.795  10.590 -0.4107  1.1586 -0.4468
 3032TIP3    H230512   4.312   2.761  10.622 -0.7733 -1.2227 -1.2674
 3033TIP3   OH230513   3.179   6.261   5.475 -0.2706  0.0029 -0.0644
 3033TIP3    H130514   3.235   6.202   5.424  0.6091 -0.6498  1.6428
 3033TIP3    H230515   3.239   6.323   5.516 -0.8416 -0.3056  1.2714
 3034TIP3   OH230516   0.501   6.212   3.610 -0.3867 -0.2281 -0.2822
 3034TIP3    H130517   0.477   6.270   3.681  0.6368  0.0960 -0.1948
 3034TIP3    H230518   0.560   6.264   3.555 -0.0139 -0.9539 -0.5770
 3035TIP3   OH230519   2.929   3.358  15.099 -0.3915  0.0205  0.1070
 3035TIP3    H130520   2.861   3.409  15.055  0.5741  1.7242  0.5646
 3035TIP3    H230521   2.956   3.294  15.033 -1.5426  0.1358 -0.5046
 3036TIP3   OH230522   6.689   6.166   0.440  0.7367 -0.2049 -0.2034
 3036TIP3    H130523   6.744   6.141   0.514  0.8068  1.9659  0.5169
 3036TIP3    H230524   6.744   6.153   0.363  0.7376 -2.2652  0.1234
 3037TIP3   OH230525   1.603   6.394  13.529  0.3783 -0.1484 -0.0741
 3037TIP3    H130526   1.599   6.490  13.527 -0.1727 -0.1721 -0.3169
 3037TIP3    H230527   1.696   6.374  13.525  0.4388  0.3604 -1.6603
 3038TIP3   OH230528   2.295   2.123  13.258 -0.5583  0.5042  0.2261
 3038TIP3    H130529   2.360   2.144  13.325 -1.5579 -0.4512  1.5400
 3038TIP3    H230530   2.212   2.148  13.298 -1.1123  0.5083 -0.9184
 3039TIP3   OH230531   5.711   4.066  16.288 -0.0735  0.1791  0.6185
 3039TIP3    H130532   5.800   4.076  16.323  0.6583 -0.0269 -1.1289
 3039TIP3    H230533   5.654   4.067  16.365  1.5055 -0.3855  1.8030
 3040TIP3   OH230534   5.183   6.428  15.237 -0.2423  0.0625  0.2918
 3040TIP3    H130535   5.236   6.378  15.176 -1.0023 -1.3504  0.7537
 3040TIP3    H230536   5.198   6.520  15.214  1.5307 -0.3628 -0.2648
 3041TIP3   OH230537   0.495   2.664   3.809  0.1921 -0.3971 -0.2179
 3041TIP3    H130538   0.586   2.646   3.787  1.2477  2.4440  1.6201
 3041TIP3    H230539   0.472   2.740   3.755 -1.0218 -0.8978 -0.4364
 3042TIP3   OH230540   6.026   1.494   3.505  0.3832 -0.4087  0.3844
 3042TIP3    H130541   6.063   1.407   3.490  1.0146  0.2794 -2.2725
 3042TIP3    H230542   5.932   1.480   3.514  0.4937 -1.3559  0.0171
 3043TIP3   OH230543   3.354   1.944   5.292  0.0278  0.6298  0.0568
 3043TIP3    H130544   3.300   1.941   5.212 -0.0104  2.5145 -0.0188
 3043TIP3    H230545   3.419   2.012   5.273  0.0546  1.0387  1.6064
 3044TIP3   OH230546   4.443   3.276  12.685  0.8832 -0.0614 -0.1642
 3044TIP3    H130547   4.443   3.269  12.780  2.6799 -0.4931 -0.1739
 3044TIP3    H230548   4.364   3.230  12.657  0.1887  0.3317  1.1296
 3045TIP3   OH230549   1.304   2.074  16.364  0.2459 -0.1394  0.1607
 3045TIP3    H130550   1.360   2.131  16.417  1.6210 -2.3256  1.1136
 3045TIP3    H230551   1.350   2.066  16.281 -0.9851  1.7748 -0.7459
 3046TIP3   OH230552   3.651   3.772   1.229 -0.6741  0.4132 -0.3680
 3046TIP3    H130553   3.592   3.720   1.283 -0.3102  0.7956  0.3992
 3046TIP3    H230554   3.739   3.751   1.261 -0.6038  2.7909  1.1260
 3047TIP3   OH230555   4.934   1.256  15.451  0.0547 -0.5991  0.3190
 3047TIP3    H130556   4.913   1.234  15.361 -0.2810 -2.4888  0.8367
 3047TIP3    H230557   4.936   1.172  15.497 -0.0684  0.3529  2.1313
 3048TIP3   OH230558   0.018   1.020  15.895  0.0403 -0.5145 -0.3907
 3048TIP3    H130559   0.010   1.089  15.829  1.0345  0.4337  0.4623
 3048TIP3    H230560  -0.030   0.945  15.858  0.1911  0.1543 -1.9616
 3049TIP3   OH230561   2.616   3.783   1.665  0.3943  0.1242  0.2905
 3049TIP3    H130562   2.679   3.804   1.596  0.7791 -0.9322  0.3142
 3049TIP3    H230563   2.540   3.839   1.645  1.3351  1.4242  0.2887
 3050TIP3   OH230564   4.313   4.511   5.604  0.1007  0.0785 -0.0207
 3050TIP3    H130565   4.318   4.490   5.697  2.3064 -0.3481 -0.2144
 3050TIP3    H230566   4.222   4.537   5.590 -0.0090  1.1455  2.4652
 3051TIP3   OH230567   5.023   1.262   0.386 -0.2759 -0.4365 -0.0169
 3051TIP3    H130568   5.001   1.273   0.293  1.8989 -1.4940 -0.6933
 3051TIP3    H230569   4.962   1.195   0.417 -0.3386 -0.8267 -0.9563
 3052TIP3   OH230570   3.517   1.266   3.712  0.4241 -0.0463  0.0254
 3052TIP3    H130571   3.612   1.261   3.728  0.4168 -0.8278 -0.1820
 3052TIP3    H230572   3.500   1.360   3.703  1.4126  0.0205 -1.3191
 3053TIP3   OH230573   2.431   4.972  14.588  0.4390  0.8771 -0.5088
 3053TIP3    H130574   2.527   4.979  14.587  0.4903  0.2799 -2.2597
 3053TIP3    H230575   2.410   4.930  14.505 -1.3347  0.7505 -0.0075
 3054TIP3   OH230576   6.172   0.752  11.527  0.4636  0.3185 -0.2240
 3054TIP3    H130577   6.262   0.780  11.510  0.5368  0.3930  0.3059
 3054TIP3    H230578   6.150   0.696  11.451  1.4736 -0.9273  0.3813
 3055TIP3   OH230579   1.794   0.865  14.255  0.8056  0.0862 -0.4319
 3055TIP3    H130580   1.861   0.800  14.232  1.8756  0.6517  0.9813
 3055TIP3    H230581   1.716   0.812  14.274  0.9885 -0.6182 -1.5864
 3056TIP3   OH230582   2.429   2.689   1.006  0.4353  0.6113  0.3917
 3056TIP3    H130583   2.463   2.645   0.928  0.4398  0.5319  0.4376
 3056TIP3    H230584   2.338   2.661   1.012  1.0969 -1.3800  1.8007
 3057TIP3   OH230585   0.129   5.211  16.121 -0.1245 -0.5107  0.0707
 3057TIP3    H130586   0.038   5.184  16.133 -0.3968  0.7595  0.9004
 3057TIP3    H230587   0.181   5.142  16.162 -0.8179  0.3205  2.4074
 3058TIP3   OH230588   5.735   2.260  11.289 -0.1605 -0.0334 -0.1233
 3058TIP3    H130589   5.691   2.202  11.227 -2.2701  1.5626 -0.1670
 3058TIP3    H230590   5.802   2.304  11.238  0.8849 -1.7627 -0.2860
 3059TIP3   OH230591   3.023   2.342  15.333 -0.5454 -0.4146  0.2369
 3059TIP3    H130592   3.066   2.412  15.283  0.0948 -1.5337 -0.8104
 3059TIP3    H230593   2.983   2.387  15.407  0.4445  0.9773 -0.0421
 3060TIP3   OH230594   5.203   2.722  13.056  0.2097 -0.2038 -0.0094
 3060TIP3    H130595   5.115   2.689  13.036 -0.2513  1.0199 -0.0363
 3060TIP3    H230596   5.245   2.650  13.103  0.1280 -1.8047 -2.3376
 3061TIP3   OH230597   6.059   6.343  15.606 -0.2648 -0.5003 -1.0323
 3061TIP3    H130598   6.069   6.280  15.677  0.5074 -1.1297 -1.6825
 3061TIP3    H230599   6.146   6.384  15.599 -0.8510  0.8699 -0.3977
 3062TIP3   OH230600   3.028   1.964   4.617 -0.0438  0.3960  0.3060
 3062TIP3    H130601   3.068   1.921   4.693  0.0547 -1.9475 -1.0300
 3062TIP3    H230602   3.064   2.053   4.618 -0.0538  0.3948  2.9869
 3063TIP3   OH230603   5.747   6.076  12.545 -0.1751 -0.7042 -0.5827
 3063TIP3    H130604   5.811   6.023  12.498 -0.7277 -0.5615 -1.5294
 3063TIP3    H230605   5.747   6.160  12.499 -1.0730 -0.7208 -0.6302
 3064TIP3   OH230606   6.477   3.434   3.943 -0.2821 -0.4254  0.2341
 3064TIP3    H130607   6.423   3.511   3.929 -0.8936 -0.7799  0.6273
 3064TIP3    H230608   6.552   3.446   3.884 -0.7011  0.1478 -0.1839
 3065TIP3   OH230609   2.635   0.461  13.422 -0.1695  0.3446 -0.0634
 3065TIP3    H130610   2.557   0.503  13.387 -1.0122 -2.0863 -1.2293
 3065TIP3    H230611   2.607   0.423  13.505 -0.0201  0.1593 -0.0963
 3066TIP3   OH230612   3.050   6.330   4.169 -0.4475 -0.0276  0.1110
 3066TIP3    H130613   3.061   6.421   4.143 -0.0205  0.3619  1.5796
 3066TIP3    H230614   2.972   6.330   4.224 -0.7333 -0.6457 -0.2885
 3067TIP3   OH230615   5.809   3.482  14.613  0.2413  0.1723  0.0200
 3067TIP3    H130616   5.745   3.442  14.672 -0.2227 -0.2617 -0.7664
 3067TIP3    H230617   5.894   3.452  14.645 -0.0056 -0.0333  0.4802
 3068TIP3   OH230618   4.565   4.826  15.388  0.3825 -0.0855  0.1563
 3068TIP3    H130619   4.567   4.731  15.381  3.2386 -0.0249 -0.4005
 3068TIP3    H230620   4.513   4.854  15.312 -3.2329 -1.2732  2.0765
 3069TIP3   OH230621   5.381   2.541  15.268  0.1264 -1.1120  0.3418
 3069TIP3    H130622   5.330   2.614  15.302 -0.9707 -2.1118  0.8719
 3069TIP3    H230623   5.463   2.580  15.238 -1.5216  0.7500 -1.9079
 3070TIP3   OH230624   3.707   2.124   0.057  0.4448  0.0583  0.1618
 3070TIP3    H130625   3.758   2.084   0.127  0.3630 -1.0975 -0.4219
 3070TIP3    H230626   3.711   2.060  -0.014 -1.1892  0.3080 -0.1558
 3071TIP3   OH230627   6.303   4.046   3.385  0.3959 -0.3771  0.6538
 3071TIP3    H130628   6.345   4.055   3.470  0.7895 -0.0829  0.4289
 3071TIP3    H230629   6.224   3.995   3.403  0.3666 -0.1388  1.2332
 3072TIP3   OH230630   3.279   1.689  16.301 -0.0070  0.3593 -0.4433
 3072TIP3    H130631   3.198   1.734  16.277  1.1396  2.2537 -0.8479
 3072TIP3    H230632   3.300   1.722  16.388  0.5064  0.1413 -0.4841
 3073TIP3   OH230633   2.986   1.182  16.118 -0.2963  0.2267 -0.1336
 3073TIP3    H130634   3.003   1.269  16.154 -1.8291 -0.4101  2.2778
 3073TIP3    H230635   2.928   1.140  16.182  0.0349 -2.4139 -1.4660
 3074TIP3   OH230636   4.120   3.767  14.609 -0.4035 -0.4111  0.1381
 3074TIP3    H130637   4.062   3.757  14.534 -0.3096  0.2980 -0.0316
 3074TIP3    H230638   4.116   3.860  14.631  1.0740 -0.2436 -0.2206
 3075TIP3   OH230639   1.098   2.424  11.970  0.3738  0.3522  0.1180
 3075TIP3    H130640   1.164   2.355  11.965  0.1464  0.1268  0.1977
 3075TIP3    H230641   1.042   2.398  12.044  1.4383  1.6351  1.3954
 3076TIP3   OH230642   4.341   0.669   6.480 -0.3961  0.0536  0.0997
 3076TIP3    H130643   4.312   0.708   6.397  0.9207  1.9261  0.4788
 3076TIP3    H230644   4.388   0.590   6.454 -0.7947  0.1254 -0.8697
 3077TIP3   OH230645   6.509   3.901   3.872 -0.2756 -0.0476 -0.0660
 3077TIP3    H130646   6.441   3.960   3.904 -0.6379 -1.0551  1.0617
 3077TIP3    H230647   6.584   3.918   3.929 -0.3369 -0.5687  0.1746
 3078TIP3   OH230648   2.298   0.271   5.005 -0.6615  0.0118 -0.2313
 3078TIP3    H130649   2.254   0.212   4.943 -1.3361  1.1323 -0.8415
 3078TIP3    H230650   2.227   0.328   5.038  0.0993  0.9685 -0.2271
 3079TIP3   OH230651   0.370   4.136  17.180 -0.3709 -0.5283 -0.7438
 3079TIP3    H130652   0.414   4.132  17.095 -0.1395 -0.2599 -0.6356
 3079TIP3    H230653   0.418   4.073  17.234  1.6953  1.7944  0.2215
 3080TIP3   OH230654   4.367   6.127   3.500  0.0036  0.1601 -0.3734
 3080TIP3    H130655   4.279   6.130   3.537 -0.0505 -1.2411 -0.3696
 3080TIP3    H230656   4.353   6.117   3.406  0.1461 -1.9662 -0.1906
 3081TIP3   OH230657   5.068   3.882  17.197  0.3763  0.1117  0.0100
 3081TIP3    H130658   5.156   3.857  17.225  0.3239 -0.2682 -0.1613
 3081TIP3    H230659   5.063   3.856  17.105 -0.5417 -1.6028  0.5163
 3082TIP3   OH230660   0.027   4.185  11.203 -0.1215 -0.5114  1.0458
 3082TIP3    H130661   0.114   4.166  11.238  0.3295  1.5438  1.1071
 3082TIP3    H230662   0.026   4.144  11.116  1.2222  0.1872  0.6928
 3083TIP3   OH230663   0.528   0.086  11.891  0.2796 -0.2746 -0.3186
 3083TIP3    H130664   0.599   0.053  11.836  0.7824 -1.2818  0.9074
 3083TIP3    H230665   0.556   0.066  11.981 -1.6018 -0.7701  0.1769
 3084TIP3   OH230666   0.307   1.937  16.539  0.8702  0.2106  0.4219
 3084TIP3    H130667   0.230   1.902  16.494  1.6373 -0.9625 -0.0098
 3084TIP3    H230668   0.281   2.024  16.568 -0.5461 -0.0914  0.0862
 3085TIP3   OH230669   4.082   1.411   4.757  0.1625 -1.1635  0.5664
 3085TIP3    H130670   4.059   1.452   4.841  1.4506  0.8311  0.0040
 3085TIP3    H230671   3.998   1.396   4.714 -0.3857  0.4253  1.0415
 3086TIP3   OH230672   3.889   0.823  13.829  0.8533 -0.2810 -0.1911
 3086TIP3    H130673   3.850   0.807  13.743  0.1967  1.2777 -0.2088
 3086TIP3    H230674   3.890   0.738  13.872  2.6756 -1.3833 -2.3290
 3087TIP3   OH230675   5.689   4.767  10.983 -0.0396 -0.0528  0.1627
 3087TIP3    H130676   5.598   4.789  11.004  0.5220  0.6632  1.9498
 3087TIP3    H230677   5.683   4.711  10.906 -2.0109 -0.0815  0.3144
 3088TIP3   OH230678   4.841   3.105   1.503 -0.3332 -0.2536  0.7642
 3088TIP3    H130679   4.851   3.053   1.583  2.6227 -1.6602 -0.4320
 3088TIP3    H230680   4.910   3.171   1.508 -1.5112  1.0422  0.3562
 3089TIP3   OH230681   3.200   6.153  10.672 -0.1808 -0.0228  0.2222
 3089TIP3    H130682   3.293   6.155  10.647 -0.2519  2.9389  0.0602
 3089TIP3    H230683   3.184   6.061  10.696  2.5954 -0.7295 -0.4310
 3090TIP3   OH230684   3.985   3.788  13.846  0.3247 -0.1846 -0.1843
 3090TIP3    H130685   4.010   3.696  13.841 -0.6824 -0.3911 -1.8999
 3090TIP3    H230686   4.068   3.834  13.862  0.7772 -1.4101  1.1007
 3091TIP3   OH230687   6.408   2.544  11.751  0.9029  0.6885 -0.2393
 3091TIP3    H130688   6.331   2.491  11.733  3.2699 -2.4972 -1.5922
 3091TIP3    H230689   6.425   2.531  11.844  0.6716  0.1203 -0.2695
 3092TIP3   OH230690   5.114   1.478   2.430 -0.0755 -0.3392 -0.0989
 3092TIP3    H130691   5.108   1.383   2.430  0.6133 -0.3995  2.0016
 3092TIP3    H230692   5.167   1.499   2.507 -1.2636  1.8030  0.1621
 3093TIP3   OH230693   3.749   6.087   0.919 -0.4836  0.0628 -0.3168
 3093TIP3    H130694   3.709   6.007   0.886  1.9451 -0.2353 -2.7659
 3093TIP3    H230695   3.769   6.138   0.840  3.5269  0.3296  0.7599
 3094TIP3   OH230696   5.915   6.273  14.957 -0.2278 -0.5026  0.3717
 3094TIP3    H130697   5.953   6.354  14.992  0.1661 -0.6278  0.2353
 3094TIP3    H230698   5.977   6.245  14.889  0.5723 -1.8798  1.6313
 3095TIP3   OH230699   2.296   2.080  15.463  0.5456  0.0792 -0.2081
 3095TIP3    H130700   2.262   2.001  15.421 -2.2235  1.8517 -1.4562
 3095TIP3    H230701   2.281   2.150  15.399 -0.7353  2.2817  2.3769
 3096TIP3   OH230702   1.325   1.661   0.396  0.3322  0.6740 -0.6317
 3096TIP3    H130703   1.356   1.585   0.445 -0.9913 -1.2118 -2.6392
 3096TIP3    H230704   1.308   1.628   0.308 -1.7864  2.9288 -1.1407
 3097TIP3   OH230705   2.570   6.057   6.565  0.6324  0.8103  0.4506
 3097TIP3    H130706   2.571   6.038   6.659 -0.4624  1.2396  0.5572
 3097TIP3    H230707   2.648   6.013   6.531 -0.0834 -1.1095  1.2210
 3098TIP3   OH230708   5.384   2.099  10.652  0.1029  0.6949  0.2922
 3098TIP3    H130709   5.386   2.003  10.651  0.0656  0.6993 -0.6840
 3098TIP3    H230710   5.450   2.125  10.588  0.1944  1.3293  0.6395
 3099TIP3   OH230711   1.240   3.265   5.578 -0.2248 -0.2764 -0.1281
 3099TIP3    H130712   1.256   3.171   5.585  0.1311 -0.1294  1.1065
 3099TIP3    H230713   1.298   3.293   5.507  1.6051 -0.5605  1.1920
 3100TIP3   OH230714   4.185   0.087  11.455  0.6498  0.6999  0.3402
 3100TIP3    H130715   4.198   0.118  11.545 -1.3052  1.1450  0.4961
 3100TIP3    H230716   4.147   0.163  11.410 -0.5787 -0.2618 -0.2553
 3101TIP3   OH230717   6.130   2.151   1.244  0.0223 -0.2386  0.1734
 3101TIP3    H130718   6.154   2.231   1.290 -0.6073 -0.0979  0.2699
 3101TIP3    H230719   6.187   2.148   1.168  0.4947 -0.0332  0.5189
 3102TIP3   OH230720   4.887   3.571   6.052  0.0445  0.3184 -0.2834
 3102TIP3    H130721   4.879   3.601   6.142  0.1670  0.9856 -0.4943
 3102TIP3    H230722   4.901   3.651   6.001 -1.3574  0.0767 -1.0633
 3103TIP3   OH230723   0.443   4.378   1.739  0.2255  0.3166  0.2837
 3103TIP3    H130724   0.493   4.458   1.757 -1.0069  0.8340  1.4110
 3103TIP3    H230725   0.393   4.398   1.659  0.2459  0.5124  0.3210
 3104TIP3   OH230726   3.220   5.257   6.103 -0.1949 -0.2149  0.3278
 3104TIP3    H130727   3.287   5.323   6.123 -3.6256  2.9540  2.0594
 3104TIP3    H230728   3.230   5.190   6.170  0.0217  1.2200  1.7349
 3105TIP3   OH230729   1.577   1.175  13.964 -0.2144  0.5754  0.1077
 3105TIP3    H130730   1.624   1.223  13.896  1.3238  0.0944  0.8121
 3105TIP3    H230731   1.621   1.090  13.968 -2.2291 -0.5284 -0.3888
 3106TIP3   OH230732   1.407   6.727  11.614  0.7791  0.4364  0.1229
 3106TIP3    H130733   1.346   6.799  11.597 -2.9221 -3.1447 -2.9100
 3106TIP3    H230734   1.394   6.706  11.706 -0.0069  1.9467  0.3784
 3107TIP3   OH230735   2.971   6.779   2.944  0.4685 -0.0343  0.3592
 3107TIP3    H130736   2.967   6.850   2.881 -0.1438 -0.4140 -0.0374
 3107TIP3    H230737   3.015   6.708   2.898  1.8194  0.3538  1.0225
 3108TIP3   OH230738   0.956   3.973  13.686  0.1474 -0.3846 -0.2776
 3108TIP3    H130739   1.048   3.986  13.707 -0.1971  0.9131  0.4341
 3108TIP3    H230740   0.943   3.879  13.695  0.8455 -0.2950  1.8722
 3109TIP3   OH230741   5.491   0.205  13.781  0.4995  0.8221 -0.4865
 3109TIP3    H130742   5.463   0.213  13.872 -0.3330 -1.0821 -0.5511
 3109TIP3    H230743   5.543   0.284  13.764 -0.0708  1.6051  1.3661
 3110TIP3   OH230744   4.956   6.695  13.896  0.0234  0.2196 -1.0065
 3110TIP3    H130745   4.883   6.752  13.918  0.1465 -0.0718  0.2276
 3110TIP3    H230746   4.950   6.682  13.802 -1.5681  0.1284 -0.9009
 3111TIP3   OH230747   2.407   0.994   3.936  0.3340  0.5549  0.5597
 3111TIP3    H130748   2.402   1.089   3.949  1.8517  0.6985  0.1986
 3111TIP3    H230749   2.323   0.961   3.968 -0.7808  2.1629 -0.5668
 3112TIP3   OH230750   3.408   2.868  14.249  0.1640 -0.1722  0.2023
 3112TIP3    H130751   3.319   2.892  14.222 -0.4908 -1.5971  1.0004
 3112TIP3    H230752   3.430   2.793  14.194  0.6325 -0.1968  0.4280
 3113TIP3   OH230753   3.717   0.385  13.152  0.1024  0.8000 -0.1910
 3113TIP3    H130754   3.625   0.358  13.153  0.2898  0.0344 -1.4840
 3113TIP3    H230755   3.742   0.390  13.244 -0.4434 -1.8651  0.1654
 3114TIP3   OH230756   3.133   5.841   4.774  0.1341  0.1039 -0.3214
 3114TIP3    H130757   3.191   5.912   4.801 -1.1066  0.7250  0.7343
 3114TIP3    H230758   3.111   5.796   4.855 -0.6800 -0.2824 -0.7544
 3115TIP3   OH230759   2.921   1.509   2.819 -0.2822 -0.0938  0.7249
 3115TIP3    H130760   3.012   1.492   2.842  0.5606  1.6667 -1.1289
 3115TIP3    H230761   2.903   1.447   2.749 -0.3209 -0.0812  0.7239
 3116TIP3   OH230762   0.626   4.321  15.629  0.2071  0.2151  0.7011
 3116TIP3    H130763   0.643   4.228  15.620  1.1990  0.3395  1.1613
 3116TIP3    H230764   0.612   4.352  15.540  0.2837 -0.3051  0.5072
 3117TIP3   OH230765   2.178   5.100  14.550 -0.6650  0.8007  0.4341
 3117TIP3    H130766   2.251   5.072  14.605 -0.2719  0.5644 -0.1958
 3117TIP3    H230767   2.107   5.119  14.611 -0.7470 -0.9929  0.9398
 3118TIP3   OH230768   5.805   0.052  14.292 -0.2122 -0.9098 -0.4088
 3118TIP3    H130769   5.857   0.028  14.215 -0.1828 -1.8869 -0.0865
 3118TIP3    H230770   5.773  -0.031  14.327 -0.6826 -0.4307  0.3174
 3119TIP3   OH230771   1.261   1.041  14.827  0.8712 -0.5437 -0.4999
 3119TIP3    H130772   1.215   1.013  14.906 -1.4410 -0.8316 -1.9267
 3119TIP3    H230773   1.269   1.136  14.837  0.0944 -0.5068 -0.1869
 3120TIP3   OH230774   5.599   4.716   1.014  0.1732  0.1833 -0.0204
 3120TIP3    H130775   5.577   4.699   0.923 -1.1263  1.6029 -0.0033
 3120TIP3    H230776   5.678   4.770   1.010  0.6552 -0.5251 -0.2593
 3121TIP3   OH230777   0.521   0.776   0.891 -0.2428  0.1595 -0.4578
 3121TIP3    H130778   0.449   0.769   0.827 -2.1931  2.3936  1.3776
 3121TIP3    H230779   0.495   0.719   0.963  1.4970 -1.6176 -1.1926
 3122TIP3   OH230780   3.266   6.747   2.552  0.3895 -0.0002 -0.1850
 3122TIP3    H130781   3.283   6.660   2.515  1.5548 -1.0709  2.7094
 3122TIP3    H230782   3.176   6.767   2.526  0.6586 -1.3204 -2.2682
 3123TIP3   OH230783   3.085   1.197   3.970 -0.1412  0.0403  0.1532
 3123TIP3    H130784   3.020   1.136   3.936  0.4405  0.0282 -0.9460
 3123TIP3    H230785   3.117   1.243   3.893  1.5845 -0.3704  0.6027
 3124TIP3   OH230786   4.318   4.620  16.269 -0.1660  0.7924 -0.0794
 3124TIP3    H130787   4.305   4.680  16.196 -0.7039  0.7382 -0.0290
 3124TIP3    H230788   4.324   4.533  16.228 -1.5164  0.6431  0.0286
 3125TIP3   OH230789   3.731   2.671  13.772  0.0651 -0.1244  0.0585
 3125TIP3    H130790   3.743   2.579  13.797  0.1294  0.2057  1.2451
 3125TIP3    H230791   3.642   2.692  13.799  0.7614  0.7706  1.6949
 3126TIP3   OH230792   0.471   6.132  16.556  0.1269  0.4407  0.2173
 3126TIP3    H130793   0.560   6.151  16.586  0.4587 -1.8505  0.7951
 3126TIP3    H230794   0.467   6.036  16.553 -2.0771  0.5345 -0.5463
 3127TIP3   OH230795   3.325   2.933  15.323  0.4220 -0.2672  0.2560
 3127TIP3    H130796   3.373   2.935  15.241  1.5737  0.8700  0.9484
 3127TIP3    H230797   3.390   2.955  15.390 -0.7721  0.0251  1.3429
 3128TIP3   OH230798   4.462   4.889   0.516 -0.5257 -0.5173  0.2738
 3128TIP3    H130799   4.391   4.922   0.462  0.1350  1.6891  0.7098
 3128TIP3    H230800   4.502   4.967   0.555  0.7188 -1.8620  1.8089
 3129TIP3   OH230801   4.451   3.104  11.508  0.1831  0.1473  0.2648
 3129TIP3    H130802   4.479   3.060  11.588 -0.6801  1.0953  1.1072
 3129TIP3    H230803   4.386   3.045  11.470 -0.4266  0.3426  0.9993
 3130TIP3   OH230804   3.218   0.671   2.456 -0.0377  0.3444 -0.8961
 3130TIP3    H130805   3.244   0.597   2.511 -0.7993  1.7531  1.4800
 3130TIP3    H230806   3.192   0.632   2.373 -1.0696 -2.1199  0.5299
 3131TIP3   OH230807   5.274   2.849  11.484  0.6847  0.0677 -0.4559
 3131TIP3    H130808   5.320   2.775  11.445 -1.0401 -1.1250 -0.2917
 3131TIP3    H230809   5.333   2.881  11.552  1.4634 -1.1225 -0.5591
 3132TIP3   OH230810   0.915   1.177   5.035 -0.4053 -0.6124  0.0681
 3132TIP3    H130811   0.925   1.269   5.063 -1.0691  0.2914 -2.5126
 3132TIP3    H230812   0.918   1.127   5.116  0.6831  1.6407  1.4751
 3133TIP3   OH230813   4.343   5.467  16.205 -0.8414  0.3375  0.4764
 3133TIP3    H130814   4.380   5.533  16.264 -1.5678  1.2569 -0.0816
 3133TIP3    H230815   4.417   5.412  16.180 -0.1550  1.1830  0.6332
 3134TIP3   OH230816   2.007   2.987  12.258  0.8040  0.0894  0.0075
 3134TIP3    H130817   1.947   3.061  12.247  0.9308  0.2396  0.3159
 3134TIP3    H230818   2.060   3.010  12.334 -1.1414 -1.6452  1.9629
 3135TIP3   OH230819   5.395   2.566   1.585  0.4478  0.0374  0.0036
 3135TIP3    H130820   5.322   2.626   1.604  0.5214  0.9019 -2.2111
 3135TIP3    H230821   5.361   2.508   1.517  0.9439 -1.3410  0.9281
 3136TIP3   OH230822   6.463   1.185  11.127  0.5116 -0.1243  0.5351
 3136TIP3    H130823   6.368   1.191  11.116  0.3898  0.3413  1.7467
 3136TIP3    H230824   6.494   1.275  11.116  0.9995 -0.5044 -1.3853
 3137TIP3   OH230825   4.473   5.921  15.523 -0.5909  0.0295 -0.2216
 3137TIP3    H130826   4.449   5.967  15.603 -0.4236  0.3688 -0.3678
 3137TIP3    H230827   4.391   5.881  15.493 -0.5384 -0.5829  0.4280
 3138TIP3   OH230828   5.327   5.126  12.558 -0.1475  0.4273  0.4514
 3138TIP3    H130829   5.329   5.050  12.615 -1.4694  0.4408  0.5203
 3138TIP3    H230830   5.371   5.195  12.608 -0.7080  0.2584  1.1787
 3139TIP3   OH230831   2.515   6.066  14.165  0.0769  0.7781  0.6896
 3139TIP3    H130832   2.595   6.105  14.202  2.2043 -1.1892 -1.7092
 3139TIP3    H230833   2.535   5.973  14.156 -2.4230  0.2871 -0.1798
 3140TIP3   OH230834   1.646   4.832  14.806 -0.0634  0.3528  0.5314
 3140TIP3    H130835   1.709   4.798  14.870 -0.7972 -1.0359  0.5245
 3140TIP3    H230836   1.688   4.818  14.721  0.5321  1.3877  0.6525
 3141TIP3   OH230837   4.165   0.780  16.672  0.4803 -1.0936 -0.0845
 3141TIP3    H130838   4.079   0.757  16.707  1.2211 -1.3784  1.5976
 3141TIP3    H230839   4.148   0.853  16.613 -1.0352 -1.7518 -0.5057
 3142TIP3   OH230840   5.563   0.129  11.032 -0.0105  0.1078 -0.7694
 3142TIP3    H130841   5.611   0.102  10.953  0.1218 -1.2491 -0.2275
 3142TIP3    H230842   5.579   0.223  11.038 -0.2068  0.2632 -2.4922
 3143TIP3   OH230843   4.664   0.163   1.882 -0.0422  0.2020  0.1366
 3143TIP3    H130844   4.570   0.170   1.896 -0.0792 -0.0675  0.0152
 3143TIP3    H230845   4.678   0.071   1.859  0.2675  0.2104  0.2898
 3144TIP3   OH230846   6.043   0.978  11.587 -0.1919 -0.3596  0.4666
 3144TIP3    H130847   6.110   0.911  11.601 -0.5863 -0.9518 -0.4003
 3144TIP3    H230848   6.007   0.995  11.674 -1.1899 -2.4504  0.5150
 3145TIP3   OH230849   3.694   5.791   5.605 -0.0598  0.3856 -0.1061
 3145TIP3    H130850   3.707   5.716   5.663  1.7486  0.7491 -0.0094
 3145TIP3    H230851   3.711   5.757   5.518  0.5626  0.6340 -0.0825
 3146TIP3   OH230852   3.987   0.572   5.785  0.0264 -0.2018  0.4016
 3146TIP3    H130853   3.952   0.569   5.874  2.0763 -0.4141  1.2237
 3146TIP3    H230854   4.005   0.665   5.770 -1.4242 -0.0120 -0.2546
 3147TIP3   OH230855   5.582   2.815  12.928  0.1298 -0.0043 -0.6510
 3147TIP3    H130856   5.580   2.733  12.976 -0.4733 -0.9696 -2.2637
 3147TIP3    H230857   5.644   2.870  12.975 -0.8443 -0.7021  1.5201
 3148TIP3   OH230858   6.470   5.422  11.078  0.3171 -0.1663 -0.1721
 3148TIP3    H130859   6.401   5.481  11.048  0.9973  1.0109  0.5518
 3148TIP3    H230860   6.442   5.335  11.048 -0.2951  0.6205 -1.9500
 3149TIP3   OH230861   4.017   1.636  14.891  0.1345 -0.5080  0.3931
 3149TIP3    H130862   3.926   1.611  14.874 -0.7607  1.8506  1.4635
 3149TIP3    H230863   4.051   1.566  14.947 -1.3406 -0.9187  0.7974
 3150TIP3   OH230864   5.026   2.103  16.675 -0.9007 -0.0499  0.0504
 3150TIP3    H130865   4.971   2.049  16.617 -0.2436  1.6932 -2.2811
 3150TIP3    H230866   4.967   2.130  16.745 -1.7363 -2.1937  0.2014
 3151TIP3   OH230867   5.737   0.479  13.332 -0.2466  0.2317  0.4002
 3151TIP3    H130868   5.805   0.470  13.265  0.1371  0.4038  0.7707
 3151TIP3    H230869   5.675   0.409  13.312  0.6278 -0.6604  0.7709
 3152TIP3   OH230870   2.721   2.956   1.674 -0.0143  0.3998  0.3364
 3152TIP3    H130871   2.701   2.875   1.721  3.7055 -0.4204  0.6384
 3152TIP3    H230872   2.694   3.026   1.735  0.0956 -0.6250  1.5855
 3153TIP3   OH230873   0.760   2.129   3.294 -0.3054 -0.2596  0.3644
 3153TIP3    H130874   0.819   2.056   3.274  1.6181  1.3794 -0.1552
 3153TIP3    H230875   0.777   2.149   3.386  1.3865  1.4253 -0.2790
 3154TIP3   OH230876   5.883   3.955  15.986 -0.2682 -0.8685 -0.3322
 3154TIP3    H130877   5.814   3.892  16.002 -1.8206  0.7390 -0.5304
 3154TIP3    H230878   5.840   4.028  15.941  1.2431  0.7989  0.8232
 3155TIP3   OH230879   0.697   6.014   2.613 -0.5741 -0.1691  0.2555
 3155TIP3    H130880   0.612   6.057   2.611 -1.5115 -2.0083 -2.9445
 3155TIP3    H230881   0.760   6.086   2.607 -1.8208  1.2004  2.5654
 3156TIP3   OH230882   2.491   2.424   4.727  0.5450  0.1688 -0.1138
 3156TIP3    H130883   2.549   2.485   4.680 -0.3764 -0.3139 -1.9459
 3156TIP3    H230884   2.411   2.475   4.742  0.0477 -0.3279 -0.9981
 3157TIP3   OH230885   4.387   6.671   5.369  0.0560 -0.2080  0.1222
 3157TIP3    H130886   4.390   6.602   5.303  0.0105  0.3212 -0.4353
 3157TIP3    H230887   4.444   6.740   5.335 -2.0486  1.1949 -0.6713
 3158TIP3   OH230888   0.463   5.594  13.298 -0.5513 -0.3277  0.2780
 3158TIP3    H130889   0.420   5.528  13.352  0.5579 -0.7765  0.6188
 3158TIP3    H230890   0.512   5.543  13.234  0.4159  0.1653  0.6279
 3159TIP3   OH230891   6.749   0.323   2.517 -0.6736  0.1192  0.0837
 3159TIP3    H130892   6.688   0.350   2.586 -0.4620 -0.2015  0.3949
 3159TIP3    H230893   6.779   0.236   2.544  1.5748  1.1677  1.0387
 3160TIP3   OH230894   4.027   5.217   3.006 -0.1810  0.0988 -0.3519
 3160TIP3    H130895   4.012   5.206   3.100 -0.7426 -0.0227 -0.4511
 3160TIP3    H230896   3.976   5.147   2.965  0.1541  0.0798 -0.7415
 3161TIP3   OH230897   2.638   5.633  16.806 -0.1819 -0.0921  0.5886
 3161TIP3    H130898   2.605   5.692  16.873 -0.8405 -1.2797  1.3229
 3161TIP3    H230899   2.659   5.552  16.854  3.0173  0.3353  0.0373
 3162TIP3   OH230900   2.025   1.899  13.380  0.1606 -0.0234 -0.2490
 3162TIP3    H130901   1.993   1.960  13.446  0.2043  0.6718 -0.8515
 3162TIP3    H230902   1.953   1.838  13.366  0.5359 -0.8108  1.1892
 3163TIP3   OH230903   4.636   1.760   2.754  0.2705  0.3140 -0.4707
 3163TIP3    H130904   4.578   1.831   2.782  0.0877  0.0362 -0.1428
 3163TIP3    H230905   4.579   1.699   2.709  0.4045  0.3069 -0.6290
 3164TIP3   OH230906   2.120   5.032  11.318  0.4549  0.1971 -0.1999
 3164TIP3    H130907   2.129   5.060  11.409  1.5447  2.7820 -1.0605
 3164TIP3    H230908   2.027   5.041  11.299  0.3146  0.2070  0.4837
 3165TIP3   OH230909   5.470   1.606  14.997  0.1358 -0.0801  0.3708
 3165TIP3    H130910   5.432   1.691  14.978 -0.4847  0.5694  4.1234
 3165TIP3    H230911   5.562   1.624  15.016 -0.2576 -0.0543  2.3145
 3166TIP3   OH230912   1.124   2.383   6.296  0.2961  0.5022 -0.1757
 3166TIP3    H130913   1.198   2.427   6.337 -0.5737  0.9931  0.9158
 3166TIP3    H230914   1.073   2.454   6.255  0.4727  0.1617 -0.9947
 3167TIP3   OH230915   6.680   4.277  15.279 -0.4866 -0.5987  0.4449
 3167TIP3    H130916   6.703   4.202  15.223  0.9719  1.0587 -1.2760
 3167TIP3    H230917   6.592   4.301  15.252  0.3524  0.4385 -1.5267
 3168TIP3   OH230918   2.227   4.111   0.170  0.2175  0.2390  0.7162
 3168TIP3    H130919   2.187   4.177   0.113  0.3295  0.5941  1.0441
 3168TIP3    H230920   2.153   4.072   0.216  0.2461  0.9581  1.3874
 3169TIP3   OH230921   4.132   4.717   2.829  0.5527  0.4642  0.2116
 3169TIP3    H130922   4.217   4.711   2.786 -0.1665 -3.7281 -0.8039
 3169TIP3    H230923   4.142   4.666   2.910 -0.7314  0.6932  0.5335
 3170TIP3   OH230924   4.780   6.649  15.927  0.0457 -0.1719 -0.6758
 3170TIP3    H130925   4.855   6.598  15.897  0.6753 -0.3547  1.1070
 3170TIP3    H230926   4.772   6.626  16.020 -1.9093  0.2305 -0.7258
 3171TIP3   OH230927   4.011   4.596   0.582  0.0720 -0.3919  0.0527
 3171TIP3    H130928   3.939   4.659   0.571  0.1404 -0.6458 -1.8662
 3171TIP3    H230929   4.020   4.589   0.677 -1.8399  0.3395  0.3295
 3172TIP3   OH230930   4.831   0.835  16.492 -0.1088 -0.3615 -0.7268
 3172TIP3    H130931   4.837   0.795  16.405  0.8155 -1.5966 -0.1134
 3172TIP3    H230932   4.785   0.771  16.545  3.2460 -1.6204  0.8004
 3173TIP3   OH230933   5.487   3.267   6.598  0.1506 -0.3488 -0.1307
 3173TIP3    H130934   5.433   3.334   6.641  1.6185  1.2209 -0.6870
 3173TIP3    H230935   5.575   3.282   6.630  0.5681 -1.7988 -0.5586
 3174TIP3   OH230936   2.536   2.060  16.978 -0.0376 -0.7170 -0.1562
 3174TIP3    H130937   2.545   1.976  17.023 -0.9776 -0.8187 -0.1390
 3174TIP3    H230938   2.618   2.072  16.931  0.1847 -1.5432  0.0221
 3175TIP3   OH230939   5.842   5.198   4.205 -0.1244  0.3734  0.2667
 3175TIP3    H130940   5.925   5.240   4.182 -0.3828 -0.0015 -1.4656
 3175TIP3    H230941   5.845   5.187   4.300  2.8039 -1.6804  0.0029
 3176TIP3   OH230942   5.872   0.422   5.840  0.5542 -0.0983 -0.2612
 3176TIP3    H130943   5.810   0.357   5.873  0.1110  0.7798  0.6866
 3176TIP3    H230944   5.946   0.417   5.901  1.6366 -1.4428 -1.6344
 3177TIP3   OH230945   0.056   3.061  11.550 -0.3541 -0.2808 -0.2695
 3177TIP3    H130946   0.009   3.057  11.467 -1.6911  1.7325  0.3612
 3177TIP3    H230947   0.054   3.153  11.575  0.4618 -0.7753  1.7494
 3178TIP3   OH230948   2.779   4.130   5.984  0.4571  0.3944  0.5814
 3178TIP3    H130949   2.729   4.050   6.001  1.6735 -0.4192  0.3279
 3178TIP3    H230950   2.793   4.168   6.071  0.0285  0.2455  0.7159
 3179TIP3   OH230951   3.569   4.312   2.932  0.1204  0.3931 -0.5012
 3179TIP3    H130952   3.500   4.253   2.963  0.0794  0.2905 -0.7847
 3179TIP3    H230953   3.580   4.375   3.003  2.1603 -1.6394  1.0225
 3180TIP3   OH230954   3.496   2.777  14.491  0.3856 -0.0627 -0.3270
 3180TIP3    H130955   3.490   2.835  14.567  0.3827 -0.0446 -0.3413
 3180TIP3    H230956   3.462   2.828  14.418  0.6052  0.0013 -0.3843
 3181TIP3   OH230957   0.564   6.090   1.279 -0.5389  0.3936  0.1816
 3181TIP3    H130958   0.607   6.105   1.363 -1.2871  1.6025  0.3672
 3181TIP3    H230959   0.516   6.171   1.262 -0.7131  0.0117 -1.2232
 3182TIP3   OH230960   2.546   1.624   2.336  0.4054  0.1221 -0.3381
 3182TIP3    H130961   2.463   1.602   2.293  0.7694  0.1652 -1.0796
 3182TIP3    H230962   2.520   1.662   2.420 -0.2613 -1.7580  0.3342
 3183TIP3   OH230963   1.282   2.980   6.420  0.1199  0.1230 -0.6193
 3183TIP3    H130964   1.205   3.023   6.383  0.1358 -0.1975 -1.0247
 3183TIP3    H230965   1.264   2.887   6.410 -0.1413  0.0105  0.7040
 3184TIP3   OH230966   6.624   4.556   2.350  0.0506 -0.3099  0.1212
 3184TIP3    H130967   6.647   4.619   2.281 -0.6125 -0.7842 -0.5362
 3184TIP3    H230968   6.704   4.549   2.403  0.1212  1.0864  0.2028
 3185TIP3   OH230969   0.305   2.979   1.336  0.8886  0.3241 -0.0452
 3185TIP3    H130970   0.244   2.976   1.410  0.7950 -0.5866 -0.1537
 3185TIP3    H230971   0.264   3.040   1.274  0.4744  0.3164  0.2190
 3186TIP3   OH230972   3.349   3.923   1.003 -0.1410  0.4213 -0.3819
 3186TIP3    H130973   3.328   3.840   0.960  1.1089  0.2305 -0.6313
 3186TIP3    H230974   3.440   3.914   1.031 -0.6936  0.8143  1.6876
 3187TIP3   OH230975   3.061   2.545   1.169 -0.0547  0.2830  0.0105
 3187TIP3    H130976   3.142   2.531   1.120  0.7532  0.6578  1.2204
 3187TIP3    H230977   3.030   2.631   1.139 -0.8218 -0.5422 -1.5783
 3188TIP3   OH230978   3.737   3.172  14.586  0.2562 -0.0773 -0.3422
 3188TIP3    H130979   3.778   3.111  14.525 -1.1215 -0.1666 -1.1933
 3188TIP3    H230980   3.669   3.121  14.629  0.1845  0.4154  0.1443
 3189TIP3   OH230981   1.174   2.252   0.774  0.6947 -0.2707 -0.0938
 3189TIP3    H130982   1.222   2.291   0.847  0.5476  0.5179 -0.4156
 3189TIP3    H230983   1.204   2.161   0.772  0.6037 -0.3365  1.0241
 3190TIP3   OH230984   0.947   3.045   1.007  0.5060 -0.1330  0.5036
 3190TIP3    H130985   0.947   3.063   0.913  1.2075 -0.3827  0.4492
 3190TIP3    H230986   0.857   3.022   1.028  0.4885 -0.7832 -0.2497
 3191TIP3   OH230987   1.675   2.276   4.040 -0.4012  0.1646  0.2202
 3191TIP3    H130988   1.652   2.198   3.990  1.7786  0.0182 -0.6166
 3191TIP3    H230989   1.634   2.348   3.992 -2.2765 -0.4435  0.9022
 3192TIP3   OH230990   0.876   0.674  14.057 -0.4719  0.0352 -0.0120
 3192TIP3    H130991   0.854   0.649  14.147 -1.2864  1.9758  0.3497
 3192TIP3    H230992   0.802   0.726  14.027  0.0298 -0.1479 -1.6339
 3193TIP3   OH230993   0.925   0.946  15.424 -0.3739 -0.2113  0.2433
 3193TIP3    H130994   1.011   0.962  15.464  0.4598 -0.8811 -1.2621
 3193TIP3    H230995   0.914   0.851  15.429  0.1251 -0.3903 -1.9049
 3194TIP3   OH230996   3.660   2.264  11.303 -0.2301 -0.9033  0.0921
 3194TIP3    H130997   3.600   2.224  11.367 -1.5984 -1.1619 -1.3341
 3194TIP3    H230998   3.606   2.326  11.255  1.0454  0.0395 -0.1505
 3195TIP3   OH230999   2.852   4.230   1.975  0.1777 -0.0977 -0.1624
 3195TIP3    H131000   2.872   4.154   2.030 -1.9525 -0.6553 -0.1015
 3195TIP3    H231001   2.810   4.292   2.034  0.0662  0.2935 -0.6491
 3196TIP3   OH231002   2.153   0.005  15.534 -0.0364  0.2165  0.3438
 3196TIP3    H131003   2.113  -0.076  15.502  0.8215  0.0304 -0.2721
 3196TIP3    H231004   2.095   0.034  15.604 -1.2893 -0.0087 -0.5812
 3197TIP3   OH231005   3.599   0.707   0.393  0.3195 -0.0310 -0.4348
 3197TIP3    H131006   3.639   0.670   0.472  0.5430 -2.6757 -1.7281
 3197TIP3    H231007   3.541   0.775   0.426 -0.6065 -1.9658  2.1298
 3198TIP3   OH231008   2.804   5.058   3.432  0.6152  0.0654  0.2567
 3198TIP3    H131009   2.743   5.120   3.393 -0.2012 -1.3792 -0.8139
 3198TIP3    H231010   2.884   5.108   3.446 -0.0367  1.3556 -0.5552
 3199TIP3   OH231011   2.564   0.944  13.187 -0.1982 -0.0033  0.0728
 3199TIP3    H131012   2.562   1.004  13.112 -2.1999  1.7665  1.4834
 3199TIP3    H231013   2.625   0.985  13.248  0.0917 -0.5258  0.1304
 3200TIP3   OH231014   0.083   4.121  16.096 -0.5511 -0.0010 -0.1802
 3200TIP3    H131015   0.098   4.041  16.146 -0.7579  0.5969  0.8454
 3200TIP3    H231016  -0.012   4.134  16.101 -0.5315  0.2407 -0.4455
 3201TIP3   OH231017   2.838   4.234   3.049 -0.4940  0.3956 -0.1572
 3201TIP3    H131018   2.788   4.309   3.084 -2.9051 -1.4205  0.4150
 3201TIP3    H231019   2.813   4.230   2.957 -0.4300  0.2261 -0.1656
 3202TIP3   OH231020   1.871   2.750  12.283 -0.1537 -0.4395  0.1855
 3202TIP3    H131021   1.917   2.683  12.232 -0.8932 -1.4704  0.8617
 3202TIP3    H231022   1.905   2.833  12.249  1.1076 -1.1584 -0.3442
 3203TIP3   OH231023   2.784   3.370   4.983 -0.6291 -0.3262 -0.0164
 3203TIP3    H131024   2.806   3.435   5.049 -1.3409 -0.3654  0.2631
 3203TIP3    H231025   2.711   3.409   4.934 -0.5001 -0.5493 -0.3873
 3204TIP3   OH231026   5.538   2.651  14.691 -0.0547 -0.3701  0.0346
 3204TIP3    H131027   5.527   2.635  14.785 -1.6465 -0.2355 -0.1096
 3204TIP3    H231028   5.499   2.574  14.649  1.8706 -1.0727 -0.5085
 3205TIP3   OH231029   5.725   0.217  15.440  0.3518 -0.3238 -0.0570
 3205TIP3    H131030   5.644   0.268  15.428  0.6932 -0.0718 -1.3231
 3205TIP3    H231031   5.724   0.193  15.533  0.5294  2.6017  0.7652
 3206TIP3   OH231032   5.820   2.442   5.981 -0.2775 -0.5676  0.3216
 3206TIP3    H131033   5.859   2.425   6.067  0.0423 -0.0026  0.2899
 3206TIP3    H231034   5.853   2.529   5.956 -1.1842 -0.2849  0.0863
 3207TIP3   OH231035   5.797   6.551   4.221 -0.0154 -0.0537 -0.0077
 3207TIP3    H131036   5.862   6.490   4.257  0.6699 -0.2309 -1.5104
 3207TIP3    H231037   5.847   6.631   4.202 -0.4245  0.1365 -0.2938
 3208TIP3   OH231038   6.697   5.257   0.774  0.0342 -0.4033  0.2724
 3208TIP3    H131039   6.633   5.309   0.823  1.1302 -0.1774  1.5141
 3208TIP3    H231040   6.738   5.319   0.714 -1.6120 -0.7706 -1.2624
 3209TIP3   OH231041   1.288   1.210   3.804 -0.0323 -0.3184 -0.0342
 3209TIP3    H131042   1.300   1.150   3.877 -0.7429 -0.6798 -0.2076
 3209TIP3    H231043   1.206   1.182   3.763 -0.2414  0.6168 -0.2620
 3210TIP3   OH231044   1.718   6.735   5.784 -0.0251 -0.7652  0.4630
 3210TIP3    H131045   1.680   6.657   5.825  1.3847 -1.6388  0.1736
 3210TIP3    H231046   1.765   6.779   5.854 -0.9464 -0.0870  0.6592
 3211TIP3   OH231047   6.615   4.394   6.566 -0.0545  0.2613 -0.1918
 3211TIP3    H131048   6.576   4.341   6.637 -0.9290  0.9611 -0.1437
 3211TIP3    H231049   6.665   4.331   6.514  0.9687 -0.1914  1.3079
 3212TIP3   OH231050   2.361   1.850  16.377 -0.3403 -0.1446 -0.4813
 3212TIP3    H131051   2.387   1.923  16.321  2.1457 -1.8708 -1.7251
 3212TIP3    H231052   2.440   1.796  16.383 -1.5506 -1.7317  1.9776
 3213TIP3   OH231053   2.290   0.385  13.231  0.0401  0.2733  0.1835
 3213TIP3    H131054   2.259   0.471  13.261 -0.9904 -0.2535  0.6388
 3213TIP3    H231055   2.362   0.406  13.171 -0.2529  1.4567  0.2230
 3214TIP3   OH231056   1.265   6.218  16.944 -0.4981  0.1197  0.0975
 3214TIP3    H131057   1.175   6.192  16.926 -0.5223  0.2693  0.0042
 3214TIP3    H231058   1.263   6.247  17.035 -0.3659 -0.6807  0.3650
 3215TIP3   OH231059   4.341   1.322   0.832 -0.5663  0.1363  0.4896
 3215TIP3    H131060   4.301   1.249   0.785 -1.1487  1.4639 -1.1135
 3215TIP3    H231061   4.434   1.317   0.809 -0.6360  0.0071  0.2378
 3216TIP3   OH231062   1.205   1.978  14.475  0.6178 -0.4663  0.2248
 3216TIP3    H131063   1.141   1.934  14.420  1.5118 -0.4180 -0.8703
 3216TIP3    H231064   1.290   1.942  14.447  1.3347  1.6565 -0.4246
 3217TIP3   OH231065   1.874   6.025  13.095 -0.5067 -0.1340 -0.0332
 3217TIP3    H131066   1.787   5.987  13.083 -0.7684  0.1927  0.7697
 3217TIP3    H231067   1.905   5.987  13.178  0.6290 -1.2096 -0.9356
 3218TIP3   OH231068   0.333   5.129  14.517  0.1056 -0.3961 -0.0658
 3218TIP3    H131069   0.376   5.090  14.441  1.8487  2.4399 -0.6117
 3218TIP3    H231070   0.401   5.134  14.583 -1.0250 -1.5002  1.2045
 3219TIP3   OH231071   0.158   2.833  17.044  0.2047  0.1844 -0.2201
 3219TIP3    H131072   0.117   2.749  17.062 -0.8714  0.2466 -2.2455
 3219TIP3    H231073   0.094   2.898  17.072  1.1990  0.3521  1.7206
 3220TIP3   OH231074   2.742   6.674  16.380 -0.4657 -0.3781  0.2360
 3220TIP3    H131075   2.756   6.614  16.307 -0.9876 -0.5580  0.2800
 3220TIP3    H231076   2.757   6.761  16.343 -3.3244 -0.2478 -0.8086
 3221TIP3   OH231077   5.754   2.785  15.390  0.1793 -0.2713 -0.1943
 3221TIP3    H131078   5.811   2.763  15.464 -0.7623 -1.1962  0.2715
 3221TIP3    H231079   5.808   2.840  15.334  1.0766  0.0103  0.9255
 3222TIP3   OH231080   5.068   3.901   5.165  0.4182  0.2050 -0.5536
 3222TIP3    H131081   5.079   3.972   5.101  1.3870 -0.6897 -1.3988
 3222TIP3    H231082   4.979   3.912   5.197  1.0316  2.7135  0.4322
 3223TIP3   OH231083   6.612   3.874  17.039 -0.6636  0.6516  0.0854
 3223TIP3    H131084   6.532   3.893  16.990  0.5644  1.9702 -1.4931
 3223TIP3    H231085   6.648   3.796  16.997 -0.1099  1.2241 -0.5281
 3224TIP3   OH231086   5.178   1.108  13.973  0.5497 -0.1322  0.5847
 3224TIP3    H131087   5.124   1.029  13.979  0.6810 -0.2598  0.0545
 3224TIP3    H231088   5.268   1.076  13.973  0.5973  0.0020  0.0810
 3225TIP3   OH231089   6.605   5.135  12.741  0.5314  0.1535  0.4857
 3225TIP3    H131090   6.632   5.121  12.651 -0.5003  1.9281 -0.1357
 3225TIP3    H231091   6.642   5.221  12.764 -0.5268  0.4322  1.2011
 3226TIP3   OH231092   4.809   3.109   5.054 -0.0690  0.1204  0.4203
 3226TIP3    H131093   4.798   3.143   4.966 -0.0527  1.6930  1.0149
 3226TIP3    H231094   4.723   3.117   5.094 -0.0876 -0.6280  0.5489
 3227TIP3   OH231095   3.300   3.091   2.756 -0.3105 -0.2311  0.3866
 3227TIP3    H131096   3.384   3.074   2.799  0.8715  0.0786 -1.7411
 3227TIP3    H231097   3.243   3.020   2.788  1.7324 -2.4607 -0.7146
 3228TIP3   OH231098   5.496   4.043  12.184  0.0583 -0.2846 -0.4832
 3228TIP3    H131099   5.400   4.044  12.193 -0.0328 -1.4393 -1.1673
 3228TIP3    H231100   5.526   3.999  12.264  0.0844  0.8906  0.1630
 3229TIP3   OH231101   0.756   0.706   2.369 -0.6194 -0.5481  0.3079
 3229TIP3    H131102   0.731   0.720   2.278 -0.6130 -2.2378  0.0298
 3229TIP3    H231103   0.685   0.746   2.420 -1.1400 -0.5105 -0.4389
 3230TIP3   OH231104   4.118   3.991   1.174 -0.4309 -0.2467  0.1638
 3230TIP3    H131105   4.201   4.039   1.173 -0.4932 -0.0340  2.0082
 3230TIP3    H231106   4.135   3.915   1.230 -1.6811  0.1979  1.1663
 3231TIP3   OH231107   0.479   5.452   6.072 -0.1969 -0.1313 -0.6313
 3231TIP3    H131108   0.409   5.516   6.063  1.3121  1.8904  1.2500
 3231TIP3    H231109   0.447   5.390   6.137 -0.0355  1.1363  0.6858
 3232TIP3   OH231110   4.779   2.795   0.860  0.1950  0.3326  0.6768
 3232TIP3    H131111   4.728   2.797   0.942  0.8501 -0.0406  1.1000
 3232TIP3    H231112   4.864   2.832   0.884  0.6307 -0.4403  0.3392
 3233TIP3   OH231113   2.606   1.005  13.614  0.0811  0.0663 -0.0063
 3233TIP3    H131114   2.632   0.912  13.613  1.1576  0.3383  1.0168
 3233TIP3    H231115   2.690   1.052  13.614 -0.4393  1.0015  1.9933
 3234TIP3   OH231116   3.384   2.381   1.720  0.4233  0.4594  0.4637
 3234TIP3    H131117   3.469   2.419   1.743  0.9476 -0.1877 -0.3909
 3234TIP3    H231118   3.345   2.444   1.660  0.4511  0.5875  0.5789
 3235TIP3   OH231119   4.879   2.482  16.164 -0.1876 -0.0467  0.2071
 3235TIP3    H131120   4.946   2.545  16.139  0.0425  0.2415  1.5305
 3235TIP3    H231121   4.827   2.470  16.084  0.4419  0.9517 -0.3691
 3236TIP3   OH231122   4.867   4.984   1.861 -0.3300  0.0038 -0.6554
 3236TIP3    H131123   4.922   5.010   1.935  0.3105 -1.4339 -0.6015
 3236TIP3    H231124   4.792   5.044   1.864 -0.2154  0.0809  1.0451
 3237TIP3   OH231125   6.261   0.427  15.345 -0.3508 -0.3579 -0.5209
 3237TIP3    H131126   6.344   0.384  15.366 -0.9664 -1.3644 -0.1299
 3237TIP3    H231127   6.210   0.361  15.300 -0.6126  0.5348 -1.5514
 3238TIP3   OH231128   4.370   6.659   0.494  0.3628  0.1626  0.1190
 3238TIP3    H131129   4.275   6.654   0.503  0.2779  1.7282  0.1992
 3238TIP3    H231130   4.397   6.725   0.558  1.3332  0.8648 -0.9890
 3239TIP3   OH231131   6.682   0.813  13.039 -0.2747 -0.1338 -0.4089
 3239TIP3    H131132   6.655   0.774  13.122 -2.4667  1.0008 -0.5444
 3239TIP3    H231133   6.765   0.857  13.058 -0.3833 -0.5205  0.9850
 3240TIP3   OH231134   3.609   3.671   2.931 -0.8848 -0.2764 -0.3602
 3240TIP3    H131135   3.700   3.653   2.906  0.3702  2.0646  2.2192
 3240TIP3    H231136   3.590   3.608   3.000 -0.7658  0.0692 -0.0089
 3241TIP3   OH231137   4.316   2.830   0.854  0.4696  0.3023 -0.0207
 3241TIP3    H131138   4.242   2.774   0.880  1.1322  0.2500  1.8118
 3241TIP3    H231139   4.282   2.881   0.781 -1.7429  1.0431  1.4685
 3242TIP3   OH231140   6.269   2.368   0.173  0.3497 -0.4501  0.0359
 3242TIP3    H131141   6.214   2.446   0.182  0.0245 -0.6821  0.0879
 3242TIP3    H231142   6.206   2.296   0.165  0.6518 -0.6471 -0.5262
 3243TIP3   OH231143   3.857   2.092  15.155  0.5574 -0.1314  0.0794
 3243TIP3    H131144   3.770   2.129  15.139  0.1186 -0.8383  0.7886
 3243TIP3    H231145   3.918   2.161  15.129 -0.2084  0.2730 -0.6656
 3244TIP3   OH231146   5.975   3.421  15.556  0.2214 -0.2892  0.5471
 3244TIP3    H131147   6.013   3.418  15.468 -0.8895  1.5161 -0.0401
 3244TIP3    H231148   5.964   3.514  15.574 -2.5380 -0.6958  1.2649
 3245TIP3   OH231149   3.602   1.879   4.606  0.2187  0.6064  0.2350
 3245TIP3    H131150   3.611   1.789   4.574 -0.2772  0.8602 -0.6369
 3245TIP3    H231151   3.622   1.874   4.700 -0.0909 -0.4551  0.2405
 3246TIP3   OH231152   0.498   6.237  12.229  0.3873 -0.4299  0.4378
 3246TIP3    H131153   0.428   6.296  12.199  0.3486  0.3352  2.0073
 3246TIP3    H231154   0.574   6.261  12.176  0.3013  0.8470  0.8942
 3247TIP3   OH231155   6.594   1.476   4.611 -0.2311 -0.1874  0.0886
 3247TIP3    H131156   6.560   1.454   4.525  0.1048  2.2181 -0.7089
 3247TIP3    H231157   6.516   1.488   4.665 -0.4667 -0.9480 -0.0849
 3248TIP3   OH231158   4.487   1.922  15.901  0.6889  0.1620 -0.0658
 3248TIP3    H131159   4.423   1.974  15.950  0.9113 -0.0640  0.4720
 3248TIP3    H231160   4.491   1.839  15.948  0.9062 -0.0589 -0.4699
 3249TIP3   OH231161   0.357   6.068  11.690  0.3897  0.3366 -0.0638
 3249TIP3    H131162   0.397   5.981  11.677 -1.3623 -0.5550  0.3458
 3249TIP3    H231163   0.262   6.051  11.690 -0.0090  2.3929 -0.9965
 3250TIP3   OH231164   6.725   6.355  11.525 -0.2164  0.2135 -0.0395
 3250TIP3    H131165   6.662   6.290  11.495 -0.3500 -0.5384  1.8288
 3250TIP3    H231166   6.707   6.365  11.618  1.2547  1.3019  0.1482
 3251TIP3   OH231167   1.407   5.364  17.046  0.1683  0.6417  0.7558
 3251TIP3    H131168   1.413   5.301  17.117  0.0035  2.5620  2.5462
 3251TIP3    H231169   1.497   5.395  17.034  0.6958 -1.7271 -1.8652
 3252TIP3   OH231170   4.206   1.450   5.230 -0.4614  0.0566  0.2459
 3252TIP3    H131171   4.234   1.371   5.276 -0.8799 -0.5936 -0.6188
 3252TIP3    H231172   4.163   1.503   5.298  0.5304 -0.0907  1.0009
 3253TIP3   OH231173   1.182   3.250   4.513  0.5088  0.4546  0.0139
 3253TIP3    H131174   1.096   3.290   4.526  1.4629  2.5006  0.3175
 3253TIP3    H231175   1.189   3.186   4.584 -0.3066  1.0786  0.6732
 3254TIP3   OH231176   5.716   4.820  14.340  0.2309  0.1062  0.0571
 3254TIP3    H131177   5.684   4.793  14.254 -0.0664 -0.2174  0.2728
 3254TIP3    H231178   5.639   4.852  14.386  0.4735  0.7410  0.0277
 3255TIP3   OH231179   6.057   3.390  16.461 -0.1798 -0.1540  0.5590
 3255TIP3    H131180   6.033   3.475  16.497  0.1703  0.4746 -0.6335
 3255TIP3    H231181   5.999   3.327  16.504  0.3239  0.5381  2.2931
 3256TIP3   OH231182   5.264   5.191  14.596 -0.4259  0.7256  0.3369
 3256TIP3    H131183   5.182   5.145  14.577 -1.1049  1.4531  1.4339
 3256TIP3    H231184   5.325   5.122  14.624 -0.4872  0.1148 -1.0119
 3257TIP3   OH231185   6.330   2.791   6.005  0.3482  0.4582  0.2578
 3257TIP3    H131186   6.282   2.745   5.936 -0.9436  0.3032  1.2429
 3257TIP3    H231187   6.356   2.722   6.066  1.9877  0.5196 -0.3542
 3258TIP3   OH231188   0.252   0.751  16.296 -0.7250 -0.5222  0.0106
 3258TIP3    H131189   0.324   0.771  16.356 -1.2420  1.0162  0.1396
 3258TIP3    H231190   0.288   0.773  16.209 -1.1254  0.5694  0.1065
 3259TIP3   OH231191   1.239   0.627   0.747  0.5069  0.8286 -0.2246
 3259TIP3    H131192   1.186   0.631   0.667 -3.1448  1.7889  2.1117
 3259TIP3    H231193   1.253   0.718   0.771 -0.4635  0.5560  1.4725
 3260TIP3   OH231194   2.788   2.111  13.152  0.0760 -0.0630 -0.2316
 3260TIP3    H131195   2.742   2.044  13.101 -2.0199  0.9870  0.2145
 3260TIP3    H231196   2.724   2.182  13.161  2.1108  1.8446 -0.3584
 3261TIP3   OH231197   4.696   5.691   3.088  0.2030 -0.0252  0.1454
 3261TIP3    H131198   4.614   5.737   3.071  0.2954  0.4245  0.9238
 3261TIP3    H231199   4.675   5.628   3.157  0.3217 -0.4584 -0.2095
 3262TIP3   OH231200   0.969   4.541   4.707 -0.4036 -0.1892 -0.2211
 3262TIP3    H131201   1.009   4.567   4.623 -0.5592  0.6999 -0.0288
 3262TIP3    H231202   0.969   4.445   4.705  0.4336 -0.1834 -0.8416
 3263TIP3   OH231203   0.287   5.942   3.149  0.2315  0.1374  0.6744
 3263TIP3    H131204   0.232   6.012   3.113  0.9087 -0.8734 -2.5314
 3263TIP3    H231205   0.357   5.987   3.195  0.1019  1.5636 -0.4895
 3264TIP3   OH231206   1.721   5.079  13.678  0.5341 -0.2171 -0.8555
 3264TIP3    H131207   1.734   4.991  13.713  1.0853 -0.0161 -0.5393
 3264TIP3    H231208   1.728   5.137  13.755 -0.0834  0.0827 -1.0202
 3265TIP3   OH231209   4.108   6.262  14.600  0.1079  0.0515 -0.0515
 3265TIP3    H131210   4.134   6.299  14.685  1.9141  1.0478 -1.0094
 3265TIP3    H231211   4.025   6.305  14.580 -1.7915 -2.2725  2.4886
 3266TIP3   OH231212   5.578   2.883   1.270  0.0267 -0.3817  0.1429
 3266TIP3    H131213   5.512   2.819   1.242  1.0284 -0.4310 -2.2193
 3266TIP3    H231214   5.641   2.886   1.197  1.0522  1.8420  1.0843
 3267TIP3   OH231215   4.473   0.774   3.553 -0.8166  0.0748  0.2618
 3267TIP3    H131216   4.468   0.686   3.591  0.5190  0.0705  0.4438
 3267TIP3    H231217   4.562   0.781   3.519 -1.0359  1.2135 -0.1134
 3268TIP3   OH231218   3.279   3.051   3.259 -0.4038  0.0353  0.1914
 3268TIP3    H131219   3.268   2.979   3.321 -1.0232 -0.9795 -1.0540
 3268TIP3    H231220   3.190   3.070   3.228 -0.0308 -0.0109 -0.9501
 3269TIP3   OH231221   1.320   5.442   4.439 -0.4878  0.2474  0.4530
 3269TIP3    H131222   1.271   5.517   4.472 -1.2389  0.2750 -0.6838
 3269TIP3    H231223   1.377   5.416   4.511 -1.9399  0.4263  1.6957
 3270TIP3   OH231224   6.321   0.908   1.527 -0.4774  0.1791 -0.2236
 3270TIP3    H131225   6.248   0.954   1.485 -0.0760  0.7087 -0.3559
 3270TIP3    H231226   6.291   0.818   1.537 -1.1016  0.3676 -0.3919
 3271TIP3   OH231227   5.297   5.844  10.007 -0.1602  0.0266  0.2871
 3271TIP3    H131228   5.344   5.926  10.027 -0.3891  0.4426 -0.8644
 3271TIP3    H231229   5.221   5.846  10.066 -0.9207  1.3298 -0.7138
 3272TIP3   OH231230   0.992   0.553   5.410 -0.6878 -0.3375  0.5989
 3272TIP3    H131231   1.047   0.517   5.479  0.1937  0.4457  0.3106
 3272TIP3    H231232   0.946   0.626   5.452 -0.1484  0.1415  0.3574
 3273TIP3   OH231233   0.753   2.410  17.029 -0.5339  0.1123  1.1423
 3273TIP3    H131234   0.758   2.488  17.084 -1.7903  0.8466  0.2409
 3273TIP3    H231235   0.673   2.423  16.976  0.3827 -0.7757 -0.5092
 3274TIP3   OH231236   6.240   6.163  13.487 -0.3273 -0.2911 -0.2592
 3274TIP3    H131237   6.270   6.247  13.523 -0.2861 -0.6349  0.5266
 3274TIP3    H231238   6.264   6.166  13.395  0.5278  0.1709 -0.0246
 3275TIP3   OH231239   6.215   1.211  11.777 -0.2188 -0.3615  0.1790
 3275TIP3    H131240   6.290   1.235  11.724 -0.3276 -1.2470 -0.3965
 3275TIP3    H231241   6.230   1.119  11.799 -0.6158 -0.2484  0.9343
 3276TIP3   OH231242   6.706   5.857   5.302 -0.3324  0.2871  0.5021
 3276TIP3    H131243   6.668   5.803   5.371 -0.3743  1.9431  1.8369
 3276TIP3    H231244   6.685   5.947   5.329 -0.5318  0.9496 -1.8033
 3277TIP3   OH231245   5.782   3.768   2.954  0.4563  0.0732 -0.2238
 3277TIP3    H131246   5.830   3.821   2.890  0.6948  1.9985  1.5241
 3277TIP3    H231247   5.711   3.824   2.984 -0.8241 -1.5145 -0.2053
 3278TIP3   OH231248   3.293   4.688   0.049  0.2976 -0.2021 -0.2978
 3278TIP3    H131249   3.293   4.648  -0.038 -2.1586 -0.0511 -0.3957
 3278TIP3    H231250   3.277   4.780   0.033  1.0866  0.0433  0.2608
 3279TIP3   OH231251   0.904   4.670   4.192  0.5244  0.0328 -0.0625
 3279TIP3    H131252   0.825   4.638   4.235  1.1295  0.4960  1.4465
 3279TIP3    H231253   0.967   4.682   4.264  2.6281 -2.2077 -1.4474
 3280TIP3   OH231254   5.937   2.297  12.520  0.0507 -0.2009  0.7846
 3280TIP3    H131255   5.860   2.304  12.577 -0.6067 -0.2644 -0.0842
 3280TIP3    H231256   5.915   2.350  12.443  0.0736 -1.7704 -0.3327
 3281TIP3   OH231257   3.435   3.616  13.869 -0.2158 -0.1905  0.2316
 3281TIP3    H131258   3.350   3.595  13.830  0.1106 -1.6296  0.2961
 3281TIP3    H231259   3.497   3.608  13.797 -0.0630  0.4561  0.2841
 3282TIP3   OH231260   2.788   4.189  15.530 -0.0402 -0.6378 -0.2820
 3282TIP3    H131261   2.800   4.159  15.620 -1.6113 -1.1378 -0.2150
 3282TIP3    H231262   2.697   4.167  15.510  0.5336 -1.2901 -2.2711
 3283TIP3   OH231263   3.112   6.138   4.012 -0.9408 -0.5694 -0.8377
 3283TIP3    H131264   3.021   6.135   3.982 -1.4307 -1.1626  0.6250
 3283TIP3    H231265   3.112   6.201   4.084 -0.2338 -0.7242 -0.6958
 3284TIP3   OH231266   5.707   5.883   3.737  0.0430 -0.0712  0.2263
 3284TIP3    H131267   5.641   5.865   3.670  0.6279 -1.4776  0.0032
 3284TIP3    H231268   5.693   5.974   3.761 -2.1105 -0.4274  0.3516
 3285TIP3   OH231269   4.000   0.178  13.692  0.3531  0.7553  0.1073
 3285TIP3    H131270   3.942   0.252  13.674  1.9162  2.4424  1.8688
 3285TIP3    H231271   4.086   0.206  13.662  0.8400 -0.5822  0.2244
 3286TIP3   OH231272   4.764   3.596  13.163 -0.3057  0.2063  0.6112
 3286TIP3    H131273   4.774   3.559  13.251 -0.0850  2.0222  1.3608
 3286TIP3    H231274   4.842   3.567  13.116  0.8437  1.3483  1.7838
 3287TIP3   OH231275   1.590   4.638  14.441 -0.2431 -0.3193 -0.1260
 3287TIP3    H131276   1.520   4.696  14.471 -1.0470 -1.7177  0.7965
 3287TIP3    H231277   1.547   4.579  14.380  0.5887  0.1064 -1.1373
 3288TIP3   OH231278   1.853   5.252  16.145 -0.0598 -0.2325 -0.1924
 3288TIP3    H131279   1.902   5.207  16.214  0.9113  0.4017 -0.4521
 3288TIP3    H231280   1.782   5.192  16.123  0.7904 -1.3146 -0.0388
 3289TIP3   OH231281   5.500   4.756   0.382 -0.0605 -0.7879 -0.1473
 3289TIP3    H131282   5.551   4.689   0.336  1.1195  0.5558 -0.8342
 3289TIP3    H231283   5.523   4.838   0.339  0.0476  0.3461  1.9721
 3290TIP3   OH231284   0.728   6.732   4.809 -0.0701  0.0168  0.3934
 3290TIP3    H131285   0.802   6.779   4.770 -0.7808  0.8648  0.0452
 3290TIP3    H231286   0.721   6.768   4.897 -2.4520  2.7847 -0.8144
 3291TIP3   OH231287   1.281   3.511   5.345  0.0496  0.2617  0.6013
 3291TIP3    H131288   1.349   3.447   5.368 -0.2854 -0.4944 -0.4757
 3291TIP3    H231289   1.330   3.592   5.329  0.6929 -0.2104  0.1029
 3292TIP3   OH231290   0.848   5.369  11.474 -0.1840 -0.0496 -0.0127
 3292TIP3    H131291   0.838   5.462  11.456  0.3264 -0.1886 -1.0620
 3292TIP3    H231292   0.924   5.364  11.533  0.3722  0.1234 -0.7108
 3293TIP3   OH231293   3.813   0.844  13.411  0.1672 -0.4807 -0.3195
 3293TIP3    H131294   3.723   0.877  13.409  0.3332  0.0637  0.8973
 3293TIP3    H231295   3.826   0.806  13.324  0.1092  3.0373 -1.9320
 3294TIP3   OH231296   6.221   2.651  12.386 -0.3656  0.1142  0.0676
 3294TIP3    H131297   6.198   2.733  12.428  1.6986 -0.1659  1.8315
 3294TIP3    H231298   6.296   2.618  12.436  0.8070 -1.3124 -2.4758
 3295TIP3   OH231299   2.387   0.158   3.351 -0.0589  0.5633 -0.0413
 3295TIP3    H131300   2.377   0.122   3.440 -2.4015  0.4379 -0.3260
 3295TIP3    H231301   2.315   0.221   3.343  0.5669  1.0926 -1.6079
 3296TIP3   OH231302   5.351   0.356   0.725  0.5615 -0.1679 -0.4909
 3296TIP3    H131303   5.278   0.318   0.676  1.8676 -0.6657 -2.0937
 3296TIP3    H231304   5.320   0.443   0.750 -0.5686 -0.3562 -1.1724
 3297TIP3   OH231305   5.683   1.584   1.979 -0.3257 -0.3275  0.3276
 3297TIP3    H131306   5.591   1.567   1.959 -0.1612 -0.9247  0.0690
 3297TIP3    H231307   5.720   1.616   1.896 -0.4296  0.4438  0.5787
 3298TIP3   OH231308   6.144   4.146   4.201  0.7384  0.3263  0.3956
 3298TIP3    H131309   6.183   4.165   4.286  3.5735 -2.5196 -0.1376
 3298TIP3    H231310   6.099   4.062   4.214 -1.3254  1.3174 -0.1951
 3299TIP3   OH231311   4.735   4.213   4.276 -0.1309  0.1624  0.0529
 3299TIP3    H131312   4.690   4.129   4.267  0.4558 -0.0289 -1.1897
 3299TIP3    H231313   4.728   4.234   4.369 -0.2950 -1.2577  0.3769
 3300TIP3   OH231314   4.326   5.135   5.429  0.1212  0.4604 -0.5159
 3300TIP3    H131315   4.369   5.210   5.388  1.9477 -1.6756 -2.5945
 3300TIP3    H231316   4.378   5.118   5.508 -0.4338  1.5076  0.0824
 3301TIP3   OH231317   4.467   1.145   3.337 -0.1539  0.1035 -0.4322
 3301TIP3    H131318   4.539   1.117   3.395 -1.3174  0.9704  1.4809
 3301TIP3    H231319   4.389   1.104   3.375 -0.8505  0.0879 -1.8439
 3302TIP3   OH231320   3.369   2.852   3.912 -0.2644 -0.1726 -0.0396
 3302TIP3    H131321   3.279   2.825   3.897 -0.5792  0.7749  0.1026
 3302TIP3    H231322   3.378   2.854   4.007  0.1586 -1.0584 -0.0522
 3303TIP3   OH231323   1.314   4.221   5.915  0.3152  0.1214 -0.1977
 3303TIP3    H131324   1.254   4.180   5.853  0.2748  1.8445 -1.3197
 3303TIP3    H231325   1.401   4.205   5.879  0.6249 -2.7014  1.6196
 3304TIP3   OH231326   3.591   3.427   6.439  0.3975  0.0059 -0.1384
 3304TIP3    H131327   3.510   3.478   6.432  0.5652  0.4027  0.7499
 3304TIP3    H231328   3.659   3.485   6.405  0.2761 -0.4106 -1.0939
 3305TIP3   OH231329   0.132   6.401   1.434  0.4704 -0.0212  0.3298
 3305TIP3    H131330   0.213   6.352   1.446  0.3110 -0.4763 -0.3944
 3305TIP3    H231331   0.154   6.490   1.461  1.0215 -0.2922  0.7780
 3306TIP3   OH231332   0.939   5.570   3.192  0.2260 -0.0274 -0.6534
 3306TIP3    H131333   0.898   5.655   3.207 -1.7580 -1.1682  0.5393
 3306TIP3    H231334   0.971   5.543   3.278 -1.4307 -1.6246 -0.5129
 3307TIP3   OH231335   0.832   2.003   1.473  0.4299 -0.4534  0.5830
 3307TIP3    H131336   0.770   1.931   1.479  0.9113 -0.8677  0.5758
 3307TIP3    H231337   0.784   2.072   1.426  0.3426 -1.1739 -0.4060
 3308TIP3   OH231338   0.907   0.327  16.006  0.3570  0.0862  0.1717
 3308TIP3    H131339   0.852   0.392  16.049  0.3334 -0.6559  1.2853
 3308TIP3    H231340   0.874   0.243  16.039  1.5737 -0.3944  0.1725
 3309TIP3   OH231341   3.237   5.487  11.359 -0.3651 -0.1129 -0.0720
 3309TIP3    H131342   3.229   5.413  11.299 -1.0717 -0.8053  0.8681
 3309TIP3    H231343   3.316   5.532  11.330  0.9984 -2.1583  0.3373
 3310TIP3   OH231344   2.340   0.622   2.942  0.1117  0.1803 -0.3707
 3310TIP3    H131345   2.337   0.694   3.004 -0.0975  0.9805 -1.2984
 3310TIP3    H231346   2.400   0.651   2.873 -2.0718  0.6291 -2.1500
 3311TIP3   OH231347   2.994   1.692  14.682 -0.2738  0.3819  0.5502
 3311TIP3    H131348   2.933   1.659  14.617  0.7256 -1.8175  0.6923
 3311TIP3    H231349   3.070   1.722  14.631 -0.3598  0.6127  0.5578
 3312TIP3   OH231350   0.728   0.094  14.652 -0.2522 -0.6794 -0.6554
 3312TIP3    H131351   0.688   0.045  14.724 -0.5653 -1.2539 -1.2150
 3312TIP3    H231352   0.692   0.054  14.573  0.5766 -0.4688 -1.1451
 3313TIP3   OH231353   1.925   1.224  11.586  0.5138  0.0758  0.9494
 3313TIP3    H131354   1.830   1.217  11.574  0.5614  0.9555  0.0048
 3313TIP3    H231355   1.962   1.195  11.503  1.0226  1.1503  0.7892
 3314TIP3   OH231356   2.542   3.659  15.053 -0.2400 -0.1230 -0.3859
 3314TIP3    H131357   2.453   3.630  15.073  0.2180 -1.1126  0.2581
 3314TIP3    H231358   2.531   3.750  15.024 -1.3791  0.0026  0.3783
 3315TIP3   OH231359   0.964   3.839   1.925  0.2078  0.5914  0.1027
 3315TIP3    H131360   0.876   3.830   1.963  0.0945 -0.7598 -0.4424
 3315TIP3    H231361   0.955   3.906   1.858 -0.4381  0.4122  0.0039
 3316TIP3   OH231362   5.774   6.623   0.905  0.1500  0.0599  0.9156
 3316TIP3    H131363   5.733   6.625   0.818 -1.3425  1.1137  1.6325
 3316TIP3    H231364   5.865   6.598   0.887  0.1191  1.2093 -1.0505
 3317TIP3   OH231365   5.971   5.375  10.928 -0.2137 -0.1714  0.6686
 3317TIP3    H131366   5.997   5.337  11.011 -0.0325 -1.2686  0.1157
 3317TIP3    H231367   6.048   5.367  10.872 -0.1391  1.0935  0.5618
 3318TIP3   OH231368   2.875   4.267  16.572  0.0458 -0.4858 -0.0749
 3318TIP3    H131369   2.962   4.274  16.610  0.5476  0.1767 -1.3358
 3318TIP3    H231370   2.823   4.332  16.620  0.0081 -1.4768  1.2737
 3319TIP3   OH231371   6.421   1.125   1.717  0.1490 -0.0823  0.2952
 3319TIP3    H131372   6.435   1.070   1.639 -0.8020  1.3435 -0.9188
 3319TIP3    H231373   6.327   1.116   1.735 -0.0065  1.1061  0.1024
 3320TIP3   OH231374   0.627   6.622  13.050  0.0649  0.1253 -0.3240
 3320TIP3    H131375   0.549   6.637  13.103  1.0602  1.9417  0.6628
 3320TIP3    H231376   0.619   6.531  13.022 -2.0022  0.0438  0.4112
 3321TIP3   OH231377   2.345   1.533  13.632  0.3122 -0.2113  0.0057
 3321TIP3    H131378   2.323   1.558  13.722 -0.5227 -1.3911  0.1450
 3321TIP3    H231379   2.439   1.518  13.633  0.0852 -1.6054  1.0392
 3322TIP3   OH231380   4.820   2.905  14.933  0.6194 -0.3761 -0.1481
 3322TIP3    H131381   4.854   2.890  14.845 -1.1826 -0.9416 -0.7756
 3322TIP3    H231382   4.819   3.001  14.943 -0.2593 -0.2734 -1.1914
 3323TIP3   OH231383   4.918   6.237  11.840 -0.0517  0.4249  0.1445
 3323TIP3    H131384   4.967   6.227  11.921 -0.9286  0.3777  0.6689
 3323TIP3    H231385   4.956   6.172  11.781  0.9094  0.7835  0.3422
 3324TIP3   OH231386   0.460   5.153   5.262  0.8535 -0.5825  0.4809
 3324TIP3    H131387   0.401   5.087   5.226 -0.0666 -0.8101  2.3147
 3324TIP3    H231388   0.422   5.175   5.348  2.1534  0.9844  0.6915
 3325TIP3   OH231389   5.137   6.281   0.566  0.1326 -0.4701  0.3370
 3325TIP3    H131390   5.057   6.230   0.564  1.0458 -1.9239  0.2349
 3325TIP3    H231391   5.118   6.357   0.510 -1.4762 -0.2893  1.0915
 3326TIP3   OH231392   2.015   0.830  13.391 -0.9587 -0.0126 -0.0449
 3326TIP3    H131393   2.015   0.810  13.485 -0.1380 -1.2717 -0.2905
 3326TIP3    H231394   1.973   0.754  13.351  1.9199 -1.1827 -0.9995
 3327TIP3   OH231395   4.960   1.831   2.004  0.1881 -0.3369 -0.2643
 3327TIP3    H131396   4.965   1.923   1.978 -1.2808 -0.2310 -0.2323
 3327TIP3    H231397   5.033   1.819   2.065  2.8910 -0.2515 -3.3539
 3328TIP3   OH231398   1.510   2.858   0.942 -0.4252  0.3535 -0.6704
 3328TIP3    H131399   1.435   2.816   0.901 -0.6771 -0.8066  0.9354
 3328TIP3    H231400   1.520   2.813   1.025  0.6077  2.0620  0.1632
 3329TIP3   OH231401   6.073   3.696  15.229 -0.3998 -0.4937 -0.1690
 3329TIP3    H131402   6.167   3.685  15.220 -0.4264  0.0681 -1.3168
 3329TIP3    H231403   6.055   3.682  15.322  0.9578  0.3852  0.2423
 3330TIP3   OH231404   1.595   4.700   4.922 -0.2831  0.2761  0.3776
 3330TIP3    H131405   1.685   4.735   4.923 -0.1732  0.0122 -0.0865
 3330TIP3    H231406   1.605   4.608   4.948 -0.5187  0.4632  1.1370
 3331TIP3   OH231407   5.698   0.421   4.583 -0.2671  0.1697  0.1644
 3331TIP3    H131408   5.785   0.460   4.590 -0.0919 -0.2089  0.1073
 3331TIP3    H231409   5.714   0.333   4.550 -0.4968 -0.7465  2.4390
 3332TIP3   OH231410   2.025   1.393  12.800  0.1006 -0.2130  0.1942
 3332TIP3    H131411   2.045   1.385  12.893  2.3893  0.2748 -0.2127
 3332TIP3    H231412   2.035   1.486  12.781 -1.8867 -0.0771 -0.2283
 3333TIP3   OH231413   4.147   3.435  13.096 -1.1273 -0.0849 -0.1648
 3333TIP3    H131414   4.183   3.497  13.033 -1.8082 -2.5790 -3.1389
 3333TIP3    H231415   4.222   3.409  13.150  0.3589 -0.9959 -2.6218
 3334TIP3   OH231416   5.499   4.736  12.091  0.3432 -0.0222  0.0662
 3334TIP3    H131417   5.557   4.702  12.159 -0.7670  0.0786  1.0786
 3334TIP3    H231418   5.490   4.829  12.113 -0.1550 -0.0266 -0.1310
 3335TIP3   OH231419   2.808   0.645  14.338 -0.1769 -0.1727  0.3867
 3335TIP3    H131420   2.808   0.660  14.243 -1.5084  2.5543  0.7502
 3335TIP3    H231421   2.899   0.655  14.364 -0.0771  1.0844 -0.3710
 3336TIP3   OH231422   0.916   4.419   2.897  0.0972  0.0867  0.2401
 3336TIP3    H131423   0.838   4.443   2.847  1.4030  0.2759 -1.7462
 3336TIP3    H231424   0.971   4.497   2.895  1.2027 -0.6920 -0.0627
 3337TIP3   OH231425   2.425   0.015   4.302 -0.1542  0.2683  0.7737
 3337TIP3    H131426   2.401   0.044   4.214  0.9558 -0.0996  0.3436
 3337TIP3    H231427   2.457   0.094   4.345  1.4526 -0.0018  0.0937
 3338TIP3   OH231428   3.113   3.795   2.032  0.1174  0.0515 -0.8522
 3338TIP3    H131429   3.049   3.857   1.997 -2.2301 -1.5326  0.4275
 3338TIP3    H231430   3.159   3.762   1.956 -0.4329  1.4371 -1.7940
 3339TIP3   OH231431   4.766   3.820   6.742  0.0765 -0.5832  0.1047
 3339TIP3    H131432   4.814   3.788   6.666  0.3314 -2.4681  1.0399
 3339TIP3    H231433   4.684   3.853   6.706  1.1027  0.5909 -1.2331
 3340TIP3   OH231434   0.323   4.443  11.478 -0.1493 -0.1065 -0.0591
 3340TIP3    H131435   0.370   4.418  11.398  0.0412  0.3853 -0.1080
 3340TIP3    H231436   0.258   4.507  11.447 -0.9579 -0.9054 -0.0165
 3341TIP3   OH231437   6.134   4.173   2.108  0.2113 -0.0580  0.7844
 3341TIP3    H131438   6.058   4.221   2.139  0.2994  2.2894 -2.3392
 3341TIP3    H231439   6.209   4.228   2.130  0.2570  1.7587 -3.4789
 3342TIP3   OH231440   2.334   3.079  14.379  0.1846 -0.4271  0.0465
 3342TIP3    H131441   2.352   3.107  14.469 -1.9286  1.8049 -0.1428
 3342TIP3    H231442   2.269   3.010  14.388 -0.0396 -0.1933  0.2309
 3343TIP3   OH231443   5.423   6.674   3.861 -0.5515 -0.0710 -0.0020
 3343TIP3    H131444   5.371   6.656   3.939  0.6978  1.4072  1.2221
 3343TIP3    H231445   5.496   6.613   3.865 -0.5998 -0.1385 -0.1340
 3344TIP3   OH231446   2.938   6.166   1.888 -0.4738  0.0666  0.3740
 3344TIP3    H131447   2.883   6.142   1.962 -0.9769 -1.2417 -0.4041
 3344TIP3    H231448   2.888   6.138   1.811  0.1235  1.2303 -0.4561
 3345TIP3   OH231449   0.226   5.215  13.252 -0.1421 -0.3859  0.4259
 3345TIP3    H131450   0.225   5.149  13.183 -0.2320  0.2676 -0.2011
 3345TIP3    H231451   0.318   5.239  13.262 -0.1907 -0.0910  0.1610
 3346TIP3   OH231452   3.177   0.702  16.164  0.3628 -0.4949 -0.5934
 3346TIP3    H131453   3.257   0.747  16.137  1.2139 -1.6289  0.0226
 3346TIP3    H231454   3.111   0.734  16.103  0.9719  1.4759 -0.2804
 3347TIP3   OH231455   2.287   3.378  15.661  0.7693  0.4708 -0.1384
 3347TIP3    H131456   2.252   3.465  15.640  1.3934  0.6196 -0.5882
 3347TIP3    H231457   2.381   3.392  15.667  0.6037  0.4899  3.0859
 3348TIP3   OH231458   4.033   4.581   4.065 -0.3834 -0.3619  0.0322
 3348TIP3    H131459   4.007   4.658   4.115  0.1434 -0.5145  0.5438
 3348TIP3    H231460   4.127   4.590   4.053 -0.4097 -0.6471 -0.3824
 3349TIP3   OH231461   6.057   2.305  12.189  0.0348  0.1023  0.2663
 3349TIP3    H131462   6.150   2.327  12.196  0.2503 -1.1945  2.0086
 3349TIP3    H231463   6.012   2.380  12.229  0.3804  0.3968  0.1057
 3350TIP3   OH231464   2.203   1.373  15.694 -0.1422  0.3258 -0.1613
 3350TIP3    H131465   2.171   1.344  15.779 -1.0289  0.2430 -0.5258
 3350TIP3    H231466   2.190   1.468  15.696  2.4454  0.7125  0.8990
 3351TIP3   OH231467   2.346   3.980   3.021 -0.0255 -0.2906  0.2951
 3351TIP3    H131468   2.387   3.967   2.935  0.8239 -0.5531  0.7358
 3351TIP3    H231469   2.409   4.033   3.070 -0.4481 -0.2584  0.8059
 3352TIP3   OH231470   6.331   6.623   1.099 -0.0137 -0.1380 -0.1643
 3352TIP3    H131471   6.308   6.701   1.150  1.8223 -2.1984  4.0749
 3352TIP3    H231472   6.264   6.559   1.122  1.6238 -1.5332  0.8625
 3353TIP3   OH231473   5.268   0.119   3.776 -0.1504  0.0347 -0.2069
 3353TIP3    H131474   5.175   0.107   3.759  0.0122 -1.4686 -0.1249
 3353TIP3    H231475   5.305   0.031   3.770  1.1829  0.5491  0.2326
 3354TIP3   OH231476   5.162   0.571  12.831 -0.4491 -0.5109  0.1927
 3354TIP3    H131477   5.108   0.543  12.757  2.1794 -1.0009 -1.6276
 3354TIP3    H231478   5.250   0.580  12.794  0.8326 -0.2229  3.1633
 3355TIP3   OH231479   0.096   3.832   2.829  0.7304  0.2862  0.6337
 3355TIP3    H131480   0.148   3.755   2.853 -0.4724 -1.1405 -1.2204
 3355TIP3    H231481   0.137   3.863   2.748 -0.4722 -0.0632 -0.1202
 3356TIP3   OH231482   3.466   3.068  15.502 -0.1107  0.1166 -0.5297
 3356TIP3    H131483   3.427   3.155  15.497 -1.3404 -0.4589 -0.9892
 3356TIP3    H231484   3.459   3.043  15.594 -4.1472 -1.4735 -1.1767
 3357TIP3   OH231485   5.514   2.900   7.062  0.3139 -0.0332 -0.1412
 3357TIP3    H131486   5.497   2.944   6.979  0.4512 -0.4179 -0.3798
 3357TIP3    H231487   5.572   2.827   7.038  2.0311  1.0563  0.5936
 3358TIP3   OH231488   1.370   5.198   3.956  0.2256  0.0395 -0.2393
 3358TIP3    H131489   1.465   5.205   3.956  0.1385  1.5261  1.2205
 3358TIP3    H231490   1.350   5.137   4.027  0.0224  1.1897  0.7107
 3359TIP3   OH231491   6.771   6.233   5.716  0.4085 -0.2522  0.0549
 3359TIP3    H131492   6.749   6.321   5.748 -0.2984 -0.0904 -0.8494
 3359TIP3    H231493   6.861   6.240   5.685  0.4240  0.0921  0.1754
 3360TIP3   OH231494   0.491   1.913   1.019  0.7782  0.2742  0.4869
 3360TIP3    H131495   0.570   1.937   1.068  1.5721  0.8624 -1.0383
 3360TIP3    H231496   0.491   1.972   0.943 -1.4782  0.7239  0.7860
 3361TIP3   OH231497   4.158   6.334  13.366  0.0905 -0.3992  0.1433
 3361TIP3    H131498   4.119   6.416  13.397 -0.3294  0.2346 -1.9957
 3361TIP3    H231499   4.250   6.355  13.352 -0.0974 -0.1589 -0.7894
 3362TIP3   OH231500   5.614   5.185  15.375 -0.2487  0.4829 -0.0963
 3362TIP3    H131501   5.683   5.236  15.332  0.3568 -1.3064 -1.2968
 3362TIP3    H231502   5.653   5.155  15.457  0.8616 -1.5843 -1.3556
 3363TIP3   OH231503   4.249   5.196  11.220  0.3872  0.4767  0.4387
 3363TIP3    H131504   4.212   5.110  11.200  1.2513  0.1430  0.2465
 3363TIP3    H231505   4.271   5.233  11.135 -0.4871  1.1146  0.4905
 3364TIP3   OH231506   2.946   0.974  17.133 -0.2067  0.5408  0.4500
 3364TIP3    H131507   3.036   1.006  17.145 -0.5462  1.2221  1.2573
 3364TIP3    H231508   2.953   0.879  17.143  0.7232  0.3941 -1.3538
 3365TIP3   OH231509   5.898   2.956  14.861  0.4963 -0.1206 -0.3506
 3365TIP3    H131510   5.853   2.871  14.860  1.3630 -0.5784 -0.5949
 3365TIP3    H231511   5.880   2.991  14.948 -1.1636  0.1525 -0.7819
 3366TIP3   OH231512   1.992   5.572   4.290  0.6797  0.3593 -0.3835
 3366TIP3    H131513   2.086   5.560   4.302  0.5390  0.0867  0.4900
 3366TIP3    H231514   1.953   5.530   4.366 -0.2463 -1.0041 -1.5907
 3367TIP3   OH231515   4.860   1.461  12.062 -0.4718 -0.3369 -0.3527
 3367TIP3    H131516   4.857   1.452  11.967 -1.1332  0.7078 -0.4429
 3367TIP3    H231517   4.878   1.554  12.077  1.5847 -0.8610  0.5392
 3368TIP3   OH231518   4.931   4.107   0.552 -0.3399 -0.2391 -0.5707
 3368TIP3    H131519   4.956   4.018   0.578 -0.8366 -0.1312  0.2930
 3368TIP3    H231520   4.892   4.145   0.631  1.9172  1.5089 -0.2345
 3369TIP3   OH231521   3.772   0.098   1.439 -0.4339 -0.3121  0.2444
 3369TIP3    H131522   3.842   0.141   1.390  0.4113 -0.7171  1.0855
 3369TIP3    H231523   3.711   0.067   1.372  0.6187 -0.6976 -0.5368
 3370TIP3   OH231524   2.868   1.361  10.452  0.0186  0.1974  0.4488
 3370TIP3    H131525   2.783   1.327  10.425  1.8782 -3.6424 -0.9343
 3370TIP3    H231526   2.861   1.367  10.547 -2.4088  1.7909  0.2187
 3371TIP3   OH231527   3.642   6.316   4.199 -0.1187 -0.6697 -0.1629
 3371TIP3    H131528   3.711   6.372   4.234 -1.1025 -0.9493  2.3385
 3371TIP3    H231529   3.678   6.227   4.204 -0.3517 -0.7355  0.4153
 3372TIP3   OH231530   1.924   3.270   1.628  0.3765  0.1094 -0.1476
 3372TIP3    H131531   1.898   3.202   1.690 -2.3900  0.6899 -0.6149
 3372TIP3    H231532   1.883   3.245   1.546 -0.6281  2.2763 -0.3516
 3373TIP3   OH231533   0.984   4.026   0.020 -0.6521  0.2758 -0.3595
 3373TIP3    H131534   0.916   4.087  -0.009 -0.7088  0.3358 -0.1062
 3373TIP3    H231535   1.032   4.003  -0.059 -1.0894  0.0833 -0.5652
 3374TIP3   OH231536   2.978   4.405   4.759  0.0181  0.1647 -0.3596
 3374TIP3    H131537   2.924   4.348   4.705 -0.3946  0.7122 -0.5215
 3374TIP3    H231538   2.943   4.395   4.848  0.2812 -0.2317 -0.2970
 3375TIP3   OH231539   4.635   4.098   0.453  0.5946 -0.1172 -0.0167
 3375TIP3    H131540   4.674   4.098   0.366  0.5157 -0.2947 -0.0513
 3375TIP3    H231541   4.676   4.173   0.497 -3.0910  3.1778 -1.8474
 3376TIP3   OH231542   0.572   4.536   4.808 -0.2497 -0.3193 -0.3187
 3376TIP3    H131543   0.589   4.478   4.734  0.5741 -1.1575  0.5152
 3376TIP3    H231544   0.619   4.496   4.882 -1.7529  0.0366  0.8624
 3377TIP3   OH231545   1.744   4.377   5.004  0.0457 -0.3640 -0.6871
 3377TIP3    H131546   1.766   4.435   4.931  0.8523 -0.7514 -0.7543
 3377TIP3    H231547   1.805   4.402   5.074 -0.6478 -0.0690 -0.1776
 3378TIP3   OH231548   3.889   0.827  16.424 -0.0128  0.0413  0.3171
 3378TIP3    H131549   3.956   0.889  16.453  1.0405 -1.6348  1.5649
 3378TIP3    H231550   3.917   0.800  16.337  0.9657 -0.6742  0.8487
 3379TIP3   OH231551   0.661   3.082  12.993 -0.6032 -0.2126 -0.1829
 3379TIP3    H131552   0.746   3.096  13.034 -1.3747 -1.5725  1.9656
 3379TIP3    H231553   0.679   3.024  12.919  0.8995  2.7609 -2.2054
 3380TIP3   OH231554   4.563   2.635  15.367  0.5776 -0.7002  0.1119
 3380TIP3    H131555   4.475   2.616  15.334  0.4561 -1.9002  1.0751
 3380TIP3    H231556   4.578   2.726  15.344 -1.6030  0.0276  1.3835
 3381TIP3   OH231557   4.915   0.577  10.607 -0.1648 -0.2753  0.0548
 3381TIP3    H131558   4.926   0.483  10.614  0.2796 -0.1793  0.6779
 3381TIP3    H231559   4.895   0.593  10.514 -0.8220 -1.0356  0.0652
 3382TIP3   OH231560   6.622   0.081  16.943  0.2690 -0.2061  0.0397
 3382TIP3    H131561   6.671   0.154  16.905 -0.2522 -0.7558 -1.7020
 3382TIP3    H231562   6.637   0.008  16.884 -1.5589 -0.7425  0.2160
 3383TIP3   OH231563   0.056   4.092   2.920 -0.7032  0.1459 -0.9624
 3383TIP3    H131564   0.040   4.005   2.882 -1.7693  0.2645 -0.7983
 3383TIP3    H231565  -0.015   4.146   2.885  0.9075  1.3809 -2.4150
 3384TIP3   OH231566   5.403   4.441  14.892 -0.6472  0.0793 -0.5937
 3384TIP3    H131567   5.443   4.512  14.842 -1.4996  0.8854 -0.1400
 3384TIP3    H231568   5.455   4.435  14.971 -1.2453  0.9486 -0.1273
 3385TIP3   OH231569   2.313   6.617   0.125  0.4719 -0.0015 -0.9782
 3385TIP3    H131570   2.252   6.549   0.154 -2.7912  2.4994 -1.6375
 3385TIP3    H231571   2.319   6.605   0.030 -0.4094  0.8499 -1.1451
 3386TIP3   OH231572   5.563   1.087   2.182  0.3740  0.2470 -0.0099
 3386TIP3    H131573   5.500   1.135   2.129 -1.5408 -2.4740 -0.3305
 3386TIP3    H231574   5.598   1.020   2.124  4.3674  2.2447 -0.1014
 3387TIP3   OH231575   3.502   1.291   6.621  0.3324  0.3403  0.2551
 3387TIP3    H131576   3.594   1.314   6.636  0.6849 -1.1822  0.4686
 3387TIP3    H231577   3.472   1.354   6.555  1.6291  0.5839 -0.1125
 3388TIP3   OH231578   6.518   1.154   2.280  0.3065  0.1642  0.6246
 3388TIP3    H131579   6.553   1.080   2.230  0.0213 -0.0365  0.7242
 3388TIP3    H231580   6.495   1.218   2.213 -0.8409 -0.4280  0.4312
 3389TIP3   OH231581   3.900   0.403   2.523  0.2135  0.5282 -0.4771
 3389TIP3    H131582   3.951   0.410   2.604  0.8839  1.3039 -0.9622
 3389TIP3    H231583   3.851   0.485   2.519  0.6955  0.7814 -1.1989
 3390TIP3   OH231584   2.999   1.980  15.161  0.6265 -0.5762 -0.2920
 3390TIP3    H131585   3.088   1.947  15.158  1.0740  0.6831 -1.2651
 3390TIP3    H231586   2.948   1.916  15.113  1.0091 -1.2812  0.2376
 3391TIP3   OH231587   6.578   1.536   3.876  0.3014  0.1056 -0.3080
 3391TIP3    H131588   6.581   1.585   3.794  1.1821  1.1886  0.3677
 3391TIP3    H231589   6.512   1.581   3.929  0.6909  0.2098  0.0877
 3392TIP3   OH231590   0.457   4.578   0.639  0.9242  0.2170 -0.3769
 3392TIP3    H131591   0.438   4.484   0.641  1.6228  0.0342 -1.7356
 3392TIP3    H231592   0.516   4.592   0.714 -1.4281  0.1071  1.5355
 3393TIP3   OH231593   6.665   4.029   4.032 -0.3543 -0.4487  0.1798
 3393TIP3    H131594   6.662   4.026   4.127 -0.1208  1.0178  0.2514
 3393TIP3    H231595   6.752   4.063   4.011 -0.7443  0.1457 -0.5161
 3394TIP3   OH231596   1.327   5.933  10.641 -0.4339 -0.0834 -0.1503
 3394TIP3    H131597   1.344   5.906  10.732 -0.8741  0.5421  0.1214
 3394TIP3    H231598   1.412   5.965  10.610 -0.0738 -1.0908 -0.2466
 3395TIP3   OH231599   1.691   4.729  15.449 -0.2569 -0.3535 -0.3208
 3395TIP3    H131600   1.675   4.774  15.532 -0.0344  1.3312 -1.1779
 3395TIP3    H231601   1.720   4.641  15.475  1.4634  0.6791  1.4217
 3396TIP3   OH231602   2.538   1.573   0.120  0.5832 -0.1042  0.4428
 3396TIP3    H131603   2.494   1.548   0.201  0.1975 -1.1943 -0.0915
 3396TIP3    H231604   2.620   1.524   0.121  1.7055  1.7312  1.3164
 3397TIP3   OH231605   0.868   3.182  15.847  0.3828 -0.5504 -0.4268
 3397TIP3    H131606   0.773   3.185  15.853  0.2466 -3.1377 -0.7283
 3397TIP3    H231607   0.887   3.197  15.754  0.2501 -0.5329 -0.4506
 3398TIP3   OH231608   6.090   4.955  12.810 -0.8842  0.7196  0.0785
 3398TIP3    H131609   6.143   5.028  12.841 -0.8565  0.9951 -0.6031
 3398TIP3    H231610   6.040   4.992  12.737 -0.7136 -0.0034 -0.4003
 3399TIP3   OH231611   2.126   2.330   6.690 -0.7401 -0.0321  0.6886
 3399TIP3    H131612   2.096   2.420   6.706 -0.1472  0.6211 -1.6649
 3399TIP3    H231613   2.213   2.327   6.730 -0.0619  0.9697 -0.6852
 3400TIP3   OH231614   2.640   3.055   5.145  0.3367 -0.8064 -0.3741
 3400TIP3    H131615   2.572   3.113   5.109  0.0446 -1.2291 -0.5157
 3400TIP3    H231616   2.599   2.968   5.144  0.4612 -0.8851  0.6304
 3401TIP3   OH231617   5.783   1.463   2.378  0.0832 -0.1902 -0.0333
 3401TIP3    H131618   5.689   1.450   2.387 -0.2089 -0.2128 -2.7051
 3401TIP3    H231619   5.821   1.376   2.395 -0.5676 -0.7298 -1.2844
 3402TIP3   OH231620   6.437   4.106   0.436  0.4374 -0.7744  0.2110
 3402TIP3    H131621   6.490   4.122   0.513  0.7220  1.2385 -0.3700
 3402TIP3    H231622   6.479   4.033   0.392  2.3226  0.3443  0.1269
 3403TIP3   OH231623   1.710   2.606   2.390 -0.8082  0.0454 -0.4410
 3403TIP3    H131624   1.622   2.616   2.353 -1.4658 -2.4626  0.4064
 3403TIP3    H231625   1.698   2.550   2.466  1.2938  1.1077  0.7024
 3404TIP3   OH231626   3.923   5.392  10.842  0.1669 -0.3070  0.4380
 3404TIP3    H131627   4.008   5.360  10.871  0.7575  0.0158 -0.9410
 3404TIP3    H231628   3.939   5.482  10.813 -0.3691 -0.7141 -1.1591
 3405TIP3   OH231629   2.406   5.173  11.395 -0.3222  0.2206  0.2956
 3405TIP3    H131630   2.397   5.077  11.399  0.9592  0.1189  0.9629
 3405TIP3    H231631   2.316   5.205  11.389 -0.8496 -0.9769  1.4364
 3406TIP3   OH231632   2.936   1.589  17.171  0.0163 -0.2864  0.3387
 3406TIP3    H131633   2.860   1.537  17.195 -1.0837 -0.4727 -3.3170
 3406TIP3    H231634   3.002   1.525  17.145 -0.7064 -0.0039 -2.3633
 3407TIP3   OH231635   6.491   4.364   0.030 -0.1786  0.2952 -0.1133
 3407TIP3    H131636   6.520   4.445  -0.012  0.8824 -0.5224 -0.9614
 3407TIP3    H231637   6.481   4.301  -0.041 -1.6638 -0.1531  0.4577
 3408TIP3   OH231638   1.522   6.107   4.504 -0.2967  0.4386 -0.0761
 3408TIP3    H131639   1.544   6.154   4.585  0.7608 -0.8213  0.3842
 3408TIP3    H231640   1.541   6.015   4.524 -1.8140 -0.1289 -1.1431
 3409TIP3   OH231641   1.525   6.319  11.886 -0.4784 -0.8229  0.4732
 3409TIP3    H131642   1.619   6.322  11.900 -0.0036 -1.5906 -2.1373
 3409TIP3    H231643   1.508   6.229  11.858 -1.6794 -0.2482 -0.7558
 3410TIP3   OH231644   1.868   5.734   5.658  0.0374 -0.0146 -0.0146
 3410TIP3    H131645   1.775   5.719   5.643  0.1718 -1.1058  0.1729
 3410TIP3    H231646   1.901   5.650   5.690  1.4716 -0.2520 -1.9536
 3411TIP3   OH231647   6.140   0.655  12.539 -0.4012 -0.2485 -0.0079
 3411TIP3    H131648   6.229   0.657  12.503 -0.9763  0.2329 -1.4441
 3411TIP3    H231649   6.152   0.631  12.631  1.2397  0.1930 -0.0885
 3412TIP3   OH231650   2.486   2.974  15.835  0.2776  0.3900  0.4726
 3412TIP3    H131651   2.420   2.915  15.798  1.5716 -0.7118 -0.1305
 3412TIP3    H231652   2.499   3.042  15.769 -0.5432  0.8233  0.7634
 3413TIP3   OH231653   6.752   0.962  12.298 -0.1696  0.1806  0.4151
 3413TIP3    H131654   6.737   0.942  12.390 -1.2426 -0.5946  0.0859
 3413TIP3    H231655   6.728   1.054  12.289 -1.6597 -0.1862  0.5726
 3414TIP3   OH231656   1.620   2.027   0.127  0.1548  0.2610 -0.0052
 3414TIP3    H131657   1.614   2.048   0.221  0.7238  0.1133  0.0672
 3414TIP3    H231658   1.702   1.978   0.119  0.3697  0.7263 -0.6612
 3415TIP3   OH231659   4.430   1.917   2.830 -0.0178  0.3536 -0.3341
 3415TIP3    H131660   4.465   2.006   2.820 -0.4449  0.5486 -0.1000
 3415TIP3    H231661   4.350   1.917   2.778  0.3105 -0.0849 -0.8453
 3416TIP3   OH231662   5.390   0.901   1.833 -0.5207 -0.0567  0.2336
 3416TIP3    H131663   5.409   0.808   1.825 -1.4518 -0.3091  0.8423
 3416TIP3    H231664   5.309   0.904   1.885 -0.1129  1.1105  0.8055
 3417TIP3   OH231665   1.610   0.810   0.898  0.5074 -0.2632  0.0377
 3417TIP3    H131666   1.630   0.874   0.829 -0.7537  0.2460  0.1218
 3417TIP3    H231667   1.538   0.850   0.947  0.4635 -1.2502  0.7893
 3418TIP3   OH231668   2.127   2.427   3.348 -0.7533 -0.0161 -0.0918
 3418TIP3    H131669   2.206   2.481   3.351 -0.4956 -0.4531  1.5608
 3418TIP3    H231670   2.069   2.467   3.414 -0.5761 -1.7132  1.1145
 3419TIP3   OH231671   2.661   0.401   3.262 -0.1783 -0.6400 -0.2029
 3419TIP3    H131672   2.665   0.306   3.271 -0.8382 -0.7498 -1.0237
 3419TIP3    H231673   2.577   0.417   3.218 -0.5313  0.3809  0.8276
 3420TIP3   OH231674   5.421   4.094   6.408 -0.1547 -0.2852  0.7560
 3420TIP3    H131675   5.495   4.111   6.466 -0.6970 -2.2832  2.1034
 3420TIP3    H231676   5.417   3.998   6.402 -3.0922 -0.2655  1.3794
 3421TIP3   OH231677   4.287   6.126   3.216  0.0334  0.1303 -0.0612
 3421TIP3    H131678   4.229   6.195   3.185 -4.0335 -2.5025  1.2693
 3421TIP3    H231679   4.273   6.054   3.154  0.4714 -1.1814  1.3395
 3422TIP3   OH231680   1.874   2.763  16.406  0.4580 -0.4337  0.5053
 3422TIP3    H131681   1.915   2.844  16.376  0.9669 -0.1125  2.0233
 3422TIP3    H231682   1.808   2.792  16.468  1.1884 -1.2261  1.6527
 3423TIP3   OH231683   0.551   2.157  16.819 -0.8358 -0.0643 -0.3258
 3423TIP3    H131684   0.530   2.187  16.907  2.2240 -0.1848  0.4934
 3423TIP3    H231685   0.509   2.071  16.811  0.9098 -1.1687  1.9485
 3424TIP3   OH231686   1.223   3.329  14.704 -0.1921 -0.3363 -0.2272
 3424TIP3    H131687   1.194   3.350  14.792  1.1459  0.4091  0.0517
 3424TIP3    H231688   1.165   3.378  14.647  1.3738  2.3155  0.3622
 3425TIP3   OH231689   6.320   0.444   1.362  0.9617  0.1586 -0.5184
 3425TIP3    H131690   6.376   0.408   1.292  1.2087 -0.7626  0.1405
 3425TIP3    H231691   6.261   0.372   1.384 -0.1582  0.9673 -0.8602
 3426TIP3   OH231692   6.424   1.037  16.990 -0.1664  0.4530 -0.2744
 3426TIP3    H131693   6.331   1.059  16.985 -0.3113 -0.4025 -1.4918
 3426TIP3    H231694   6.440   1.022  17.083 -1.4488 -0.2466 -0.1598
 3427TIP3   OH231695   1.582   2.997   1.335  0.1204 -0.6658 -0.5617
 3427TIP3    H131696   1.495   3.011   1.372  0.7486  0.6670  0.4254
 3427TIP3    H231697   1.631   2.956   1.406  0.7082 -0.1063 -0.6488
 3428TIP3   OH231698   4.464   6.716  11.173 -0.6849  0.0430 -0.1604
 3428TIP3    H131699   4.481   6.798  11.127  3.1590 -1.1352 -1.0934
 3428TIP3    H231700   4.446   6.652  11.104 -1.7036 -0.3223  0.4326
 3429TIP3   OH231701   4.400   6.643  14.012 -0.4627 -0.3743 -0.2112
 3429TIP3    H131702   4.419   6.550  14.001 -1.1426 -0.5973  0.4330
 3429TIP3    H231703   4.313   6.645  14.052  0.2531  0.4830  1.3779
 3430TIP3   OH231704   2.042   2.767   4.250 -0.4323 -0.8038 -0.1347
 3430TIP3    H131705   2.105   2.836   4.227  0.1973 -1.5344 -0.6230
 3430TIP3    H231706   2.065   2.742   4.339 -1.3317  0.3394  0.4358
 3431TIP3   OH231707   3.258   4.822  11.547  0.2985 -0.0932 -0.1956
 3431TIP3    H131708   3.211   4.742  11.523 -1.2151  0.0716  2.0748
 3431TIP3    H231709   3.214   4.891  11.499  2.5048 -0.7366 -3.2793
 3432TIP3   OH231710   1.539   4.826   6.243  0.0340  0.5837 -0.1950
 3432TIP3    H131711   1.538   4.922   6.233 -0.5946  0.6633  0.5829
 3432TIP3    H231712   1.456   4.806   6.286  0.7925 -0.1694  0.9375
 3433TIP3   OH231713   6.460   2.608   4.702 -0.8406 -0.3127  0.3638
 3433TIP3    H131714   6.379   2.563   4.678 -1.9277  0.7515  1.9378
 3433TIP3    H231715   6.444   2.700   4.681 -0.9009  0.2489  2.7625
 3434TIP3   OH231716   3.024   5.249  16.032  0.4796  0.1942 -0.6824
 3434TIP3    H131717   3.032   5.155  16.052 -0.2693 -0.1688 -2.0716
 3434TIP3    H231718   2.946   5.277  16.081 -0.2544 -0.2761 -1.5725
 3435TIP3   OH231719   0.483   5.780  16.347 -0.0721  0.9486  0.1672
 3435TIP3    H131720   0.509   5.842  16.279 -1.5587  1.8268  0.3781
 3435TIP3    H231721   0.464   5.699  16.299  1.4502  0.7647 -0.1562
 3436TIP3   OH231722   4.597   4.580  13.256  0.1434  0.7786 -0.5349
 3436TIP3    H131723   4.570   4.640  13.326 -1.4072 -0.4577 -0.0444
 3436TIP3    H231724   4.651   4.515  13.300 -1.0335 -0.1390 -0.4149
 3437TIP3   OH231725   3.671   2.417  13.842  0.0028  0.0849  0.2064
 3437TIP3    H131726   3.705   2.327  13.848  0.9110  0.3907 -0.2356
 3437TIP3    H231727   3.596   2.410  13.783 -0.3442 -0.4976  0.7066
 3438TIP3   OH231728   5.301   2.006   1.559 -0.7693 -0.2851  0.8116
 3438TIP3    H131729   5.391   2.035   1.576 -1.3164  2.0635 -0.1307
 3438TIP3    H231730   5.306   1.962   1.475 -0.1226 -2.0872  1.7651
 3439TIP3   OH231731   6.089   5.346   4.105  0.0383 -0.0716 -0.2057
 3439TIP3    H131732   6.181   5.334   4.082 -0.2938  0.8006 -2.0144
 3439TIP3    H231733   6.091   5.372   4.197  1.5084 -1.3454  0.1430
 3440TIP3   OH231734   0.406   4.676   1.473  0.2217  0.2757 -0.4243
 3440TIP3    H131735   0.400   4.758   1.423 -1.0145 -1.0711 -2.5355
 3440TIP3    H231736   0.324   4.672   1.522  1.6992  1.9139  2.3437
 3441TIP3   OH231737   6.576   4.899   2.506 -0.8478  0.2131 -0.2222
 3441TIP3    H131738   6.643   4.963   2.533 -1.0465  0.9615 -1.4576
 3441TIP3    H231739   6.495   4.933   2.543 -0.8595  0.3476 -0.3724
 3442TIP3   OH231740   4.080   2.127  15.565 -0.1015  0.4990 -0.0772
 3442TIP3    H131741   4.063   2.203  15.620 -1.4701  1.0090 -1.1756
 3442TIP3    H231742   4.120   2.063  15.625 -0.9847  1.2548  1.3602
 3443TIP3   OH231743   0.026   3.666  16.679 -0.1475  0.4147 -0.1991
 3443TIP3    H131744   0.018   3.703  16.591 -0.8917  1.1768  0.1832
 3443TIP3    H231745   0.042   3.573  16.664  0.4041  0.6530 -1.1527
 3444TIP3   OH231746   6.668   5.225   0.100  0.5747  0.4080  0.4537
 3444TIP3    H131747   6.700   5.239   0.189  1.3838  2.7516 -0.1833
 3444TIP3    H231748   6.588   5.277   0.094  0.7404  0.5779 -0.3295
 3445TIP3   OH231749   6.734   4.436   5.280  0.0553  0.5018  0.0165
 3445TIP3    H131750   6.713   4.473   5.366  1.5703 -2.2806  1.6792
 3445TIP3    H231751   6.807   4.489   5.248 -1.2895  2.3044 -0.1273
 3446TIP3   OH231752   2.008   0.283  13.956 -0.0450  0.0462  0.5202
 3446TIP3    H131753   1.962   0.305  14.037 -0.7012 -0.7005  0.3506
 3446TIP3    H231754   1.941   0.288  13.888  0.2862 -0.3245  0.1633
 3447TIP3   OH231755   2.402   1.846  13.016  0.0124  0.1495  0.0657
 3447TIP3    H131756   2.327   1.809  12.968  0.9657  0.1906 -1.4964
 3447TIP3    H231757   2.380   1.833  13.108 -1.9222  0.1417 -0.3582
 3448TIP3   OH231758   4.270   0.050  16.483  0.3397  0.3722  0.3809
 3448TIP3    H131759   4.316   0.051  16.566  1.8145 -0.7007 -0.3932
 3448TIP3    H231760   4.214   0.128  16.485 -0.8877 -0.5117  3.0371
 3449TIP3   OH231761   0.588   0.991  15.638 -0.1542  0.3517 -0.5031
 3449TIP3    H131762   0.633   0.976  15.555  2.3581  1.0847  0.6608
 3449TIP3    H231763   0.577   1.086  15.642  2.0275  0.5884  1.0825
 3450TIP3   OH231764   6.581   3.228  11.401 -0.2309  0.1656 -0.1719
 3450TIP3    H131765   6.643   3.162  11.369 -1.2157 -0.3935 -0.9789
 3450TIP3    H231766   6.622   3.264  11.480  0.4649 -1.1827  0.0961
 3451TIP3   OH231767   0.867   2.856   0.657 -0.4362 -0.3582 -0.5950
 3451TIP3    H131768   0.941   2.851   0.718  0.5589 -2.2196 -1.8735
 3451TIP3    H231769   0.894   2.800   0.584 -2.7653 -0.3614 -1.4725
 3452TIP3   OH231770   0.276   5.023   3.098 -0.4637 -0.3720  0.4189
 3452TIP3    H131771   0.225   5.074   3.161  0.6073 -1.1545  1.9457
 3452TIP3    H231772   0.363   5.063   3.098 -1.3842  1.8829 -3.2688
 3453TIP3   OH231773   0.857   6.226   2.528 -0.6887  0.1764  0.2376
 3453TIP3    H131774   0.911   6.279   2.588  0.0901 -1.0172  0.6057
 3453TIP3    H231775   0.854   6.277   2.448  1.4572  0.0234  0.0366
 3454TIP3   OH231776   3.796   0.007  11.450 -0.0739  0.3543  0.7816
 3454TIP3    H131777   3.778  -0.075  11.495  0.1289  0.6806  1.4604
 3454TIP3    H231778   3.744   0.002  11.370  2.4437 -1.8465 -0.7839
 3455TIP3   OH231779   2.531   2.282   2.987  0.0182 -0.2715 -0.3180
 3455TIP3    H131780   2.468   2.334   2.937  1.1057  0.8300 -0.5820
 3455TIP3    H231781   2.576   2.229   2.921 -0.2046 -0.5929 -0.2104
 3456TIP3   OH231782   0.778   1.243  15.199 -0.3722  0.0276 -0.3505
 3456TIP3    H131783   0.864   1.226  15.161  0.4672  1.4319  0.8533
 3456TIP3    H231784   0.787   1.220  15.291 -0.6927  1.9971  0.1976
 3457TIP3   OH231785   3.459   2.768  13.834 -0.2374 -0.2814 -0.3123
 3457TIP3    H131786   3.381   2.777  13.888  0.9806  2.3512  1.1468
 3457TIP3    H231787   3.444   2.826  13.759  0.8869  1.4524  0.7556
 3458TIP3   OH231788   3.440   0.644  11.558  0.0407  0.4742 -0.6329
 3458TIP3    H131789   3.525   0.661  11.597 -0.3423 -2.3246  1.6503
 3458TIP3    H231790   3.456   0.576  11.493 -0.4638 -0.3053  0.0415
 3459TIP3   OH231791   6.334   6.656   5.898 -0.5000 -0.3380  0.2716
 3459TIP3    H131792   6.289   6.663   5.982  0.5415  2.1148  0.6649
 3459TIP3    H231793   6.426   6.672   5.918 -0.0473 -1.0608 -1.1534
 3460TIP3   OH231794   3.476   1.801   2.171  0.6526  0.0258 -0.2368
 3460TIP3    H131795   3.547   1.842   2.120  2.0368 -1.9877  0.0167
 3460TIP3    H231796   3.454   1.722   2.122 -1.7341  0.8099 -0.5042
 3461TIP3   OH231797   2.910   4.262  12.088 -0.0063 -0.0248 -0.2665
 3461TIP3    H131798   3.004   4.278  12.096  0.3516 -1.0811 -1.9333
 3461TIP3    H231799   2.896   4.181  12.137 -0.4222  1.1750  1.6440
 3462TIP3   OH231800   4.315   4.280   5.207 -0.1807 -0.3786  0.4319
 3462TIP3    H131801   4.333   4.333   5.130  1.7776 -1.8776 -0.1924
 3462TIP3    H231802   4.359   4.326   5.279 -1.8795  0.9394  0.6423
 3463TIP3   OH231803   2.484   2.056  15.247  0.1131 -0.5646  0.7309
 3463TIP3    H131804   2.491   1.966  15.215 -0.2139 -0.2581 -0.2029
 3463TIP3    H231805   2.419   2.097  15.190  0.0800  0.2004  1.3065
 3464TIP3   OH231806   1.833   0.496  14.452  0.2600  0.0482  0.8533
 3464TIP3    H131807   1.850   0.589  14.442  1.4441 -0.0804  1.6028
 3464TIP3    H231808   1.903   0.464  14.509  0.0538 -1.3612  0.3445
 3465TIP3   OH231809   2.082   3.075   4.294 -0.9155 -0.0558  0.1106
 3465TIP3    H131810   2.154   3.124   4.333 -0.5012 -1.1515  0.7492
 3465TIP3    H231811   2.104   3.069   4.201  0.6446 -1.7635  0.5632
 3466TIP3   OH231812   1.323   5.176  15.968  0.0365 -0.2301 -0.8309
 3466TIP3    H131813   1.326   5.229  16.048  2.5373 -0.1110 -0.9658
 3466TIP3    H231814   1.328   5.086  16.000 -0.3479 -0.2374 -0.7890
 3467TIP3   OH231815   0.804   0.682   4.865  0.3358  0.0696  0.1792
 3467TIP3    H131816   0.875   0.703   4.925 -0.0059  0.7909  0.3260
 3467TIP3    H231817   0.848   0.644   4.789  0.9292  1.0949  0.0020
 3468TIP3   OH231818   2.777   6.592  15.579  0.2806 -0.4931 -0.0573
 3468TIP3    H131819   2.704   6.614  15.637  0.0333  1.1547 -0.9567
 3468TIP3    H231820   2.736   6.544  15.506  0.3575 -1.0950  0.2902
 3469TIP3   OH231821   5.275   5.666   4.098 -0.6325  0.8659 -0.5776
 3469TIP3    H131822   5.203   5.625   4.145 -0.8153  1.3483 -0.4323
 3469TIP3    H231823   5.330   5.593   4.069 -0.3878  0.5693  0.5919
 3470TIP3   OH231824   2.802   0.102   4.947  0.2904 -0.4838  0.1816
 3470TIP3    H131825   2.715   0.137   4.924  0.3171 -1.4336 -1.4853
 3470TIP3    H231826   2.789   0.059   5.032 -1.3001 -2.0369 -0.7928
 3471TIP3   OH231827   1.034   3.508   2.018 -0.0482  0.1007 -0.1388
 3471TIP3    H131828   1.020   3.595   1.979  1.0733  0.6117  0.5492
 3471TIP3    H231829   0.972   3.504   2.091  0.2296  0.5194  0.1227
 3472TIP3   OH231830   6.109   3.138  11.187 -0.2012 -0.2615  0.2149
 3472TIP3    H131831   6.020   3.139  11.223 -0.6793  0.6022 -0.9769
 3472TIP3    H231832   6.164   3.168  11.260 -0.9390 -0.2907  0.7928
 3473TIP3   OH231833   2.743   6.029   2.840 -0.2777 -0.0464  0.2119
 3473TIP3    H131834   2.659   6.064   2.809  0.1376  1.7940  1.0942
 3473TIP3    H231835   2.738   6.034   2.935  0.8488  0.1170  0.2704
 3474TIP3   OH231836   1.010   4.223   1.458 -0.0243  0.1991  0.0480
 3474TIP3    H131837   1.064   4.182   1.389 -0.2827 -0.6410  0.3376
 3474TIP3    H231838   0.999   4.313   1.429  1.7113  0.4352  0.0801
 3475TIP3   OH231839   1.866   0.452   5.101 -0.2009  0.2635  0.0253
 3475TIP3    H131840   1.892   0.414   5.017 -1.3844 -0.0861 -0.1934
 3475TIP3    H231841   1.929   0.523   5.116  0.5063 -0.1900 -0.7649
 3476TIP3   OH231842   5.318   3.920  16.741  0.5901 -0.0230 -0.1826
 3476TIP3    H131843   5.318   3.966  16.657  1.1713 -1.2882 -0.8939
 3476TIP3    H231844   5.345   3.831  16.719  1.9836 -0.0573  1.5100
 3477TIP3   OH231845   5.357   1.272   3.145 -0.0965 -0.2028  0.4900
 3477TIP3    H131846   5.355   1.367   3.161  0.8835  0.1449 -1.3439
 3477TIP3    H231847   5.281   1.255   3.089 -0.9632 -0.7069  1.7989
 3478TIP3   OH231848   1.557   6.221   6.294 -0.0038 -0.4706  0.2863
 3478TIP3    H131849   1.580   6.260   6.379 -0.7331  1.7294 -0.4758
 3478TIP3    H231850   1.465   6.196   6.304 -0.4274  0.8262 -0.1798
 3479TIP3   OH231851   3.152   5.700   0.642  0.7696  0.4527  0.1211
 3479TIP3    H131852   3.191   5.697   0.729  1.5901  0.1066 -0.2563
 3479TIP3    H231853   3.223   5.677   0.583  0.7676  2.6438 -0.8117
 3480TIP3   OH231854   6.673   1.073  15.087  0.5711  0.0678 -0.4804
 3480TIP3    H131855   6.603   1.129  15.054  0.8973 -0.1625 -1.5869
 3480TIP3    H231856   6.638   1.035  15.168 -0.0378  1.0555 -0.2778
 3481TIP3   OH231857   4.129   3.339  14.279  0.0447 -0.2964  0.3117
 3481TIP3    H131858   4.073   3.368  14.350 -1.1475  1.2641 -1.2135
 3481TIP3    H231859   4.214   3.382  14.296 -0.5213  0.8592  0.2865
 3482TIP3   OH231860   5.866   6.024   0.243 -0.2121  0.4074  0.3615
 3482TIP3    H131861   5.928   5.958   0.211 -0.4190 -0.9185  2.5941
 3482TIP3    H231862   5.785   5.976   0.257 -0.5969  1.2997  1.2668
 3483TIP3   OH231863   5.383   4.284  15.242 -0.1475  0.8330  0.2293
 3483TIP3    H131864   5.449   4.315  15.180 -0.6644 -1.1526 -1.3691
 3483TIP3    H231865   5.306   4.338  15.224 -0.3872  0.0807 -1.1030
 3484TIP3   OH231866   6.069   6.221  16.135  0.7761 -0.2164 -0.9132
 3484TIP3    H131867   6.071   6.276  16.213  0.2869 -1.9762  0.3709
 3484TIP3    H231868   6.131   6.150  16.154  0.0426 -1.1050 -1.7895
 3485TIP3   OH231869   2.081   1.464  13.575 -0.3064 -0.0338 -0.0499
 3485TIP3    H131870   2.171   1.497  13.579 -0.3450  0.1745 -0.7728
 3485TIP3    H231871   2.032   1.522  13.634 -0.2236  0.7228 -0.7082
 3486TIP3   OH231872   2.748   5.711  14.763  0.4114  0.1492  0.6283
 3486TIP3    H131873   2.821   5.757  14.723  0.5127 -0.4694  0.0852
 3486TIP3    H231874   2.749   5.738  14.855  2.5649 -1.4137  1.0902
 3487TIP3   OH231875   1.177   2.090  14.065 -0.2441 -0.6351 -0.8181
 3487TIP3    H131876   1.247   2.025  14.072 -0.8809 -1.2595 -0.1437
 3487TIP3    H231877   1.188   2.129  13.979  0.8558 -0.8239 -0.7612
 3488TIP3   OH231878   6.725   3.817   2.567  0.2904  0.4599 -0.5088
 3488TIP3    H131879   6.690   3.889   2.513  0.0111  1.5640  1.1113
 3488TIP3    H231880   6.747   3.858   2.650 -0.7418 -1.5073  0.7755
 3489TIP3   OH231881   5.413   1.893  16.292  0.1930 -0.3780 -0.2521
 3489TIP3    H131882   5.501   1.877  16.258  0.1362  1.5846 -1.3527
 3489TIP3    H231883   5.425   1.959  16.361 -0.4435 -0.0314 -0.4753
 3490TIP3   OH231884   2.866   6.281   0.048 -0.1232  0.9828  0.3748
 3490TIP3    H131885   2.885   6.311  -0.042 -1.1557 -0.8408 -0.4667
 3490TIP3    H231886   2.794   6.220   0.038  0.5415 -0.1428  2.3397
 3491TIP3   OH231887   4.275   6.123  15.809  0.2746  0.1373 -0.1505
 3491TIP3    H131888   4.234   6.093  15.891 -0.8858 -1.1065 -1.1636
 3491TIP3    H231889   4.201   6.140  15.750  1.1721 -1.0910 -1.6514
 3492TIP3   OH231890   4.559   1.139   0.317 -0.0669  0.4811  0.7007
 3492TIP3    H131891   4.618   1.098   0.254 -0.6441  0.0543  0.4352
 3492TIP3    H231892   4.509   1.202   0.265 -0.8514 -0.1858  0.6459
 3493TIP3   OH231893   4.610   3.103  12.268  0.0810 -0.0267 -0.2161
 3493TIP3    H131894   4.641   3.115  12.358 -0.5648  0.2590 -0.0293
 3493TIP3    H231895   4.682   3.134  12.213  0.1618  0.5632  0.2171
 3494TIP3   OH231896   5.051   4.722  12.165 -0.1101  0.0161 -0.0141
 3494TIP3    H131897   5.081   4.676  12.244 -1.5198 -1.3783 -0.2768
 3494TIP3    H231898   4.985   4.664  12.127  1.6782 -0.0999 -3.1111
 3495TIP3   OH231899   4.541   5.342  12.039 -0.6018 -0.5777  0.2018
 3495TIP3    H131900   4.532   5.429  12.078 -0.1522 -0.0665 -0.8133
 3495TIP3    H231901   4.629   5.341  12.002 -1.0454 -1.0120 -0.8761
 3496TIP3   OH231902   6.772   3.550  12.250  0.1105  0.1295 -0.0664
 3496TIP3    H131903   6.727   3.606  12.188 -1.6855 -1.4291 -0.2276
 3496TIP3    H231904   6.707   3.532  12.318  0.4851 -2.0974 -0.2571
 3497TIP3   OH231905   5.803   6.170  17.157  0.6041 -0.4991 -0.2128
 3497TIP3    H131906   5.759   6.125  17.085  0.4243 -2.3287  1.0107
 3497TIP3    H231907   5.874   6.111  17.181 -0.2903 -0.6526  2.1304
 3498TIP3   OH231908   1.427   2.451   0.942  0.5762  0.6508  0.2490
 3498TIP3    H131909   1.479   2.442   1.022 -0.4223  1.2923  0.9823
 3498TIP3    H231910   1.377   2.533   0.954 -0.6039  0.0522 -0.4268
 3499TIP3   OH231911   0.690   2.075  13.785  0.2960  0.1476 -0.0187
 3499TIP3    H131912   0.730   2.050  13.702  0.9651 -0.1207  0.3739
 3499TIP3    H231913   0.684   2.170  13.782  0.3626  0.1397 -0.3546
 3500TIP3   OH231914   6.006   1.580   4.419  0.4483  0.7609  0.1242
 3500TIP3    H131915   5.979   1.668   4.391 -0.6918 -0.0293 -1.3790
 3500TIP3    H231916   5.928   1.526   4.403  1.0255 -0.4538  1.3760
 3501TIP3   OH231917   5.969   0.576  11.667  0.5795 -0.3898  0.0403
 3501TIP3    H131918   6.012   0.650  11.625 -0.7871 -0.1555 -0.9773
 3501TIP3    H231919   6.035   0.506  11.663  1.6175  0.5469  0.3837
 3502TIP3   OH231920   0.067   1.018  12.041 -0.2288  0.3084 -0.4106
 3502TIP3    H131921   0.005   0.962  12.088  0.6438 -0.2745  0.0655
 3502TIP3    H231922   0.138   1.033  12.104 -0.4818  2.0095 -0.5048
 3503TIP3   OH231923   5.180   2.033   5.110 -0.5215  0.1479  0.4073
 3503TIP3    H131924   5.201   1.973   5.181  0.5022 -1.7297 -1.4280
 3503TIP3    H231925   5.107   1.992   5.064  0.0275  0.4297 -0.7302
 3504TIP3   OH231926   0.372   4.436   3.586  0.1106  0.2388 -0.5220
 3504TIP3    H131927   0.467   4.429   3.576  0.0130 -0.9798 -0.7307
 3504TIP3    H231928   0.355   4.404   3.674 -0.1090  0.4131 -0.5015
 3505TIP3   OH231929   6.116   1.709  15.719  0.1493 -0.1836  0.1308
 3505TIP3    H131930   6.052   1.678  15.783  1.6263 -1.4427  1.0488
 3505TIP3    H231931   6.186   1.643  15.722  1.5320  1.2137 -0.7604
 3506TIP3   OH231932   3.676   0.503   5.069 -0.1112  0.0843 -0.7062
 3506TIP3    H131933   3.693   0.417   5.109 -0.1444 -0.2133 -1.3199
 3506TIP3    H231934   3.702   0.492   4.977 -2.0849  0.1076 -1.2976
 3507TIP3   OH231935   2.020   1.549  10.935 -0.0042 -0.3732  0.5523
 3507TIP3    H131936   2.006   1.541  11.029 -1.4089  0.3332  0.4130
 3507TIP3    H231937   1.945   1.600  10.904 -0.3257 -1.8570 -1.1795
 3508TIP3   OH231938   6.027   3.331  14.700 -0.0553  0.2743 -0.0883
 3508TIP3    H131939   5.986   3.274  14.766 -0.7328  0.4018 -0.3987
 3508TIP3    H231940   6.073   3.270  14.642  0.9251  0.1942  0.7602
 3509TIP3   OH231941   2.049   2.099  15.837  0.8026 -0.2498  0.2624
 3509TIP3    H131942   2.023   2.103  15.929  0.7078 -0.2240  0.2348
 3509TIP3    H231943   1.982   2.149  15.791  0.8468 -0.2676  0.1779
 3510TIP3   OH231944   6.005   5.332  12.450  0.2571  0.6838  0.5000
 3510TIP3    H131945   6.004   5.284  12.367  1.0045  0.0647  0.8432
 3510TIP3    H231946   6.096   5.359  12.461 -0.2119  2.4864  0.1466
 3511TIP3   OH231947   1.398   6.708   5.796  0.1189 -0.1894  0.7029
 3511TIP3    H131948   1.403   6.745   5.885 -0.3457  0.7487  0.3452
 3511TIP3    H231949   1.479   6.658   5.786 -0.3553 -1.2647  2.0839
 3512TIP3   OH231950   1.542   0.019   6.061 -0.8180 -0.3558 -0.2160
 3512TIP3    H131951   1.601   0.071   6.116  1.8368 -2.7208 -0.6602
 3512TIP3    H231952   1.555   0.053   5.973  1.8763 -2.4440 -0.7083
 3513TIP3   OH231953   6.026   0.443   4.595  0.4191 -0.2540  0.4607
 3513TIP3    H131954   6.075   0.363   4.576 -0.5832 -0.5873 -0.7729
 3513TIP3    H231955   6.068   0.510   4.541  1.4880  0.1638  1.7608
 3514TIP3   OH231956   0.730   3.435  14.765 -0.1825  0.5984  0.4193
 3514TIP3    H131957   0.780   3.497  14.711 -1.1272 -0.1449 -1.3367
 3514TIP3    H231958   0.654   3.485  14.793 -2.2914 -0.4448 -3.1384
 3515TIP3   OH231959   5.394   5.262  13.491 -0.3184 -0.1669 -0.0555
 3515TIP3    H131960   5.331   5.254  13.419 -1.5821  1.1202  0.8742
 3515TIP3    H231961   5.363   5.199  13.557 -0.5094  0.3075  0.3120
 3516TIP3   OH231962   2.085   3.381   0.099  0.2278 -0.0977  0.2397
 3516TIP3    H131963   1.998   3.349   0.124 -0.6306  2.3282  0.4673
 3516TIP3    H231964   2.146   3.321   0.142 -1.3227 -1.0768  1.1134
 3517TIP3   OH231965   4.628   0.220  15.622 -0.4143 -0.2182 -0.2558
 3517TIP3    H131966   4.685   0.145  15.600 -1.0896 -1.1978  1.2531
 3517TIP3    H231967   4.558   0.182  15.674 -2.9114  0.8522 -2.7091
 3518TIP3   OH231968   1.606   5.275   5.914 -0.0711 -0.7014 -0.2535
 3518TIP3    H131969   1.548   5.200   5.896  1.9661 -2.5779  0.8337
 3518TIP3    H231970   1.660   5.246   5.987 -0.1050  2.3571  1.0379
 3519TIP3   OH231971   0.627   5.056   3.384  0.3394  0.6780 -0.2725
 3519TIP3    H131972   0.678   4.982   3.419  0.2059  1.3744  1.4080
 3519TIP3    H231973   0.563   5.075   3.452 -1.4510  0.5654 -1.9003
 3520TIP3   OH231974   3.349   1.777   4.763  0.3737  0.5617 -0.0861
 3520TIP3    H131975   3.397   1.752   4.685 -1.1104  0.2255 -0.9177
 3520TIP3    H231976   3.416   1.799   4.827  1.6287 -0.4677 -1.0213
 3521TIP3   OH231977   3.454   5.251   0.514 -0.2894  0.3499  0.1645
 3521TIP3    H131978   3.509   5.224   0.441 -0.4721  1.8526 -0.5445
 3521TIP3    H231979   3.369   5.270   0.474 -0.7003  0.1328  0.9296
 3522TIP3   OH231980   6.527   5.710   3.118 -0.0224  0.2323 -0.1442
 3522TIP3    H131981   6.490   5.707   3.206 -1.2218  1.4197 -0.5932
 3522TIP3    H231982   6.578   5.790   3.115 -0.3582  0.4345 -0.6666
 3523TIP3   OH231983   0.992   4.945  15.142  0.0685  0.0930  0.4634
 3523TIP3    H131984   1.040   4.989  15.072 -0.7779  0.7139  0.2721
 3523TIP3    H231985   1.061   4.913  15.201  0.7437  0.4557 -0.1193
 3524TIP3   OH231986   5.407   5.441   3.969  0.2317  0.6376 -0.0472
 3524TIP3    H131987   5.402   5.345   3.972 -1.3200  0.5324 -3.3952
 3524TIP3    H231988   5.501   5.460   3.971  0.6690 -1.1316 -2.0896
 3525TIP3   OH231989   3.045   1.324   0.958 -0.5753  0.2467 -0.0305
 3525TIP3    H131990   3.103   1.393   0.927  0.2204  0.2228  1.3380
 3525TIP3    H231991   2.957   1.351   0.931  0.1283 -0.0933 -2.7850
 3526TIP3   OH231992   3.322   2.798   0.673 -0.4089 -0.3961 -0.2543
 3526TIP3    H131993   3.350   2.888   0.662 -0.9887  0.1931  2.6933
 3526TIP3    H231994   3.403   2.749   0.688 -0.0423 -0.5061 -2.3863
 3527TIP3   OH231995   0.743   6.326   2.176 -0.0886  0.2077  0.1146
 3527TIP3    H131996   0.816   6.365   2.223 -0.6018  0.1090  1.0000
 3527TIP3    H231997   0.724   6.389   2.106  1.1509 -0.0071 -0.4269
 3528TIP3   OH231998   3.203   2.548   0.696 -0.1632 -0.3049 -0.1762
 3528TIP3    H131999   3.231   2.639   0.689 -2.7683  0.4071 -2.1416
 3528TIP3    H232000   3.189   2.520   0.605 -0.7773 -2.2122  0.4844
 3529TIP3   OH232001   1.355   5.831  11.367  0.6505 -0.1867 -0.0475
 3529TIP3    H132002   1.290   5.854  11.433  0.0250  2.4260 -1.5206
 3529TIP3    H232003   1.414   5.906  11.364  1.4958 -0.8871 -1.4405
 3530TIP3   OH232004   2.199   6.526  15.365 -0.0966 -0.3593 -0.0622
 3530TIP3    H132005   2.139   6.533  15.440  1.2677 -0.7700  1.0938
 3530TIP3    H232006   2.249   6.446  15.382  1.6192  0.6247 -0.3836
 3531TIP3   OH232007   2.690   0.257  14.912 -0.8685  0.0916 -0.8845
 3531TIP3    H132008   2.604   0.252  14.953 -0.0966 -1.2318  0.6222
 3531TIP3    H232009   2.688   0.190  14.844 -1.1793  0.3517 -1.1324
 3532TIP3   OH232010   1.489   4.524   5.729  0.4203 -0.3426 -0.0646
 3532TIP3    H132011   1.439   4.591   5.775  1.6779  0.1519  0.6228
 3532TIP3    H232012   1.511   4.564   5.645 -1.5440 -1.0997 -0.9557
 3533TIP3   OH232013   6.035   5.608   3.037 -0.2435 -0.1333 -0.4402
 3533TIP3    H132014   6.014   5.542   3.104 -0.5433 -1.1940 -1.5517
 3533TIP3    H232015   6.128   5.595   3.020  0.2874  1.4224  1.1217
 3534TIP3   OH232016   6.545   0.065   2.153  0.8716  0.3688 -0.1019
 3534TIP3    H132017   6.491  -0.012   2.131 -0.3708  1.1772  0.0963
 3534TIP3    H232018   6.635   0.036   2.137  0.3963 -1.0580 -0.2571
 3535TIP3   OH232019   4.888   4.519  11.509 -0.0024 -0.4179  0.3528
 3535TIP3    H132020   4.826   4.447  11.498 -0.2383 -0.2231  0.4054
 3535TIP3    H232021   4.855   4.588  11.452  0.7093 -0.6655 -0.3648
 3536TIP3   OH232022   2.125   5.006  13.717 -0.5039 -0.1184 -0.2130
 3536TIP3    H132023   2.166   4.987  13.633  0.3442  1.3529 -0.1447
 3536TIP3    H232024   2.198   5.014  13.778 -1.0089  0.4721  0.3276
 3537TIP3   OH232025   1.973   2.214  12.989 -0.1065 -0.2747 -0.4159
 3537TIP3    H132026   2.049   2.156  12.981 -0.5986 -1.0104  0.1843
 3537TIP3    H232027   1.953   2.215  13.083 -0.1411  0.8229 -0.4275
 3538TIP3   OH232028   6.292   4.205  13.723  0.1025  0.2523 -0.1378
 3538TIP3    H132029   6.272   4.298  13.732  0.9892  0.5496 -1.2714
 3538TIP3    H232030   6.325   4.179  13.809  0.2744  1.0847  0.0450
 3539TIP3   OH232031   4.072   1.516   1.393 -0.2274 -0.1071 -0.0262
 3539TIP3    H132032   4.060   1.581   1.462  0.0618  0.9073 -0.9142
 3539TIP3    H232033   4.025   1.438   1.424 -4.4281  1.9310 -0.9182
 3540TIP3   OH232034   4.440   5.150  11.417 -0.0794  0.4459 -0.2517
 3540TIP3    H132035   4.396   5.093  11.480  1.1966 -2.9482 -2.2616
 3540TIP3    H232036   4.368   5.192  11.369 -1.0515  1.3648  1.9509
 3541TIP3   OH232037   1.452   0.181  12.554 -1.1752  0.1128 -0.4256
 3541TIP3    H132038   1.456   0.260  12.499 -0.6913  0.7093  0.4607
 3541TIP3    H232039   1.468   0.213  12.643  2.5186 -1.4484 -0.4578
 3542TIP3   OH232040   5.266   5.076   1.603  0.1789 -0.5414 -0.5130
 3542TIP3    H132041   5.175   5.048   1.611  0.1271 -0.2269  0.1163
 3542TIP3    H232042   5.261   5.164   1.565  0.2578 -0.7805 -1.0842
 3543TIP3   OH232043   5.386   0.118  16.091 -0.9783  0.8033 -0.0298
 3543TIP3    H132044   5.350   0.034  16.120 -0.0875 -0.2589 -1.9029
 3543TIP3    H232045   5.395   0.108  15.996  0.7564  2.3963 -0.0489
 3544TIP3   OH232046   1.640   3.892  14.278  0.2033 -0.2448  0.4656
 3544TIP3    H132047   1.639   3.804  14.242 -0.4590  0.2943 -0.8677
 3544TIP3    H232048   1.555   3.902  14.321  0.5036 -0.4531  1.1115
 3545TIP3   OH232049   1.665   4.076  15.653  0.9893  0.0219 -0.2136
 3545TIP3    H132050   1.662   4.093  15.559 -1.0806  2.0411  0.1976
 3545TIP3    H232051   1.587   4.024  15.671  0.8450  0.4915  0.5553
 3546TIP3   OH232052   6.595   0.832   4.645 -0.2808  0.8309  0.1481
 3546TIP3    H132053   6.642   0.847   4.727 -0.9449  2.0669  0.3095
 3546TIP3    H232054   6.657   0.781   4.591  1.1897  2.3050  0.4071
 3547TIP3   OH232055   6.260   0.937  11.853 -0.1286 -0.2481  0.7200
 3547TIP3    H132056   6.193   0.917  11.920 -0.3042 -1.1338  0.2877
 3547TIP3    H232057   6.342   0.936  11.901 -0.1391 -1.9909  0.7349
 3548TIP3   OH232058   2.682   4.614  14.200 -0.2654 -0.3254 -0.2254
 3548TIP3    H132059   2.651   4.525  14.184 -1.9350  0.1432  0.2859
 3548TIP3    H232060   2.622   4.649  14.266  1.0168  0.8268  0.3593
 3549TIP3   OH232061   0.521   5.339   0.743  0.2846  0.3922  0.1416
 3549TIP3    H132062   0.579   5.305   0.811 -1.5089 -0.9107  1.0813
 3549TIP3    H232063   0.514   5.268   0.679  1.2800  1.2944 -0.9912
 3550TIP3   OH232064   4.240   0.861   2.184 -0.0687  0.5727 -0.5965
 3550TIP3    H132065   4.244   0.901   2.097 -3.6260  0.5884 -0.8038
 3550TIP3    H232066   4.218   0.770   2.168  2.4331 -0.2114  0.1822
 3551TIP3   OH232067   0.528   2.940  11.216 -0.7253  0.1021 -0.0010
 3551TIP3    H132068   0.472   3.001  11.169 -0.7024 -0.1024 -0.2964
 3551TIP3    H232069   0.537   2.978  11.304 -1.3709  0.0989  0.0655
 3552TIP3   OH232070   4.089   6.565  12.051 -0.2973 -0.0276 -0.0603
 3552TIP3    H132071   4.151   6.518  12.106 -0.9343 -0.2287  0.4985
 3552TIP3    H232072   4.037   6.497  12.009 -1.2403  0.1580  0.7722
 3553TIP3   OH232073   5.767   3.601   3.190  0.0509  0.4017 -0.1438
 3553TIP3    H132074   5.768   3.660   3.115 -0.8542  0.8836  0.2127
 3553TIP3    H232075   5.676   3.573   3.197  0.0491  0.6557  0.9978
 3554TIP3   OH232076   0.812   6.502  16.248 -0.1870 -0.1415 -0.3346
 3554TIP3    H132077   0.719   6.484  16.251 -0.3877  0.9998  0.6700
 3554TIP3    H232078   0.822   6.564  16.175  0.0091 -1.4375 -1.4314
 3555TIP3   OH232079   1.642   1.282   1.488  0.0495 -0.5344  0.3347
 3555TIP3    H132080   1.642   1.187   1.479  2.4219 -0.5953  0.4632
 3555TIP3    H232081   1.650   1.297   1.582 -0.1306 -0.2235  0.3005
 3556TIP3   OH232082   6.390   4.987   3.051 -0.1705 -0.3965  0.4420
 3556TIP3    H132083   6.331   4.948   3.116  0.4750 -1.9073  0.1376
 3556TIP3    H232084   6.334   5.009   2.977 -0.9403  1.4771  1.5626
 3557TIP3   OH232085   6.260   6.579  14.125 -0.0733 -0.9082  0.3609
 3557TIP3    H132086   6.242   6.510  14.189 -1.6237 -1.8546 -1.0354
 3557TIP3    H232087   6.286   6.531  14.046  0.0790  0.1586 -0.2431
 3558TIP3   OH232088   1.844   6.512  13.070  0.2053 -0.0944 -1.0951
 3558TIP3    H132089   1.798   6.596  13.061 -0.5372 -0.2268  1.1876
 3558TIP3    H232090   1.777   6.446  13.051  0.0404 -0.2361 -0.0274
 3559TIP3   OH232091   1.632   3.277  11.007 -0.0450  0.7828  0.2425
 3559TIP3    H132092   1.605   3.237  10.925  0.0553 -0.5139  0.8283
 3559TIP3    H232093   1.727   3.282  11.002 -0.1542  2.3748 -0.4674
 3560TIP3   OH232094   0.764   5.202  13.421 -0.1347  0.7565  0.0766
 3560TIP3    H132095   0.719   5.283  13.446 -0.8410  0.8662 -1.4597
 3560TIP3    H232096   0.844   5.231  13.378  0.0984  0.6220  0.4242
 3561TIP3   OH232097   1.883   1.486   0.308  0.3533  0.6535  0.0124
 3561TIP3    H132098   1.957   1.442   0.350  1.1406  0.1248 -1.8625
 3561TIP3    H232099   1.899   1.579   0.325  0.9437  0.4877  0.4139
 3562TIP3   OH232100   3.270   6.507  11.762  0.2665  0.3385  0.0772
 3562TIP3    H132101   3.326   6.579  11.790 -0.6221  0.2893  2.0541
 3562TIP3    H232102   3.328   6.430  11.765  0.3127  0.4158  1.3244
 3563TIP3   OH232103   1.903   0.820  11.426 -0.0573  0.1178 -0.1992
 3563TIP3    H132104   1.962   0.804  11.500 -0.8322 -0.3469  0.3169
 3563TIP3    H232105   1.868   0.733  11.404  0.3286  0.2160 -1.2476
 3564TIP3   OH232106   1.356   5.911  13.768 -0.0923 -0.3392  0.0907
 3564TIP3    H132107   1.303   5.969  13.714 -1.0164 -0.6494  0.6432
 3564TIP3    H232108   1.319   5.824  13.754 -0.0695 -0.4808  0.8886
 3565TIP3   OH232109   5.572   6.163  16.723 -0.5804  0.0079  0.3652
 3565TIP3    H132110   5.517   6.120  16.788  0.6192 -0.4518  1.0912
 3565TIP3    H232111   5.540   6.131  16.639 -0.0286 -1.9294  0.8800
 3566TIP3   OH232112   4.697   6.248   3.305 -0.2567  0.0058 -0.2002
 3566TIP3    H132113   4.678   6.155   3.295  0.6362 -0.2689  0.5725
 3566TIP3    H232114   4.643   6.291   3.239  1.6849 -1.3234 -2.7277
 3567TIP3   OH232115   0.775   3.822  13.959  0.1734 -0.2698 -0.2955
 3567TIP3    H132116   0.770   3.902  13.907 -0.6605 -0.8230 -1.0741
 3567TIP3    H232117   0.686   3.787  13.958  0.0691 -0.1000  1.8190
 3568TIP3   OH232118   6.404   3.124   4.979 -0.3231 -0.3504  0.3649
 3568TIP3    H132119   6.477   3.089   5.030  0.6772  1.1910  0.0212
 3568TIP3    H232120   6.421   3.094   4.889 -0.6625 -0.8182  0.4502
 3569TIP3   OH232121   6.362   2.576   2.939 -0.4881  0.8214 -0.3708
 3569TIP3    H132122   6.297   2.546   2.877 -0.6070  0.2206  0.0333
 3569TIP3    H232123   6.429   2.507   2.939 -0.6002  0.7050  0.3252
 3570TIP3   OH232124   2.908   2.576   3.076  0.3557  0.4256  0.5368
 3570TIP3    H132125   2.915   2.653   3.133  0.9246 -0.2167  1.3435
 3570TIP3    H232126   2.922   2.502   3.135 -1.6151 -0.3744  0.0360
 3571TIP3   OH232127   5.061   0.105  15.490  0.4987 -0.2747  0.2553
 3571TIP3    H132128   4.986   0.047  15.489  0.6184 -0.4880  1.7567
 3571TIP3    H232129   5.027   0.189  15.458  0.2757 -1.0831 -1.6801
 3572TIP3   OH232130   5.690   3.393  14.313  0.6282 -0.1159 -0.5244
 3572TIP3    H132131   5.679   3.472  14.261 -2.3588 -0.2155 -0.1425
 3572TIP3    H232132   5.671   3.421  14.403  0.2007 -1.0970 -0.3033
 3573TIP3   OH232133   0.833   6.033  12.231 -0.4186 -0.0469 -0.1500
 3573TIP3    H132134   0.868   6.079  12.308  0.3802 -2.4945  1.0145
 3573TIP3    H232135   0.911   6.007  12.182 -0.8093 -1.0287 -0.2557
 3574TIP3   OH232136   0.203   3.654   5.821 -0.8171  0.2811  0.1223
 3574TIP3    H132137   0.276   3.662   5.883 -0.3348 -1.0567 -0.2621
 3574TIP3    H232138   0.129   3.627   5.875 -0.7604  0.5749  0.3463
 3575TIP3   OH232139   1.208   3.774   5.114 -0.8101  0.3228  0.8001
 3575TIP3    H132140   1.265   3.703   5.084 -2.0691 -0.4970  0.3051
 3575TIP3    H232141   1.134   3.730   5.155 -0.6055  1.3987  2.3590
 3576TIP3   OH232142   6.566   2.572   1.352  0.0217  0.0019 -0.1185
 3576TIP3    H132143   6.608   2.507   1.408  1.0294  0.6344 -0.1310
 3576TIP3    H232144   6.609   2.561   1.267 -0.7205 -0.1939 -0.4751
 3577TIP3   OH232145   6.778   3.209   4.254  0.1022  0.5647 -0.4677
 3577TIP3    H132146   6.732   3.292   4.263  0.0432  0.4817  0.0581
 3577TIP3    H232147   6.834   3.204   4.332  1.7572  1.1218 -1.5965
 3578TIP3   OH232148   3.079   3.097  12.839 -0.0140  0.0934 -0.4072
 3578TIP3    H132149   3.091   3.148  12.760 -0.8389  0.1613 -0.4968
 3578TIP3    H232150   3.147   3.030  12.836  1.0496  1.1574 -0.3079
 3579TIP3   OH232151   5.069   3.316  15.039 -0.4127  0.4325  0.1909
 3579TIP3    H132152   5.071   3.397  15.090 -0.8361  0.1094  0.7390
 3579TIP3    H232153   5.094   3.248  15.102 -1.7161 -0.0742  0.1859
 3580TIP3   OH232154   0.572   3.080   1.320  0.4784 -0.5535  0.2287
 3580TIP3    H132155   0.488   3.041   1.346 -0.0847  0.6107  0.2113
 3580TIP3    H232156   0.576   3.163   1.368 -0.4128  1.4626 -2.9913
 3581TIP3   OH232157   1.442   6.024  17.167 -0.0572 -0.1304 -0.4318
 3581TIP3    H132158   1.384   6.093  17.134  2.6123  1.9681 -0.9986
 3581TIP3    H232159   1.510   6.071  17.215  1.5697 -2.4074 -0.4023
 3582TIP3   OH232160   6.051   0.986  13.906 -0.1550 -0.0166  0.2995
 3582TIP3    H132161   5.979   0.930  13.880 -0.2864 -0.2327  1.1138
 3582TIP3    H232162   6.026   1.020  13.992  0.3005  0.6236  0.1864
 3583TIP3   OH232163   5.834   1.222   2.462  0.3767 -0.6889  0.5399
 3583TIP3    H132164   5.739   1.213   2.471  0.4104 -1.2071  0.3356
 3583TIP3    H232165   5.869   1.139   2.493  0.6425 -1.5082 -1.8577
 3584TIP3   OH232166   5.068   3.396  15.527  0.5298  0.2489 -0.1741
 3584TIP3    H132167   5.101   3.447  15.454  0.9760 -0.1958 -0.2882
 3584TIP3    H232168   4.975   3.382  15.507  1.0559 -1.3694 -1.5422
 3585TIP3   OH232169   1.635   4.206  13.767 -0.2008  0.3917  0.3431
 3585TIP3    H132170   1.652   4.141  13.700  0.3393  0.7838  0.0978
 3585TIP3    H232171   1.552   4.246  13.742  0.2543  0.8902 -0.3713
 3586TIP3   OH232172   2.855   0.834  12.938 -0.3313 -0.4126  0.3596
 3586TIP3    H132173   2.786   0.872  12.884 -0.0779  0.3588  0.5633
 3586TIP3    H232174   2.849   0.881  13.021  2.1123  1.5720 -0.4909
 3587TIP3   OH232175   6.074   3.194  13.498 -1.1157  0.6244  0.3523
 3587TIP3    H132176   6.082   3.267  13.559 -0.9641  1.0678 -0.1974
 3587TIP3    H232177   6.130   3.126  13.534  0.5692  1.6167 -0.3676
 3588TIP3   OH232178   2.099   0.529  13.405  0.2406  0.4212  0.2191
 3588TIP3    H132179   2.084   0.467  13.477  0.1934 -0.8863 -0.8974
 3588TIP3    H232180   2.025   0.516  13.346  0.9785  0.5088 -0.7400
 3589TIP3   OH232181   5.122   2.087  10.691  0.7452 -0.3754 -0.0468
 3589TIP3    H132182   5.051   2.121  10.638 -0.4909 -2.1388  0.4174
 3589TIP3    H232183   5.202   2.114  10.645 -0.2812 -2.3341 -3.1706
 3590TIP3   OH232184   6.077   2.802   3.336  0.0812  0.3727 -0.0004
 3590TIP3    H132185   5.984   2.822   3.328  0.0634 -0.2165 -1.3871
 3590TIP3    H232186   6.097   2.818   3.428 -1.5061  0.0247  0.4181
 3591TIP3   OH232187   2.864   1.355   5.485 -0.3581 -0.0872 -0.1306
 3591TIP3    H132188   2.859   1.446   5.514  0.5697 -0.2651  0.6153
 3591TIP3    H232189   2.927   1.357   5.413  0.1108 -0.2352  0.2762
 3592TIP3   OH232190   0.997   0.031  11.525 -0.0857 -0.2049 -0.0422
 3592TIP3    H132191   0.992  -0.064  11.536 -0.7540 -0.1714 -0.0741
 3592TIP3    H232192   1.013   0.044  11.431  2.6483 -0.3762  0.3593
 3593TIP3   OH232193   2.115   4.670  11.174 -0.3628  0.7042  0.0734
 3593TIP3    H132194   2.085   4.735  11.111  0.1572  0.1476 -0.7498
 3593TIP3    H232195   2.036   4.622  11.199 -0.3874  0.1292 -1.0694
 3594TIP3   OH232196   6.714   2.949   5.745 -0.3090  0.3088 -0.3430
 3594TIP3    H132197   6.648   2.993   5.692  0.0006  0.2871 -0.7446
 3594TIP3    H232198   6.666   2.919   5.822 -0.6835  0.6599 -0.4364
 3595TIP3   OH232199   6.786   3.345   0.676 -0.1025  0.2317 -0.7583
 3595TIP3    H132200   6.836   3.282   0.729  1.8790  0.5179 -2.2020
 3595TIP3    H232201   6.800   3.429   0.719 -0.1326  0.1636 -0.6155
 3596TIP3   OH232202   1.574   2.292  14.887 -0.3233 -0.4682 -0.0775
 3596TIP3    H132203   1.566   2.367  14.828 -0.2764 -0.1661  0.2955
 3596TIP3    H232204   1.564   2.215  14.831 -1.0015 -0.1693 -0.3635
 3597TIP3   OH232205   5.319   0.015  11.191  0.2418 -0.5314  0.5216
 3597TIP3    H132206   5.259   0.089  11.202 -0.1259 -0.9248  1.1882
 3597TIP3    H232207   5.396   0.053  11.148 -0.4254  0.0007 -0.2385
 3598TIP3   OH232208   5.971   0.390   3.242  0.1833 -0.1460  0.3198
 3598TIP3    H132209   6.064   0.377   3.259  0.1234 -0.8398  0.1506
 3598TIP3    H232210   5.927   0.356   3.320  0.0290 -0.8902 -0.0804
 3599TIP3   OH232211   5.375   0.546   3.950  0.1062  0.4955  0.0551
 3599TIP3    H132212   5.420   0.531   3.867 -0.0268  0.9619 -0.1000
 3599TIP3    H232213   5.364   0.458   3.987 -2.1094  0.0546 -1.5998
 3600TIP3   OH232214   1.062   6.480   4.673  0.3617  0.6820  0.3794
 3600TIP3    H132215   0.984   6.487   4.618  1.7851  1.6296 -1.6214
 3600TIP3    H232216   1.133   6.460   4.611  1.4119 -2.1198  2.3746
 3601TIP3   OH232217   5.697   3.100  16.767  0.0311 -0.0719  0.4016
 3601TIP3    H132218   5.748   3.020  16.767  2.3492  1.3522  0.6377
 3601TIP3    H232219   5.664   3.109  16.856 -1.5210 -1.5298 -0.0138
 3602TIP3   OH232220   3.730   0.375   2.850 -0.4024 -0.3096 -0.2175
 3602TIP3    H132221   3.713   0.440   2.918 -1.0758 -1.1234  0.3992
 3602TIP3    H232222   3.825   0.378   2.837 -0.5339  1.5340 -0.9493
 3603TIP3   OH232223   6.551   0.106   5.678 -0.4431  0.3041 -0.5551
 3603TIP3    H132224   6.537   0.114   5.773 -0.1314 -0.7789 -0.4067
 3603TIP3    H232225   6.505   0.182   5.641 -1.8993 -0.0982  0.3409
 3604TIP3   OH232226   0.801   4.330   3.699 -0.4112 -0.3706 -0.2156
 3604TIP3    H132227   0.750   4.361   3.624 -0.2066  0.6043  0.0410
 3604TIP3    H232228   0.779   4.391   3.770 -1.5823 -2.0433  0.8821
 3605TIP3   OH232229   5.884   0.794   6.522 -0.3919 -0.3578  0.0247
 3605TIP3    H132230   5.928   0.729   6.578 -0.4513  1.1179  1.8524
 3605TIP3    H232231   5.944   0.809   6.450  0.3427 -1.2647  0.4368
 3606TIP3   OH232232   1.795   1.972   2.526 -0.4849 -0.4111  0.2965
 3606TIP3    H132233   1.818   2.038   2.591 -2.2563  0.5120  0.0062
 3606TIP3    H232234   1.715   2.005   2.485  1.0347 -0.5215 -2.9702
 3607TIP3   OH232235   3.100   6.200   0.981 -0.0332 -0.3047 -0.1942
 3607TIP3    H132236   3.086   6.146   0.903  1.5928 -0.2361 -0.5612
 3607TIP3    H232237   3.123   6.287   0.946  1.5736 -0.5032  0.3318
 3608TIP3   OH232238   1.087   5.783  15.556 -0.0610 -0.1098 -0.7179
 3608TIP3    H132239   1.133   5.819  15.631  2.5926 -0.7763 -1.9705
 3608TIP3    H232240   1.064   5.693  15.582 -1.1399  0.3759  0.0757
 3609TIP3   OH232241   2.733   4.070  11.924  0.7435 -0.5448  0.1026
 3609TIP3    H132242   2.817   4.070  11.879  0.5815 -1.9458 -0.2327
 3609TIP3    H232243   2.706   4.162  11.926  0.8212 -0.4283 -2.5371
 3610TIP3   OH232244   1.257   1.951  15.739 -0.4557  0.6279  0.3515
 3610TIP3    H132245   1.179   1.980  15.692 -0.1159 -0.7666 -1.1093
 3610TIP3    H232246   1.232   1.956  15.832 -1.6456  1.9279 -0.0249
 3611TIP3   OH232247   0.908   5.182   6.179  0.1225 -0.6559 -1.0143
 3611TIP3    H132248   0.953   5.254   6.222  1.6064 -0.1003 -3.3962
 3611TIP3    H232249   0.818   5.185   6.213  0.5521  1.3918 -0.0205
 3612TIP3   OH232250   1.508   2.826   4.162 -0.1982 -0.1062 -0.1639
 3612TIP3    H132251   1.485   2.829   4.254  0.7997  2.2645  0.0346
 3612TIP3    H232252   1.596   2.864   4.157 -0.0517 -0.6226 -2.0199
 3613TIP3   OH232253   4.117   0.260  16.421 -0.0539 -0.2476 -0.3014
 3613TIP3    H132254   4.179   0.305  16.362  1.1064  0.4794  1.4308
 3613TIP3    H232255   4.046   0.232  16.364  0.5864  1.2904 -1.9026
 3614TIP3   OH232256   2.883   4.636   4.956 -0.5350 -0.1987 -0.1914
 3614TIP3    H132257   2.882   4.628   4.861 -1.1066 -0.2821 -0.1790
 3614TIP3    H232258   2.795   4.613   4.983 -0.2232 -0.7066  0.4035
 3615TIP3   OH232259   1.966   5.779   2.263 -0.5982 -0.0414 -0.0410
 3615TIP3    H132260   1.871   5.768   2.262 -0.6786  0.6459 -0.4687
 3615TIP3    H232261   1.988   5.792   2.355 -1.0943  1.1698 -0.0812
 3616TIP3   OH232262   3.362   5.473  12.854  0.0297  0.3205 -0.2728
 3616TIP3    H132263   3.353   5.377  12.860 -0.3290  0.4116  0.7835
 3616TIP3    H232264   3.375   5.501  12.944  2.4557  1.0652 -0.8389
 3617TIP3   OH232265   0.686   0.830   0.522 -0.0095  0.3502  0.1849
 3617TIP3    H132266   0.740   0.790   0.455  0.4025 -1.0914  1.3502
 3617TIP3    H232267   0.720   0.919   0.531  0.5817  0.2280 -0.7949
 3618TIP3   OH232268   5.016   1.044   3.479  0.7718 -0.2444 -0.4160
 3618TIP3    H132269   5.039   0.975   3.541  2.1968 -0.6797 -1.4158
 3618TIP3    H232270   5.081   1.037   3.409  2.1968  3.3207  0.4150
 3619TIP3   OH232271   1.229   1.761  16.225  0.0687 -0.3596 -0.3474
 3619TIP3    H132272   1.257   1.696  16.161 -2.2558 -1.2792 -0.5032
 3619TIP3    H232273   1.231   1.844  16.178  0.0710 -0.7796 -1.0924
 3620TIP3   OH232274   2.397   2.838  14.981  0.3530 -0.7133  0.5585
 3620TIP3    H132275   2.322   2.809  14.929  1.5923 -1.2339 -0.9910
 3620TIP3    H232276   2.369   2.828  15.072 -1.0513 -1.9625  0.0074
 3621TIP3   OH232277   6.451   0.545  16.031  0.3102  0.0686  0.0417
 3621TIP3    H132278   6.485   0.527  15.944  1.7805 -0.4378  0.7139
 3621TIP3    H232279   6.515   0.506  16.091 -0.6198  0.5114  1.3497
 3622TIP3   OH232280   3.729   4.304   1.901  0.2687 -0.5931  0.1613
 3622TIP3    H132281   3.704   4.386   1.858 -2.2410 -1.4323 -0.0549
 3622TIP3    H232282   3.818   4.287   1.868  0.1317  1.0901 -1.2066
 3623TIP3   OH232283   0.023   6.334  12.658  0.4692 -0.1445  0.3813
 3623TIP3    H132284  -0.002   6.318  12.749  0.9819 -1.8042  0.2637
 3623TIP3    H232285   0.113   6.365  12.663  1.2370 -2.2724  0.3521
 3624TIP3   OH232286   0.903   2.995  11.360 -0.0342  0.1615  0.3085
 3624TIP3    H132287   0.827   3.013  11.415  0.3333 -2.4133  1.7696
 3624TIP3    H232288   0.870   2.935  11.293  0.3772  0.1304  0.1316
 3625TIP3   OH232289   2.112   2.439   0.819 -0.4483  0.5191 -0.3218
 3625TIP3    H132290   2.122   2.532   0.799 -1.6462  1.1386  1.7499
 3625TIP3    H232291   2.094   2.398   0.735  0.2576  2.1293 -1.2864
 3626TIP3   OH232292   2.630   5.335  11.404  0.4182 -0.6314 -0.0673
 3626TIP3    H132293   2.535   5.323  11.411  0.2920  0.6737  0.4749
 3626TIP3    H232294   2.661   5.253  11.366 -0.9048 -1.1438 -0.0735
 3627TIP3   OH232295   4.012   2.344  15.790 -0.3002  0.3888  0.2180
 3627TIP3    H132296   4.080   2.278  15.802 -0.9924 -0.4925 -0.6921
 3627TIP3    H232297   3.990   2.372  15.879  0.3273 -0.2480  0.5785
 3628TIP3   OH232298   4.030   1.629  11.513  0.1241 -0.2556 -0.3224
 3628TIP3    H132299   4.004   1.698  11.451 -3.1514  0.1337  1.3405
 3628TIP3    H232300   3.991   1.549  11.478 -1.2013 -0.1446  0.8177
 3629TIP3   OH232301   4.196   6.071   2.089  0.1276 -0.1055 -0.4702
 3629TIP3    H132302   4.206   6.121   2.169 -0.4379 -2.3951  1.0936
 3629TIP3    H232303   4.285   6.056   2.058  0.3025  1.7089 -0.8932
 3630TIP3   OH232304   4.540   4.900   4.949  0.8015 -0.0422 -0.6703
 3630TIP3    H132305   4.458   4.917   4.997  0.9489  0.3599 -0.5569
 3630TIP3    H232306   4.516   4.908   4.857  0.3240 -1.6707 -0.7085
 3631TIP3   OH232307   0.792   6.431  13.401  0.1513 -0.1014  0.1359
 3631TIP3    H132308   0.886   6.446  13.410  0.4816 -1.9644  0.0594
 3631TIP3    H232309   0.784   6.381  13.319 -0.7909 -0.8098  0.6496
 3632TIP3   OH232310   5.552   4.332   1.274  0.3997  0.2253 -0.4092
 3632TIP3    H132311   5.607   4.380   1.336  0.7544  0.7542 -1.1314
 3632TIP3    H232312   5.493   4.398   1.238  1.4611  0.2892 -2.0381
 3633TIP3   OH232313   6.552   6.342   2.375 -0.6662  0.6342 -0.0189
 3633TIP3    H132314   6.537   6.417   2.318  1.5669  2.0409  1.1783
 3633TIP3    H232315   6.560   6.268   2.315  2.9282  2.2726 -1.6967
 3634TIP3   OH232316   4.948   5.458  11.708  0.1408  0.2161 -0.1117
 3634TIP3    H132317   5.005   5.494  11.776 -0.8995 -0.8593  1.3763
 3634TIP3    H232318   4.916   5.534  11.659  1.2395  0.9699  0.3342
 3635TIP3   OH232319   3.539   5.004   1.761  0.2570  0.9882  0.7032
 3635TIP3    H132320   3.617   4.996   1.817  1.7705  1.4702 -1.2557
 3635TIP3    H232321   3.567   4.969   1.677 -1.3103  2.2033 -0.3531
 3636TIP3   OH232322   2.218   0.109  13.533  0.1488 -0.2191  0.4140
 3636TIP3    H132323   2.189   0.087  13.445  0.4050 -0.4554  0.3886
 3636TIP3    H232324   2.213   0.026  13.581  0.3783 -0.1713  0.5205
 3637TIP3   OH232325   5.214   2.091  10.957  0.4758 -0.3871  0.3414
 3637TIP3    H132326   5.185   2.077  10.866  0.4957 -2.6346  0.6585
 3637TIP3    H232327   5.157   2.161  10.989  1.0932  1.1038 -1.6937
 3638TIP3   OH232328   4.723   2.709  13.492  0.4933 -0.1628 -0.1787
 3638TIP3    H132329   4.817   2.730  13.491  0.7351 -1.2439 -0.5632
 3638TIP3    H232330   4.713   2.640  13.427 -0.7144  0.5147 -0.7147
 3639TIP3   OH232331   4.168   4.334  14.876  0.3093 -0.0523 -0.3888
 3639TIP3    H132332   4.177   4.338  14.780 -1.4111  2.1110 -0.5027
 3639TIP3    H232333   4.080   4.298  14.890  0.3285  0.1876  0.3596
 3640TIP3   OH232334   4.256   6.677   5.826  0.3511  0.3923  0.2504
 3640TIP3    H132335   4.273   6.670   5.920  0.5688  1.0266  0.2607
 3640TIP3    H232336   4.322   6.739   5.794 -1.6746  2.6038  0.2375
 3641TIP3   OH232337   6.040   4.576   5.010 -0.5735  0.2184  0.1967
 3641TIP3    H132338   6.103   4.527   4.958  0.8069  1.5872  0.5252
 3641TIP3    H232339   6.094   4.633   5.066 -2.1074  2.6590 -0.7216
 3642TIP3   OH232340   4.818   0.359  15.962 -0.3428  0.1231 -0.5731
 3642TIP3    H132341   4.823   0.444  16.007  0.3014  0.8411 -1.9770
 3642TIP3    H232342   4.804   0.381  15.870 -1.3169 -1.3258 -0.7897
 3643TIP3   OH232343   1.416   1.489   4.226  0.0902  0.2493  0.7612
 3643TIP3    H132344   1.505   1.453   4.232 -0.0321  0.0089  1.1358
 3643TIP3    H232345   1.362   1.427   4.273 -0.3779  0.0741  0.0004
 3644TIP3   OH232346   1.968   3.918   3.275 -0.0681  0.3122  0.8147
 3644TIP3    H132347   2.011   3.982   3.218  1.9021 -2.4558 -0.9137
 3644TIP3    H232348   2.018   3.920   3.356 -0.2880  1.2600  0.9311
 3645TIP3   OH232349   5.831   1.639  15.597 -0.3579 -0.5734  0.2436
 3645TIP3    H132350   5.874   1.559  15.566  0.3001  0.1695 -0.7718
 3645TIP3    H232351   5.884   1.668  15.670  0.8362  0.2839 -0.9400
 3646TIP3   OH232352   5.677   6.482  15.505  0.4328  0.0729 -0.3085
 3646TIP3    H132353   5.721   6.554  15.550 -0.6446  0.3560  0.2931
 3646TIP3    H232354   5.624   6.439  15.572  3.2447 -3.1000  0.0471
 3647TIP3   OH232355   1.318   2.204  16.833  0.1809  0.0409  0.0421
 3647TIP3    H132356   1.311   2.299  16.823  0.1579  0.1197  0.8445
 3647TIP3    H232357   1.249   2.181  16.894 -0.0828 -0.5510 -0.4751
 3648TIP3   OH232358   5.171   5.359  10.957 -0.2875  0.2194  0.6158
 3648TIP3    H132359   5.262   5.333  10.940 -0.1459  0.2847  1.2531
 3648TIP3    H232360   5.121   5.278  10.948 -0.0641  0.0370  1.0032
 3649TIP3   OH232361   3.918   6.532  13.893  0.3687 -0.7282 -0.3082
 3649TIP3    H132362   3.951   6.513  13.981 -3.3370 -1.2734  1.0426
 3649TIP3    H232363   3.899   6.626  13.894  0.3946 -0.7178 -0.5906
 3650TIP3   OH232364   6.579   3.781   1.325 -0.0289 -0.1814  0.7203
 3650TIP3    H132365   6.552   3.805   1.236  1.0743  1.3124  0.7624
 3650TIP3    H232366   6.600   3.688   1.320 -1.4426 -0.4689 -0.2086
 3651TIP3   OH232367   3.363   3.977   6.170  0.1484 -0.4315  0.2411
 3651TIP3    H132368   3.401   3.971   6.083  1.2259  0.0482  0.6631
 3651TIP3    H232369   3.337   4.069   6.178 -2.3100 -1.0404 -0.5297
 3652TIP3   OH232370   3.440   0.554  14.606 -0.5345 -0.2568  0.6385
 3652TIP3    H132371   3.454   0.642  14.571  0.8901 -0.0939  1.5257
 3652TIP3    H232372   3.526   0.528  14.640 -0.3433 -2.9663 -1.7353
 3653TIP3   OH232373   5.557   0.866   0.005 -0.3311  0.4235  0.0730
 3653TIP3    H132374   5.638   0.900  -0.032 -0.9973  1.4812 -0.4517
 3653TIP3    H232375   5.572   0.773   0.015  1.8576  0.9936  2.3766
 3654TIP3   OH232376   5.231   2.289  11.693 -0.1855 -0.3692 -0.0136
 3654TIP3    H132377   5.153   2.289  11.637 -0.8470 -0.1737  0.8889
 3654TIP3    H232378   5.238   2.380  11.722  0.6781 -0.2804 -0.4882
 3655TIP3   OH232379   6.397   2.865  11.935 -0.5064  0.3223  0.4681
 3655TIP3    H132380   6.311   2.825  11.927 -0.4427 -0.0004  1.3234
 3655TIP3    H232381   6.408   2.915  11.855 -1.6090  0.5869  0.4789
 3656TIP3   OH232382   3.930   6.519  12.821  0.8161  0.4141 -0.3725
 3656TIP3    H132383   3.994   6.456  12.856  0.3958 -0.3310 -0.9231
 3656TIP3    H232384   3.949   6.523  12.727 -0.0180  0.0917 -0.5615
 3657TIP3   OH232385   1.700   2.223  16.607 -0.1230  0.7421 -0.8963
 3657TIP3    H132386   1.784   2.192  16.642 -0.2948 -0.4814 -1.5320
 3657TIP3    H232387   1.723   2.298  16.552  0.2836  1.8793  0.7997
 3658TIP3   OH232388   2.574   3.694  13.380 -0.0235 -0.5851 -0.0913
 3658TIP3    H132389   2.661   3.698  13.420 -0.2478 -0.3834  0.3829
 3658TIP3    H232390   2.521   3.643  13.442 -0.2904 -0.5439 -0.2840
 3659TIP3   OH232391   5.627   1.940   3.033 -0.2190  0.2704  0.1131
 3659TIP3    H132392   5.566   2.014   3.026  0.3223  0.6278 -0.8088
 3659TIP3    H232393   5.709   1.979   3.063 -0.7139 -0.3556  2.3746
 3660TIP3   OH232394   1.159   1.820  15.109 -0.0896  0.4697  0.0441
 3660TIP3    H132395   1.133   1.728  15.122 -0.2317  0.5137  0.0703
 3660TIP3    H232396   1.091   1.870  15.154  0.2012  0.5750  0.3721
 3661TIP3   OH232397   1.552   1.898  13.219 -0.5683 -0.4143  0.0962
 3661TIP3    H132398   1.498   1.887  13.140  1.0265  0.5336 -1.1797
 3661TIP3    H232399   1.616   1.827  13.214 -1.2933 -1.1585  1.2630
 3662TIP3   OH232400   0.107   1.595  15.527 -0.0479 -0.1635  0.0290
 3662TIP3    H132401   0.030   1.647  15.552 -0.9425 -1.0716 -0.7594
 3662TIP3    H232402   0.161   1.592  15.606 -0.1494  1.6572  0.1856
 3663TIP3   OH232403   6.712   0.161  12.019 -0.4858  0.1613 -0.1435
 3663TIP3    H132404   6.737   0.240  12.067  0.8214 -0.5724  0.4036
 3663TIP3    H232405   6.629   0.135  12.057  0.6354 -0.5267  1.8802
 3664TIP3   OH232406   4.306   5.830   4.690  0.1212  0.0722 -0.3843
 3664TIP3    H132407   4.356   5.907   4.715  1.0435 -0.3097 -1.0338
 3664TIP3    H232408   4.318   5.768   4.762 -1.3093  0.8325  0.5350
 3665TIP3   OH232409   4.066   4.951   1.723  0.5124  0.0560 -0.1291
 3665TIP3    H132410   4.068   5.042   1.754  0.3923  0.5242 -1.4567
 3665TIP3    H232411   4.058   4.958   1.628  1.3673 -1.3534 -0.3179
 3666TIP3   OH232412   3.179   5.005   4.082 -0.5116 -0.2410  0.0346
 3666TIP3    H132413   3.264   4.990   4.042 -1.0093 -0.1497 -1.0923
 3666TIP3    H232414   3.166   5.100   4.078 -0.4442 -0.2015  0.6742
 3667TIP3   OH232415   1.083   1.146  15.737  0.0739 -0.2362 -0.3200
 3667TIP3    H132416   1.086   1.051  15.746  1.7488 -0.0746  1.2705
 3667TIP3    H232417   1.174   1.173  15.739 -0.4454  1.5812  1.7891
 3668TIP3   OH232418   1.035   0.291  15.142  0.2105  0.2762  0.4206
 3668TIP3    H132419   1.108   0.327  15.092  1.6116 -0.2614  2.0634
 3668TIP3    H232420   1.065   0.205  15.172 -0.8212  0.3349  1.6929
 3669TIP3   OH232421   6.307   6.558   0.659  0.0482  0.6773 -0.0520
 3669TIP3    H132422   6.310   6.651   0.679  1.8779  0.6589 -0.0908
 3669TIP3    H232423   6.320   6.553   0.564  0.5497  0.3779  0.0271
 3670TIP3   OH232424   5.743   6.219   3.893  0.1723  0.3553  0.1757
 3670TIP3    H132425   5.798   6.238   3.817 -0.1501 -0.9241 -0.3878
 3670TIP3    H232426   5.667   6.173   3.857  0.3303 -0.8457  1.3372
 3671TIP3   OH232427   4.091   0.669  16.998 -0.2441 -0.5667 -0.3694
 3671TIP3    H132428   4.072   0.626  16.914  1.2723 -1.2687 -0.3530
 3671TIP3    H232429   4.176   0.710  16.985 -0.2289 -0.2595  0.6899
 3672TIP3   OH232430   0.605   1.542  12.101  0.1702  0.3302 -0.0813
 3672TIP3    H132431   0.666   1.468  12.102 -0.2555 -0.0298  0.5953
 3672TIP3    H232432   0.518   1.501  12.094 -0.1901  0.6510  2.0937
 3673TIP3   OH232433   3.653   6.739  16.790 -0.0427  0.2118 -0.2644
 3673TIP3    H132434   3.596   6.791  16.733  0.8700  1.3802 -0.1308
 3673TIP3    H232435   3.692   6.675  16.732 -2.4837 -1.4775 -0.1209
 3674TIP3   OH232436   1.428   2.914  15.642  0.1670 -0.6704  0.2982
 3674TIP3    H132437   1.518   2.934  15.667  0.1041 -0.0523  0.0494
 3674TIP3    H232438   1.376   2.983  15.684 -0.2265 -1.2173  0.7236
 3675TIP3   OH232439   1.717   4.683  11.530 -0.4369 -0.1970 -0.4992
 3675TIP3    H132440   1.786   4.618  11.518  0.3048  0.6192 -0.7229
 3675TIP3    H232441   1.715   4.731  11.447  0.5037  1.4678  0.4194
 3676TIP3   OH232442   1.853   6.355  13.479 -0.1963 -0.2193  0.1373
 3676TIP3    H132443   1.902   6.274  13.468  0.5241  0.4775 -1.9678
 3676TIP3    H232444   1.918   6.425  13.469 -1.0354  0.6453  0.5950
 3677TIP3   OH232445   1.749   0.465  13.369 -0.0048  0.1731  0.3523
 3677TIP3    H132446   1.757   0.370  13.380 -0.9555  0.2271  1.5969
 3677TIP3    H232447   1.751   0.478  13.274 -0.9640 -1.1918  0.1319
 3678TIP3   OH232448   4.257   5.963   0.715 -0.0097  0.1963 -0.4968
 3678TIP3    H132449   4.311   5.913   0.654  0.1081  1.3292 -1.3511
 3678TIP3    H232450   4.318   5.991   0.783  0.2050  0.3445 -0.7497
 3679TIP3   OH232451   6.745   2.035   5.707  0.3824  0.6813  0.4515
 3679TIP3    H132452   6.804   1.985   5.651  0.2505 -0.2129  1.0940
 3679TIP3    H232453   6.797   2.111   5.734  0.9477  0.3498  0.3152
 3680TIP3   OH232454   5.229   1.811  17.233 -0.9449 -0.2677  0.1741
 3680TIP3    H132455   5.174   1.862  17.292 -1.0723  0.7484 -0.8068
 3680TIP3    H232456   5.184   1.815  17.149  1.0182  1.2585 -0.8558
 3681TIP3   OH232457   3.743   2.379  12.276  0.1911 -0.2941  0.1181
 3681TIP3    H132458   3.678   2.443  12.249 -0.8737 -0.5590  1.9753
 3681TIP3    H232459   3.720   2.358  12.367  2.8775 -0.3797  0.8108
 3682TIP3   OH232460   4.950   4.195  12.985 -0.6751  0.5784 -0.7430
 3682TIP3    H132461   4.948   4.288  13.004  0.3496  0.2126  1.3381
 3682TIP3    H232462   4.865   4.162  13.013 -0.5714  0.6866 -0.3003
 3683TIP3   OH232463   5.911   0.486  15.127 -0.1681  0.0138 -0.1870
 3683TIP3    H132464   5.821   0.468  15.155  0.5068 -0.7488  1.4977
 3683TIP3    H232465   5.921   0.580  15.137 -0.3533 -0.0798  0.9158
 3684TIP3   OH232466   6.454   3.354   3.249  0.0623  0.4308  0.4762
 3684TIP3    H132467   6.514   3.411   3.297  0.6415  0.0831  0.1821
 3684TIP3    H232468   6.367   3.381   3.277  0.3748  0.6029  1.3027
 3685TIP3   OH232469   5.382   5.290  12.938  0.0655  0.1991 -0.1522
 3685TIP3    H132470   5.404   5.383  12.935 -2.5687  0.8747  0.0238
 3685TIP3    H232471   5.312   5.279  12.874 -1.9808 -0.9415  2.1646
 3686TIP3   OH232472   1.123   2.728  17.233 -0.5018 -0.0872 -0.7695
 3686TIP3    H132473   1.136   2.794  17.166 -0.7183 -0.8893 -1.6108
 3686TIP3    H232474   1.210   2.689  17.246 -0.3037  0.5997 -0.0227
 3687TIP3   OH232475   4.326   6.658  12.422 -0.3027 -0.4765  0.1543
 3687TIP3    H132476   4.311   6.668  12.517 -0.1963  2.0165 -0.0522
 3687TIP3    H232477   4.385   6.730  12.400 -1.8803  0.1458 -2.1507
 3688TIP3   OH232478   6.073   4.369  16.156 -0.5443  0.0235  0.1879
 3688TIP3    H132479   6.042   4.457  16.134 -0.6073  0.0727  0.4675
 3688TIP3    H232480   5.992   4.318  16.169 -0.5082  0.0841  0.6516
 3689TIP3   OH232481   2.603   2.592  14.265 -0.4767  0.2089 -0.2964
 3689TIP3    H132482   2.517   2.571  14.300 -0.3156  1.0354  0.6312
 3689TIP3    H232483   2.616   2.530  14.193 -2.0360  0.3797 -0.7451
 3690TIP3   OH232484   2.447   4.216  13.153 -0.1702  0.5730 -0.5190
 3690TIP3    H132485   2.508   4.185  13.220  0.8942  2.2750 -0.6917
 3690TIP3    H232486   2.373   4.155  13.159  0.5274 -0.1396  1.2457
 3691TIP3   OH232487   6.324   1.327  13.275 -0.2819  0.6459 -0.3152
 3691TIP3    H132488   6.237   1.364  13.288 -0.6131  0.3760 -1.6780
 3691TIP3    H232489   6.320   1.240  13.317 -0.7071  0.5792 -0.4931
 3692TIP3   OH232490   4.594   0.372  13.090  0.1777 -0.2675  0.1973
 3692TIP3    H132491   4.536   0.418  13.152  0.1882  0.9460 -0.6889
 3692TIP3    H232492   4.595   0.281  13.122  0.4710  0.4166  2.1984
 3693TIP3   OH232493   6.201   2.007   0.419 -0.1421  0.4378  0.2763
 3693TIP3    H132494   6.225   1.931   0.367 -0.5825  1.0630 -0.8845
 3693TIP3    H232495   6.123   1.979   0.468 -0.4715  0.2235 -0.3589
 3694TIP3   OH232496   3.716   2.325  16.276 -0.4023 -0.1438  0.2849
 3694TIP3    H132497   3.749   2.362  16.194 -1.7784  2.1138  0.7161
 3694TIP3    H232498   3.644   2.268  16.248 -0.5791  0.2725 -0.1225
 3695TIP3   OH232499   0.464   5.286   0.447 -0.6985 -0.7779 -0.1065
 3695TIP3    H132500   0.553   5.256   0.464  0.0681  0.1881 -2.1897
 3695TIP3    H232501   0.433   5.230   0.376 -1.3007 -0.2912 -0.2290
 3696TIP3   OH232502   3.838   2.713   1.959  0.2944  0.0632 -0.4246
 3696TIP3    H132503   3.814   2.661   1.882  0.5794  0.6132 -0.8895
 3696TIP3    H232504   3.765   2.774   1.970 -0.0247 -0.4082  0.1017
 3697TIP3   OH232505   4.413   0.807  13.451  0.0492  0.2669  0.0555
 3697TIP3    H132506   4.462   0.728  13.475  0.3898  0.3945 -0.2178
 3697TIP3    H232507   4.469   0.852  13.387 -1.3836 -0.6604 -1.8944
 3698TIP3   OH232508   5.513   5.341  10.230 -0.5291  0.7860 -0.3156
 3698TIP3    H132509   5.430   5.383  10.252 -0.3929  0.3753  1.0216
 3698TIP3    H232510   5.577   5.412  10.229 -0.8026  1.0302 -0.8746
 3699TIP3   OH232511   6.201   4.315   5.240  0.1551 -0.0831 -0.0030
 3699TIP3    H132512   6.288   4.328   5.276  0.7066  0.0174 -1.3628
 3699TIP3    H232513   6.147   4.380   5.285  0.4432 -1.1703  1.9715
 3700TIP3   OH232514   5.781   1.975  15.905  0.2101 -0.2766  0.8169
 3700TIP3    H132515   5.713   1.949  15.843 -0.3679 -0.1572  1.3932
 3700TIP3    H232516   5.852   2.008  15.851 -0.4475  0.1858  0.2312
 3701TIP3   OH232517   3.613   5.477   4.756 -0.1432 -0.4770  0.0604
 3701TIP3    H132518   3.707   5.492   4.759 -0.3254  0.7067  0.3869
 3701TIP3    H232519   3.586   5.473   4.848 -0.4179 -0.7421 -0.0299
 3702TIP3   OH232520   5.683   5.777  11.115  0.0191 -0.2376 -0.5352
 3702TIP3    H132521   5.677   5.725  11.195 -0.3763 -1.0496 -1.0966
 3702TIP3    H232522   5.607   5.751  11.062 -1.4664  2.5100  0.1192
 3703TIP3   OH232523   4.706   2.221   1.694  0.5720  0.0402 -0.2779
 3703TIP3    H132524   4.754   2.203   1.613 -0.0167 -2.1229 -0.1782
 3703TIP3    H232525   4.621   2.177   1.681  0.6479 -0.7210  1.6950
 3704TIP3   OH232526   4.968   0.709   4.247 -0.4894 -0.3417  0.0773
 3704TIP3    H132527   4.957   0.629   4.299  2.4233 -0.3027  0.8195
 3704TIP3    H232528   4.987   0.677   4.159  1.9506 -0.5138  0.6447
 3705TIP3   OH232529   3.792   0.402   1.542  1.0590 -0.3182 -0.6446
 3705TIP3    H132530   3.831   0.476   1.589  0.7034 -1.0424  0.8344
 3705TIP3    H232531   3.866   0.344   1.523  1.1835 -0.1110 -0.7842
 3706TIP3   OH232532   0.074   2.288   5.641 -0.2509  0.0026 -0.2216
 3706TIP3    H132533   0.080   2.383   5.630  1.5361 -0.1978 -1.0466
 3706TIP3    H232534   0.104   2.252   5.558  3.0041 -1.3392  1.4283
 3707TIP3   OH232535   4.129   0.809   6.013 -0.0267 -0.0268  0.3657
 3707TIP3    H132536   4.108   0.801   5.920  0.4592  0.2159  0.2299
 3707TIP3    H232537   4.122   0.720   6.047  0.6603 -0.2709 -0.0986
 3708TIP3   OH232538   3.829   2.782  15.689 -0.4623 -0.1959 -0.3737
 3708TIP3    H132539   3.835   2.686  15.689 -1.4471 -0.2627 -1.1657
 3708TIP3    H232540   3.738   2.800  15.713  0.3651  0.6029  2.3528
 3709TIP3   OH232541   0.099   0.763   2.951  0.3263  0.2836  0.3923
 3709TIP3    H132542   0.142   0.678   2.964  0.4034  0.0276 -1.4295
 3709TIP3    H232543   0.006   0.743   2.946  0.4822  0.0054 -2.1351
 3710TIP3   OH232544   1.896   4.950  13.168  0.5421 -0.3109 -0.2573
 3710TIP3    H132545   1.869   5.041  13.175  1.7248  0.1528 -1.4813
 3710TIP3    H232546   1.870   4.911  13.251  0.6203  1.3053  0.5479
 3711TIP3   OH232547   0.655   6.352  12.940  0.3736 -0.1252 -0.2887
 3711TIP3    H132548   0.561   6.339  12.942  0.3639  0.0353  0.1361
 3711TIP3    H232549   0.689   6.270  12.903  0.0805 -0.2232 -0.3431
 3712TIP3   OH232550   1.100   2.423   1.866  0.1966  0.4119  0.1361
 3712TIP3    H132551   1.186   2.417   1.824  0.3801 -1.9841  0.7867
 3712TIP3    H232552   1.120   2.441   1.958  0.2218 -3.4541  0.9869
 3713TIP3   OH232553   1.405   1.880   2.850  0.2317 -0.0642 -0.6386
 3713TIP3    H132554   1.477   1.932   2.887  1.6458 -4.0921  2.6674
 3713TIP3    H232555   1.337   1.884   2.917 -0.3305 -0.9537 -1.1577
 3714TIP3   OH232556   6.264   1.897   2.337  0.3609  0.4105  0.4073
 3714TIP3    H132557   6.261   1.993   2.344 -1.0274  0.6402 -2.4848
 3714TIP3    H232558   6.306   1.882   2.252  0.0582 -1.5495  0.6016
 3715TIP3   OH232559   3.631   1.077  11.203 -0.4503  0.1917  0.1082
 3715TIP3    H132560   3.598   0.990  11.223 -1.8807  0.6139 -0.3380
 3715TIP3    H232561   3.560   1.120  11.156  0.8276  1.0626 -1.0978
 3716TIP3   OH232562   3.217   4.249   4.713  0.0581  0.9408  0.1647
 3716TIP3    H132563   3.174   4.173   4.674 -1.2155  1.7825 -0.1228
 3716TIP3    H232564   3.148   4.316   4.714  0.5912  1.4743  2.2206
 3717TIP3   OH232565   0.085   1.242  12.321  0.1596 -0.4000 -0.1396
 3717TIP3    H132566   0.137   1.211  12.395 -2.1933 -3.3212  0.3711
 3717TIP3    H232567   0.019   1.299  12.360 -0.3476 -1.0006 -0.1099
 3718TIP3   OH232568   4.336   2.784  14.089 -0.0264 -0.3897 -0.3841
 3718TIP3    H132569   4.260   2.812  14.038 -0.2837 -1.2966 -0.5064
 3718TIP3    H232570   4.349   2.692  14.064  0.1001 -0.7235  0.8539
 3719TIP3   OH232571   5.108   0.446  12.073 -0.2145  0.4337  0.5925
 3719TIP3    H132572   5.025   0.465  12.117 -0.5984  0.3898 -0.1096
 3719TIP3    H232573   5.086   0.439  11.981  0.1973 -1.7032  0.6273
 3720TIP3   OH232574   2.305   5.686  14.580 -0.6175  0.0955 -0.5748
 3720TIP3    H132575   2.358   5.639  14.645  1.0351  0.4110 -1.6514
 3720TIP3    H232576   2.217   5.688  14.617 -0.1652 -1.6379  0.6439
 3721TIP3   OH232577   6.048   0.547  10.654 -0.3162 -0.2356  0.4748
 3721TIP3    H132578   5.989   0.569  10.582  0.9096 -0.1191 -0.5124
 3721TIP3    H232579   6.006   0.473  10.698 -0.8266 -0.6389 -0.6747
 3722TIP3   OH232580   5.461   5.098   3.898 -0.0995  0.3665  0.8146
 3722TIP3    H132581   5.553   5.125   3.897  0.5691 -1.8245 -0.6039
 3722TIP3    H232582   5.423   5.143   3.822  0.4883 -0.9088 -0.2539
 3723TIP3   OH232583   4.240   4.194   1.993 -0.1745  0.1016  0.1629
 3723TIP3    H132584   4.321   4.218   1.948  0.1142 -0.5725  0.3185
 3723TIP3    H232585   4.185   4.273   1.988  0.8772  0.8942  0.9268
 3724TIP3   OH232586   4.440   4.990  15.156  0.2025 -0.0384 -0.4211
 3724TIP3    H132587   4.377   4.919  15.142  0.5443 -0.3927 -0.1621
 3724TIP3    H232588   4.400   5.044  15.224 -0.1526  0.1342 -0.7613
 3725TIP3   OH232589   6.023   6.079   4.115  0.5957  0.2088 -0.2136
 3725TIP3    H132590   6.060   6.070   4.202  0.3516  0.8974 -0.0355
 3725TIP3    H232591   5.929   6.094   4.130  1.0358  3.4249 -0.4663
 3726TIP3   OH232592   6.146   4.656  15.606 -0.1666  0.3901 -0.0251
 3726TIP3    H132593   6.197   4.630  15.683 -0.3154  2.1755  0.6844
 3726TIP3    H232594   6.191   4.733  15.572  0.9900 -1.4409 -2.8642
 3727TIP3   OH232595   3.697   2.384   4.087  0.5373 -0.2030  0.0812
 3727TIP3    H132596   3.696   2.332   4.167  0.6595 -0.6154 -0.1871
 3727TIP3    H232597   3.681   2.321   4.017  0.3026  0.1776 -0.2084
 3728TIP3   OH232598   1.360   0.783   3.380 -0.1623 -0.5067 -0.2934
 3728TIP3    H132599   1.323   0.719   3.320  2.9925  0.2193 -3.1818
 3728TIP3    H232600   1.402   0.848   3.323 -1.6698  3.1692  2.5854
 3729TIP3   OH232601   5.795   1.271  12.599  0.4879  0.2208 -0.0397
 3729TIP3    H132602   5.726   1.284  12.533 -0.5547  0.7696  1.1401
 3729TIP3    H232603   5.860   1.217  12.554  0.4478  1.6920 -1.9728
 3730TIP3   OH232604   2.521   4.420  15.518  0.2273  0.6967 -0.1040
 3730TIP3    H132605   2.477   4.382  15.442  1.5003  2.1107 -1.5810
 3730TIP3    H232606   2.495   4.364  15.591 -2.6053  0.4657 -1.2171
 3731TIP3   OH232607   0.068   4.987  13.358 -0.1871  0.1780 -0.0365
 3731TIP3    H132608   0.123   4.938  13.419 -1.9453  0.4511  1.8152
 3731TIP3    H232609   0.118   5.065  13.337  1.0165 -0.5817 -0.0183
 3732TIP3   OH232610   6.177   6.458   2.870  0.0334  0.2866  0.2466
 3732TIP3    H132611   6.251   6.397   2.861  0.0540  0.5426 -1.6396
 3732TIP3    H232612   6.102   6.408   2.838 -0.1837  0.7884 -0.0315
 3733TIP3   OH232613   6.649   2.842   0.280  0.2087 -0.7595  0.0544
 3733TIP3    H132614   6.580   2.885   0.330  0.1717 -0.6857 -0.0596
 3733TIP3    H232615   6.725   2.899   0.292  1.0360 -2.2497  2.4657
 3734TIP3   OH232616   6.444   6.786  15.355 -0.0710  0.3332 -0.1161
 3734TIP3    H132617   6.446   6.745  15.269 -0.7472  2.2643 -1.0839
 3734TIP3    H232618   6.355   6.773  15.386  0.1096 -0.1654  0.1959
 3735TIP3   OH232619   0.544   4.332   1.118  0.3960 -0.2749 -0.4493
 3735TIP3    H132620   0.599   4.401   1.156  1.5800 -2.0812  1.2040
 3735TIP3    H232621   0.512   4.282   1.193  0.4179 -2.1562 -1.6447
 3736TIP3   OH232622   4.765   3.446   1.304  0.6053 -0.5991  0.4187
 3736TIP3    H132623   4.751   3.524   1.359  0.6944  0.0072 -0.4110
 3736TIP3    H232624   4.836   3.399   1.347 -1.8051 -2.0747  2.9232
 3737TIP3   OH232625   3.325   4.018   6.553  0.0716  0.2409 -0.0408
 3737TIP3    H132626   3.414   3.990   6.534 -0.0568 -0.1591 -0.0710
 3737TIP3    H232627   3.279   3.937   6.578 -0.5423  0.2705 -1.0330
 3738TIP3   OH232628   5.347   5.586  15.930 -0.3822  0.0003  0.2490
 3738TIP3    H132629   5.278   5.607  15.868  0.0018  0.0219 -0.1686
 3738TIP3    H232630   5.339   5.492  15.944  0.3725 -0.2255 -0.8390
 3739TIP3   OH232631   4.248   2.943  13.191 -0.1522  0.0284 -0.0905
 3739TIP3    H132632   4.205   3.010  13.244  3.3641 -0.5270  3.7581
 3739TIP3    H232633   4.185   2.871  13.187 -1.9511  1.5550  0.1023
 3740TIP3   OH232634   4.954   3.655  11.395  0.0147  0.2237 -0.3627
 3740TIP3    H132635   4.997   3.650  11.309  0.5200 -0.9638 -0.0535
 3740TIP3    H232636   4.861   3.647  11.375  0.1638 -0.6218 -0.7654
 3741TIP3   OH232637   4.921   6.351  16.115 -0.0479 -0.1313 -0.6709
 3741TIP3    H132638   4.837   6.324  16.080 -0.7609 -0.3451  1.1549
 3741TIP3    H232639   4.911   6.445  16.133  0.0271 -0.2113 -0.2143
 3742TIP3   OH232640   5.128   2.739   4.458  0.3148  0.1846  0.7639
 3742TIP3    H132641   5.135   2.684   4.535  0.6964 -1.8009 -0.6486
 3742TIP3    H232642   5.144   2.680   4.384  1.4143  2.3066 -0.7658
 3743TIP3   OH232643   6.486   2.615  16.812 -0.1643  0.3940 -0.3320
 3743TIP3    H132644   6.499   2.699  16.856 -0.9275  0.3420  0.0034
 3743TIP3    H232645   6.537   2.622  16.731  1.2559  0.4833  0.5667
 3744TIP3   OH232646   0.118   1.277  17.127 -0.0891 -0.0342  0.1836
 3744TIP3    H132647   0.137   1.222  17.051 -0.0207  1.3981 -0.8620
 3744TIP3    H232648   0.190   1.340  17.130 -0.2324  0.0847  1.2723
 3745TIP3   OH232649   6.127   1.484  15.330 -0.2987  0.3332  0.3460
 3745TIP3    H132650   6.047   1.471  15.381 -0.1706 -1.7406  0.0336
 3745TIP3    H232651   6.098   1.534  15.253 -1.5874 -1.6487 -0.5011
 3746TIP3   OH232652   0.950   1.762  11.949 -0.2717 -0.4493 -0.3832
 3746TIP3    H132653   1.042   1.752  11.925 -0.3741  1.2043 -1.5619
 3746TIP3    H232654   0.903   1.754  11.866 -1.2392 -1.7743  0.2879
 3747TIP3   OH232655   3.859   1.350   1.797 -0.0992 -0.6648 -0.3799
 3747TIP3    H132656   3.837   1.389   1.713 -0.0406  1.5358  0.5962
 3747TIP3    H232657   3.954   1.340   1.795 -0.0429 -0.1419 -0.3796
 3748TIP3   OH232658   6.668   0.849  14.588 -0.0232 -0.4241 -0.2910
 3748TIP3    H132659   6.589   0.899  14.567 -1.2881 -2.7637 -1.3149
 3748TIP3    H232660   6.657   0.823  14.679  0.2949  0.5277  0.0227
 3749TIP3   OH232661   3.314   3.807  16.676 -0.1240  0.2561  0.6010
 3749TIP3    H132662   3.398   3.848  16.693  0.0046  1.2426 -2.0973
 3749TIP3    H232663   3.316   3.787  16.582 -2.5715 -0.3903  0.6532
 3750TIP3   OH232664   2.662   4.939  16.859 -0.3494 -0.3910 -0.1558
 3750TIP3    H132665   2.743   4.967  16.816 -0.8753  0.1874 -0.7753
 3750TIP3    H232666   2.632   4.863  16.809  0.6167 -1.5714  1.0044
 3751TIP3   OH232667   0.720   2.386  12.895 -0.0815  0.0381 -0.0682
 3751TIP3    H132668   0.637   2.343  12.877 -1.0051  1.2459  1.1525
 3751TIP3    H232669   0.754   2.342  12.973 -0.0699  0.2147  0.0268
 3752TIP3   OH232670   6.787   5.059   2.006 -0.0759 -0.6490 -0.3807
 3752TIP3    H132671   6.736   5.017   1.937  0.7526  0.0899 -1.4355
 3752TIP3    H232672   6.733   5.134   2.033 -0.8021 -1.4335  0.3918
 3753TIP3   OH232673   2.644   0.020  11.725  0.2674  0.0932 -0.9943
 3753TIP3    H132674   2.726   0.066  11.740  1.2471 -2.2543  1.5229
 3753TIP3    H232675   2.577   0.088  11.725  1.8870  1.7366  0.3467
 3754TIP3   OH232676   0.656   3.051   0.687  0.4323 -0.2956  0.2312
 3754TIP3    H132677   0.698   2.968   0.666 -1.6654 -0.7139 -2.5112
 3754TIP3    H232678   0.564   3.029   0.697  0.0862  1.4625  1.0073
 3755TIP3   OH232679   6.410   0.340   1.139 -0.4618 -0.7704  0.9980
 3755TIP3    H132680   6.468   0.394   1.083  0.9058 -1.8779  1.3162
 3755TIP3    H232681   6.404   0.257   1.093 -3.3686 -0.0706  0.0156
 3756TIP3   OH232682   5.039   3.693   2.552  0.2462  0.2493  0.3244
 3756TIP3    H132683   5.119   3.738   2.580 -0.5998  1.1577  1.3544
 3756TIP3    H232684   5.031   3.714   2.459  2.1667 -1.3655 -0.2522
 3757TIP3   OH232685   4.775   4.668  12.872 -0.0277  0.6332  0.6892
 3757TIP3    H132686   4.694   4.701  12.835 -1.3896 -1.1572  1.9763
 3757TIP3    H232687   4.788   4.720  12.952  0.4868  1.3789  0.1358
 3758TIP3   OH232688   6.252   0.293   2.450  0.0840 -0.3039  0.3733
 3758TIP3    H132689   6.161   0.265   2.461 -0.4474  0.2321 -2.1956
 3758TIP3    H232690   6.299   0.212   2.430 -0.2687 -0.2683 -0.6259
 3759TIP3   OH232691   2.340   3.015   1.946 -0.3299 -0.7003  0.4685
 3759TIP3    H132692   2.282   3.091   1.946 -1.4573 -1.5168 -1.7926
 3759TIP3    H232693   2.413   3.041   1.890  0.2460 -0.5774  1.2789
 3760TIP3   OH232694   2.319   5.930  10.703  0.4180 -0.2874  0.1289
 3760TIP3    H132695   2.353   5.952  10.617 -2.6194 -2.0531 -1.6044
 3760TIP3    H232696   2.303   5.836  10.700  0.5946 -0.4586  2.7587
 3761TIP3   OH232697   1.241   5.478  12.020 -0.2441  0.0121 -0.1356
 3761TIP3    H132698   1.218   5.472  12.112 -1.1193  0.1066 -0.3475
 3761TIP3    H232699   1.272   5.390  11.998 -1.3611 -0.3913 -0.1039
 3762TIP3   OH232700   2.282   0.858   1.226 -0.1001 -0.0670 -0.5409
 3762TIP3    H132701   2.371   0.824   1.234  0.2345  0.9705  0.2458
 3762TIP3    H232702   2.229   0.782   1.202  0.6855 -1.0770  0.8693
 3763TIP3   OH232703   4.666   2.166  15.055 -0.1036  0.2676 -0.6446
 3763TIP3    H132704   4.573   2.151  15.073  0.5753 -2.6903  0.6183
 3763TIP3    H232705   4.695   2.223  15.126 -0.7659  0.6728 -0.6880
 3764TIP3   OH232706   0.554   0.809  15.822 -0.1351 -0.1191 -0.1646
 3764TIP3    H132707   0.566   0.886  15.766 -0.4462  1.2182  1.5645
 3764TIP3    H232708   0.602   0.739  15.778  1.4937  1.4543 -0.9419
 3765TIP3   OH232709   1.828   6.148   4.101 -0.0239  0.1682 -0.3238
 3765TIP3    H132710   1.863   6.191   4.179  0.6113  0.6326 -0.8667
 3765TIP3    H232711   1.737   6.128   4.124 -0.4272  2.0921 -0.1833
 3766TIP3   OH232712   4.286   6.485  12.221  0.1994 -0.2789 -0.1579
 3766TIP3    H132713   4.317   6.518  12.137  0.0403  1.0192  0.2798
 3766TIP3    H232714   4.298   6.558  12.282 -1.0932 -0.6855  0.6253
 3767TIP3   OH232715   5.185   5.354  12.268  0.3157  0.1136 -0.1043
 3767TIP3    H132716   5.267   5.393  12.298  1.1632 -0.8038 -1.1586
 3767TIP3    H232717   5.175   5.275  12.321 -0.2039  0.5281  0.4285
 3768TIP3   OH232718   3.825   1.033  14.813  0.4595 -0.0392  0.4320
 3768TIP3    H132719   3.759   1.096  14.841 -0.7834 -0.7107 -0.9308
 3768TIP3    H232720   3.789   0.948  14.838  1.1996 -0.3526  0.4480
 3769TIP3   OH232721   6.070   5.813  11.796  0.2039 -0.1521  0.3377
 3769TIP3    H132722   6.158   5.787  11.771  0.5115  0.5990  0.6378
 3769TIP3    H232723   6.081   5.894  11.845 -0.4776 -0.9848  1.9382
 3770TIP3   OH232724   0.948   2.516  16.755 -0.4721  0.6962 -0.8107
 3770TIP3    H132725   1.004   2.593  16.742  0.0569  0.7914  1.7534
 3770TIP3    H232726   1.009   2.446  16.779 -1.4504  1.0715  3.1275
 3771TIP3   OH232727   0.535   2.490  11.913  0.1670 -0.1228  0.2527
 3771TIP3    H132728   0.624   2.515  11.892 -0.3562  1.0151 -0.6317
 3771TIP3    H232729   0.528   2.399  11.884  1.4427 -0.6665  1.5828
 3772TIP3   OH232730   2.126   3.503  11.899  0.2712  0.3822 -0.7348
 3772TIP3    H132731   2.165   3.459  11.824  0.2098 -0.8404 -0.0528
 3772TIP3    H232732   2.190   3.571  11.922  1.7117 -1.1418 -0.0792
 3773TIP3   OH232733   5.139   1.531  13.929 -0.1391  0.3471 -0.0820
 3773TIP3    H132734   5.155   1.478  13.851 -1.6410  0.1399 -0.2731
 3773TIP3    H232735   5.207   1.598  13.927  0.4021 -0.2173 -1.0584
 3774TIP3   OH232736   2.388   5.254  12.228  0.0498 -0.2626 -0.2390
 3774TIP3    H132737   2.370   5.340  12.191  0.3881 -0.0180  0.1603
 3774TIP3    H232738   2.324   5.196  12.187 -1.5338  0.5604  1.0595
 3775TIP3   OH232739   1.062   1.090   4.319  0.2923 -0.0870  0.4833
 3775TIP3    H132740   1.075   1.093   4.414 -0.7383 -0.4671  0.6420
 3775TIP3    H232741   0.968   1.076   4.308  0.4257 -0.1838 -0.5934
 3776TIP3   OH232742   0.738   5.122  16.706  0.1201  0.5043  0.0709
 3776TIP3    H132743   0.670   5.183  16.679 -1.2789 -0.6847  0.8197
 3776TIP3    H232744   0.795   5.173  16.763 -0.8813  1.1897  0.4676
 3777TIP3   OH232745   2.080   1.177   4.185 -0.4225  0.0807 -0.0347
 3777TIP3    H132746   2.079   1.207   4.276  0.3347 -0.7662  0.2708
 3777TIP3    H232747   2.118   1.249   4.136 -1.7276  0.9206  0.1753
 3778TIP3   OH232748   5.194   2.756   3.866  0.4041 -0.4026  0.4629
 3778TIP3    H132749   5.148   2.685   3.821 -0.2455 -0.9247  1.9107
 3778TIP3    H232750   5.280   2.760   3.824  0.3594 -1.8932  0.2050
 3779TIP3   OH232751   1.506   0.634  13.163 -0.6886 -0.3065 -0.0269
 3779TIP3    H132752   1.568   0.561  13.161 -1.3053 -0.8704  0.8918
 3779TIP3    H232753   1.527   0.686  13.085 -0.5686 -1.7409 -0.9780
 3780TIP3   OH232754   0.556   3.273   2.846  0.1089  0.1682  0.2727
 3780TIP3    H132755   0.490   3.219   2.889  0.9978  0.4503  2.0666
 3780TIP3    H232756   0.626   3.281   2.911  2.1188 -0.4953 -1.7189
 3781TIP3   OH232757   3.405   2.830   1.772  0.4940 -0.9393 -0.1648
 3781TIP3    H132758   3.347   2.852   1.845  1.0555  0.1650 -0.0469
 3781TIP3    H232759   3.389   2.898   1.707 -0.2822 -2.1346 -1.2358
 3782TIP3   OH232760   6.723   2.017  16.164  0.3317 -0.3864 -0.1559
 3782TIP3    H132761   6.670   1.941  16.142 -0.2758 -1.0240  3.3396
 3782TIP3    H232762   6.660   2.083  16.191  1.0972  0.2002  0.2100
 3783TIP3   OH232763   5.739   3.235   3.281 -0.1282  0.1038  0.1109
 3783TIP3    H132764   5.727   3.219   3.187  1.2005  0.6950 -0.1653
 3783TIP3    H232765   5.805   3.171   3.307 -1.4143 -0.9270  0.9320
 3784TIP3   OH232766   1.531   1.133   4.297  0.3028  0.0228  0.1942
 3784TIP3    H132767   1.498   1.049   4.330  0.6130 -0.2928 -0.2813
 3784TIP3    H232768   1.617   1.112   4.261 -0.0814  0.3279 -0.9170
 3785TIP3   OH232769   4.449   1.424   4.828  0.2729 -0.0356 -0.3796
 3785TIP3    H132770   4.498   1.416   4.746  0.6395  0.3124 -0.1971
 3785TIP3    H232771   4.384   1.492   4.811 -1.0595 -1.4539 -1.0606
 3786TIP3   OH232772   4.907   3.256   2.598 -0.4713  0.6112 -0.1989
 3786TIP3    H132773   4.978   3.216   2.649  1.4373  2.2188 -1.5237
 3786TIP3    H232774   4.844   3.185   2.586  0.4302 -0.5904  1.8442
 3787TIP3   OH232775   3.182   2.003   6.089  0.1572 -0.5120  0.2547
 3787TIP3    H132776   3.154   2.050   6.168 -1.3338  1.1485 -1.2160
 3787TIP3    H232777   3.166   2.065   6.018  4.5810 -0.6935 -1.0657
 3788TIP3   OH232778   3.801   5.829  16.453  0.2605  0.6589  0.1710
 3788TIP3    H132779   3.790   5.911  16.501 -0.3682  0.9148 -0.3957
 3788TIP3    H232780   3.829   5.765  16.519  0.0151  1.1499  0.7514
 3789TIP3   OH232781   3.088   4.035   5.655 -0.2490 -0.7154 -0.5172
 3789TIP3    H132782   3.092   4.046   5.750 -2.3838 -1.4731 -0.3179
 3789TIP3    H232783   3.175   4.060   5.625 -0.1618  1.5555  1.4412
 3790TIP3   OH232784   2.411   2.700  15.811  0.0203 -0.2577  0.0512
 3790TIP3    H132785   2.464   2.678  15.887 -1.9004 -1.6128  1.0662
 3790TIP3    H232786   2.430   2.631  15.747 -0.7707 -0.9540  0.5564
 3791TIP3   OH232787   6.139   5.278  15.852  0.4530 -0.2563  0.0644
 3791TIP3    H132788   6.086   5.298  15.775  2.0043 -0.0924 -0.9881
 3791TIP3    H232789   6.099   5.199  15.889 -0.2030 -0.4381 -1.0189
 3792TIP3   OH232790   6.739   1.814  15.868  0.5483 -0.2903 -0.9100
 3792TIP3    H132791   6.754   1.908  15.878 -2.5200  0.3071 -1.1868
 3792TIP3    H232792   6.805   1.772  15.923  1.8372  2.0369 -0.6412
 3793TIP3   OH232793   1.905   3.455   2.731  0.5992  0.4252 -0.2484
 3793TIP3    H132794   1.816   3.431   2.757  0.6274  0.8862  0.2853
 3793TIP3    H232795   1.938   3.507   2.804  1.2813  0.3195 -0.4781
 3794TIP3   OH232796   4.523   2.435   5.615 -0.4173 -0.9351  0.2133
 3794TIP3    H132797   4.464   2.483   5.556  0.0887 -1.5897 -0.8392
 3794TIP3    H232798   4.507   2.343   5.596  0.8763 -1.1232 -0.0293
 3795TIP3   OH232799   2.870   3.426   1.561  0.5800  0.2694 -0.9080
 3795TIP3    H132800   2.874   3.332   1.579  0.1073  0.2078 -1.1227
 3795TIP3    H232801   2.887   3.468   1.645  0.9972 -0.0066 -0.8515
 3796TIP3   OH232802   4.869   1.739   2.889 -0.0984  0.0104 -0.7649
 3796TIP3    H132803   4.915   1.658   2.869 -1.0430 -0.9218  0.7697
 3796TIP3    H232804   4.781   1.727   2.852 -0.7162 -0.2918  0.7633
 3797TIP3   OH232805   0.218   5.128   4.057 -0.7253  0.2497 -0.2662
 3797TIP3    H132806   0.262   5.213   4.067 -1.5407  0.6815 -0.2504
 3797TIP3    H232807   0.173   5.135   3.973  0.1821 -0.6232 -0.8208
 3798TIP3   OH232808   5.786   4.520  11.536 -0.2605  0.2828 -0.9514
 3798TIP3    H132809   5.852   4.457  11.508  0.8731 -0.2462  2.5810
 3798TIP3    H232810   5.837   4.599  11.557 -0.4272 -0.5659  3.1397
 3799TIP3   OH232811   5.427   2.076   4.243  0.2344 -0.2975  0.2692
 3799TIP3    H132812   5.407   2.115   4.158  1.2133 -1.9983 -0.7686
 3799TIP3    H232813   5.521   2.059   4.240 -0.0658 -2.1633  0.9233
 3800TIP3   OH232814   0.152   5.731  14.397 -0.0154 -0.1872  0.3018
 3800TIP3    H132815   0.138   5.782  14.317  3.2295  1.7798  0.8627
 3800TIP3    H232816   0.232   5.681  14.380  0.4000 -0.1692  2.0923
 3801TIP3   OH232817   6.137   5.511   3.324 -0.3436  0.2691 -0.0732
 3801TIP3    H132818   6.126   5.474   3.412 -0.5088  0.8169  0.1377
 3801TIP3    H232819   6.207   5.459   3.285  2.1595  2.2428  1.6263
 3802TIP3   OH232820   2.247   4.962  11.094  0.0362 -0.0262 -0.1944
 3802TIP3    H132821   2.177   4.924  11.040  0.2986  1.2920 -1.5001
 3802TIP3    H232822   2.203   5.029  11.147  0.5485  2.0767 -2.3231
 3803TIP3   OH232823   6.447   5.688   2.755  0.0882  0.1327  0.0153
 3803TIP3    H132824   6.487   5.671   2.840 -0.3737 -1.4374 -0.0712
 3803TIP3    H232825   6.402   5.772   2.766  0.4375  0.1745  1.1677
 3804TIP3   OH232826   5.387   0.022  12.052  0.1149 -0.1513  0.3441
 3804TIP3    H132827   5.336   0.036  12.132 -1.8745 -0.8113 -0.7892
 3804TIP3    H232828   5.413  -0.070  12.056 -2.1598 -0.8904 -0.9712
 3805TIP3   OH232829   2.221   1.797  15.415  0.8544  0.8457 -0.3673
 3805TIP3    H132830   2.171   1.810  15.335 -0.2058 -1.0548 -0.0350
 3805TIP3    H232831   2.160   1.752  15.474  2.4006  0.0920  0.6728
 3806TIP3   OH232832   3.436   0.556  12.515  0.1379 -0.1918  0.5595
 3806TIP3    H132833   3.432   0.648  12.488 -1.0858 -0.3422  0.1945
 3806TIP3    H232834   3.525   0.545  12.549  1.1839  0.4498 -1.8299
 3807TIP3   OH232835   6.451   1.470   1.011  0.5623 -0.5603  0.1236
 3807TIP3    H132836   6.462   1.495   0.919  1.7551 -1.4041  0.0218
 3807TIP3    H232837   6.473   1.549   1.061 -0.7240  0.0896 -0.3335
 3808TIP3   OH232838   5.525   6.186  15.698  0.0166  0.6118  0.3523
 3808TIP3    H132839   5.441   6.176  15.654  0.5896 -0.8094 -0.4642
 3808TIP3    H232840   5.589   6.181  15.627  0.8415  0.6040  1.0894
 3809TIP3   OH232841   5.004   0.711   5.428 -0.5109  0.3944  0.2549
 3809TIP3    H132842   5.074   0.722   5.364 -0.2298  1.2192  0.6968
 3809TIP3    H232843   5.021   0.626   5.469 -1.8544 -1.0980 -2.1696
 3810TIP3   OH232844   1.980   1.087   2.632  0.5367  0.0896 -0.1592
 3810TIP3    H132845   2.052   1.147   2.653  1.7029 -1.6511  0.9949
 3810TIP3    H232846   1.993   1.064   2.540  0.7106  0.7586 -0.3029
 3811TIP3   OH232847   3.173   0.769   1.586  0.0495 -0.3502 -0.2597
 3811TIP3    H132848   3.180   0.835   1.517 -0.5023  0.3037  0.3064
 3811TIP3    H232849   3.248   0.711   1.571  1.0204  0.8882 -0.2424
 3812TIP3   OH232850   2.599   0.021  11.424 -0.4095 -0.1783 -0.5190
 3812TIP3    H132851   2.632   0.053  11.508 -1.2740 -0.2226 -0.1565
 3812TIP3    H232852   2.669   0.040  11.361  0.3588 -0.4138  0.2660
 3813TIP3   OH232853   5.009   3.812  15.170  0.4130 -0.5414 -0.0630
 3813TIP3    H132854   5.072   3.863  15.222  1.2170  0.6957 -2.1741
 3813TIP3    H232855   4.974   3.748  15.231  3.9272 -1.4441  1.1231
 3814TIP3   OH232856   0.803   6.657  16.824 -0.2670  0.1638  0.4744
 3814TIP3    H132857   0.873   6.592  16.818 -2.5881 -2.2464 -1.5738
 3814TIP3    H232858   0.723   6.608  16.807 -2.1001  3.5892 -1.2699
 3815TIP3   OH232859   5.795   0.712   1.737  0.6222  0.5166 -0.0546
 3815TIP3    H132860   5.854   0.716   1.811 -2.0175  0.4583  2.1449
 3815TIP3    H232861   5.806   0.796   1.692  0.7371  1.3899  1.6023
 3816TIP3   OH232862   1.709   5.382  12.076  0.7776 -0.2536  0.3873
 3816TIP3    H132863   1.710   5.448  12.145  2.2779 -1.5401  1.6533
 3816TIP3    H232864   1.772   5.316  12.106 -0.2130 -1.9309 -1.1370
 3817TIP3   OH232865   1.623   5.929   1.380 -0.3963 -0.1916  0.2134
 3817TIP3    H132866   1.556   5.959   1.318  0.8527  1.2376 -0.4635
 3817TIP3    H232867   1.692   5.994   1.374  0.9483 -1.5088  1.1041
 3818TIP3   OH232868   6.089   3.581  12.334  0.1264  1.0075 -0.3613
 3818TIP3    H132869   6.050   3.540  12.258  0.6887  1.0350 -0.6684
 3818TIP3    H232870   6.048   3.668  12.338 -1.0062  0.4541  0.2466
 3819TIP3   OH232871   3.620   4.438  12.694 -0.4960  0.3024 -0.0120
 3819TIP3    H132872   3.700   4.388  12.712 -1.1390 -1.1898 -1.1237
 3819TIP3    H232873   3.646   4.500  12.626 -0.7316 -1.5596 -1.8666
 3820TIP3   OH232874   3.496   3.947   5.937  0.1208  0.1601  0.2857
 3820TIP3    H132875   3.558   4.015   5.911 -0.3577 -0.2183 -1.9792
 3820TIP3    H232876   3.551   3.872   5.963  0.6267  0.3725 -0.1610
 3821TIP3   OH232877   1.516   1.484   5.007  0.7470  0.2234 -0.1371
 3821TIP3    H132878   1.494   1.421   4.939  0.6673 -0.1485  0.2294
 3821TIP3    H232879   1.604   1.515   4.984  0.7421  0.0596 -0.3796
 3822TIP3   OH232880   6.664   5.748   4.461 -0.1427 -0.0106 -0.3223
 3822TIP3    H132881   6.630   5.689   4.395 -0.8608  0.5473 -0.4551
 3822TIP3    H232882   6.591   5.764   4.520  0.2181  0.2590  0.0598
 3823TIP3   OH232883   6.686   2.908   4.361 -0.0581 -0.9842 -0.1762
 3823TIP3    H132884   6.747   2.836   4.377 -0.8488 -1.9311 -1.3707
 3823TIP3    H232885   6.637   2.882   4.284 -0.3033  0.8918 -0.6871
 3824TIP3   OH232886   2.117   3.119  14.931  0.2448  0.1568  0.3448
 3824TIP3    H132887   2.080   3.204  14.905 -0.3026 -0.3985 -0.7091
 3824TIP3    H232888   2.088   3.058  14.863  0.5784 -0.8950  1.1349
 3825TIP3   OH232889   5.821   4.245  13.828 -0.0788 -0.2644 -0.2240
 3825TIP3    H132890   5.777   4.172  13.785  0.1408 -1.3172  1.2980
 3825TIP3    H232891   5.749   4.296  13.867 -0.1842 -0.0543 -0.6910
 3826TIP3   OH232892   1.628   5.645  16.856  0.5458  0.2882 -0.0412
 3826TIP3    H132893   1.616   5.567  16.910 -0.7349 -0.2872 -1.1150
 3826TIP3    H232894   1.624   5.718  16.917  1.2663 -0.4591  0.9113
 3827TIP3   OH232895   4.506   2.870  13.514 -0.0370 -0.4789 -0.1630
 3827TIP3    H132896   4.547   2.866  13.428  1.2058 -0.5604  0.4342
 3827TIP3    H232897   4.566   2.824  13.572 -0.3910  0.4284  0.9374
 3828TIP3   OH232898   2.135   3.363  17.057 -0.1299  0.1271  0.1233
 3828TIP3    H132899   2.066   3.313  17.014 -1.2793  0.6523  1.3347
 3828TIP3    H232900   2.112   3.361  17.149  1.2289  0.7178  0.4863
 3829TIP3   OH232901   0.443   3.899  13.542  0.3527  0.9903 -0.6526
 3829TIP3    H132902   0.374   3.924  13.481  0.4843  0.1652 -1.1597
 3829TIP3    H232903   0.519   3.880  13.486  1.0669  2.1039 -0.0886
 3830TIP3   OH232904   6.252   1.191   0.704  0.4243 -0.0033 -0.4756
 3830TIP3    H132905   6.333   1.176   0.753 -0.0937  0.6207  0.5856
 3830TIP3    H232906   6.220   1.275   0.736 -0.3814 -0.0019 -1.2620
 3831TIP3   OH232907   6.200   6.016  12.500 -0.2749  0.2853  0.3753
 3831TIP3    H132908   6.277   6.073  12.504 -0.7108  0.8279  1.3955
 3831TIP3    H232909   6.202   5.966  12.582  0.3076 -1.4600 -0.6784
 3832TIP3   OH232910   3.003   4.385  15.810 -0.5850  0.4191 -0.0316
 3832TIP3    H132911   2.908   4.379  15.814 -0.5202 -0.5180  0.0894
 3832TIP3    H232912   3.025   4.451  15.876 -1.1310  0.4696  0.1047
 3833TIP3   OH232913   3.653   3.421  14.509 -0.1343 -0.0856 -0.6639
 3833TIP3    H132914   3.631   3.466  14.590  1.0543  1.7949 -1.3740
 3833TIP3    H232915   3.629   3.329  14.526 -2.3987  0.7315  0.8485
 3834TIP3   OH232916   0.710   4.370  12.280  0.0710 -0.2352  0.4400
 3834TIP3    H132917   0.764   4.299  12.315  1.5952 -0.3053 -2.0037
 3834TIP3    H232918   0.674   4.335  12.199 -0.2133  1.3369 -0.1270
 3835TIP3   OH232919   5.693   2.228  15.561  0.1236 -0.6893  0.1418
 3835TIP3    H132920   5.635   2.180  15.502  0.3999 -1.3156  0.3761
 3835TIP3    H232921   5.655   2.215  15.648 -0.0288 -0.1427  0.1608
 3836TIP3   OH232922   1.267   1.493   0.176  0.0607 -0.0350 -0.5182
 3836TIP3    H132923   1.303   1.413   0.216  0.2332 -0.0394 -0.6800
 3836TIP3    H232924   1.172   1.484   0.184  0.0899 -0.1220 -0.2741
 3837TIP3   OH232925   1.243   0.611   4.376 -0.1279 -0.3715 -0.3793
 3837TIP3    H132926   1.154   0.624   4.344  0.0597  2.6606  0.1763
 3837TIP3    H232927   1.297   0.611   4.297 -0.3089  1.0210 -0.5189
 3838TIP3   OH232928   2.880   4.273  13.050 -0.3663  0.0005  0.1597
 3838TIP3    H132929   2.930   4.267  13.132  0.8360 -1.4222 -0.6573
 3838TIP3    H232930   2.793   4.302  13.078  0.4449  0.9641  1.7813
 3839TIP3   OH232931   3.831   6.023   4.880  0.2628 -0.1441 -0.8787
 3839TIP3    H132932   3.901   6.016   4.945  0.3913 -0.5983 -1.0666
 3839TIP3    H232933   3.783   6.101   4.906 -0.5234 -1.0884  0.5961
 3840TIP3   OH232934   6.412   3.421   6.107 -0.2812  0.3196 -0.5837
 3840TIP3    H132935   6.496   3.465   6.118  0.0884 -0.2972 -0.8862
 3840TIP3    H232936   6.356   3.457   6.176  0.8645 -0.8069  0.9730
 3841TIP3   OH232937   3.789   0.639  10.382 -0.4339 -0.5988  0.3406
 3841TIP3    H132938   3.836   0.709  10.336 -1.7009 -0.2456 -0.4413
 3841TIP3    H232939   3.856   0.572  10.399  1.3121  1.7095  3.0595
 3842TIP3   OH232940   3.942   1.062   1.360  0.5526  0.1413  0.2458
 3842TIP3    H132941   3.905   0.982   1.397 -0.4948  0.6716  0.3663
 3842TIP3    H232942   4.034   1.060   1.386  0.8960 -1.7906 -1.0813
 3843TIP3   OH232943   6.385   0.633  12.342 -0.1371  0.1435  0.3271
 3843TIP3    H132944   6.466   0.584  12.331 -0.3988 -0.2297  0.0303
 3843TIP3    H232945   6.329   0.604  12.269 -0.8443 -0.2404  1.0148
 3844TIP3   OH232946   2.319   6.293  12.400  0.0603  0.3912  0.3909
 3844TIP3    H132947   2.338   6.303  12.493 -1.7084  0.8460  0.7157
 3844TIP3    H232948   2.225   6.307  12.393 -0.2100 -1.9240 -1.1474
 3845TIP3   OH232949   2.172   0.030  10.811 -0.0239  0.1697  0.7637
 3845TIP3    H132950   2.250   0.003  10.761 -0.5062  0.2895 -0.0665
 3845TIP3    H232951   2.189   0.122  10.833  0.4940 -0.0805  1.4079
 3846TIP3   OH232952   4.884   2.088   1.923 -0.1712  0.3453 -0.7723
 3846TIP3    H132953   4.806   2.068   1.975  0.0537 -0.0616 -0.5866
 3846TIP3    H232954   4.851   2.125   1.841 -0.5177  1.3395 -0.1880
 3847TIP3   OH232955   5.749   2.918  13.126 -0.9738 -0.0751  0.0643
 3847TIP3    H132956   5.799   2.984  13.078 -0.2488 -0.3219  0.4728
 3847TIP3    H232957   5.676   2.966  13.165 -0.9581  0.3197 -0.3827
 3848TIP3   OH232958   1.788   5.773  14.178 -0.1667  0.0556  0.6119
 3848TIP3    H132959   1.772   5.690  14.224  2.0294 -1.6283 -1.5030
 3848TIP3    H232960   1.883   5.773  14.163 -0.2201  2.7222  0.0783
 3849TIP3   OH232961   5.180   1.155   2.931  0.1735 -0.5955  0.2301
 3849TIP3    H132962   5.185   1.070   2.889 -1.5523 -0.2326 -0.7734
 3849TIP3    H232963   5.095   1.155   2.975  0.3155  0.4656  0.5223
 3850TIP3   OH232964   2.505   4.335   2.938  0.4024  0.2168 -0.1175
 3850TIP3    H132965   2.504   4.324   2.843  0.8980  0.9169 -0.2167
 3850TIP3    H232966   2.415   4.321   2.966  0.1483  0.5457 -0.7650
 3851TIP3   OH232967   0.774   1.494  16.555 -0.0386  0.1756 -1.1290
 3851TIP3    H132968   0.823   1.556  16.609  0.1911 -1.2514  0.3364
 3851TIP3    H232969   0.825   1.487  16.474 -0.3608  2.2914 -1.5264
 3852TIP3   OH232970   4.922   2.543   4.719 -0.1891  0.1569  0.3528
 3852TIP3    H132971   4.890   2.609   4.781  0.3879  1.6451 -0.8827
 3852TIP3    H232972   4.860   2.547   4.646  0.3329 -0.0544 -0.1103
 3853TIP3   OH232973   0.712   1.111  14.296 -0.9717  0.4054  0.5999
 3853TIP3    H132974   0.672   1.147  14.218  0.2688 -1.2367 -0.8368
 3853TIP3    H232975   0.666   1.028  14.311 -2.1674  1.3816  2.4584
 3854TIP3   OH232976   2.812   2.208  11.889 -0.4968 -0.4395 -0.3095
 3854TIP3    H132977   2.777   2.281  11.939 -0.6978 -0.0158 -1.0671
 3854TIP3    H232978   2.831   2.245  11.802 -0.0284 -1.1323 -0.5044
 3855TIP3   OH232979   5.189   4.888   6.142  0.1952 -0.0061  0.0871
 3855TIP3    H132980   5.268   4.930   6.109  0.4672 -0.1924  0.5106
 3855TIP3    H232981   5.159   4.945   6.213 -1.7256  1.7155 -2.0133
 3856TIP3   OH232982   5.939   3.517  12.094 -0.5148  0.7093  0.6376
 3856TIP3    H132983   5.926   3.612  12.088 -0.6909  0.7579  1.6294
 3856TIP3    H232984   5.855   3.483  12.123 -0.6672  0.1620 -0.4321
 3857TIP3   OH232985   3.583   3.050   4.760 -0.5019  0.3542  0.1250
 3857TIP3    H132986   3.492   3.025   4.775 -0.6537  1.1446  0.5505
 3857TIP3    H232987   3.631   2.968   4.763 -1.2749 -0.1419 -0.6913
 3858TIP3   OH232988   5.972   4.608   3.760 -0.0335  0.3711 -0.0202
 3858TIP3    H132989   6.016   4.626   3.843  2.0396 -0.1241 -0.9678
 3858TIP3    H232990   5.898   4.668   3.759  0.1875  0.7083  1.9784
 3859TIP3   OH232991   6.112   5.941  14.051  0.2991 -0.3941 -0.2361
 3859TIP3    H132992   6.078   5.890  13.977 -1.8015  1.1131 -0.3851
 3859TIP3    H232993   6.207   5.938  14.041  0.0832 -1.1645 -2.3703
 3860TIP3   OH232994   0.522   2.714  16.689 -0.5496 -0.0863  0.4413
 3860TIP3    H132995   0.557   2.801  16.708  0.1550 -0.2687  0.0026
 3860TIP3    H232996   0.561   2.657  16.756  1.1521 -0.5497 -0.9155
 3861TIP3   OH232997   4.382   3.437   1.902 -0.1119  0.1289  0.9057
 3861TIP3    H132998   4.426   3.500   1.845  0.4123  1.8824  3.2196
 3861TIP3    H232999   4.436   3.358   1.896  1.3085  1.0882  0.9076
 3862TIP3   OH233000   6.038   3.501   3.554 -0.4965 -0.0897  0.6100
 3862TIP3    H133001   6.058   3.407   3.561 -3.5198 -0.8128  0.3301
 3862TIP3    H233002   5.948   3.508   3.583 -1.7643  2.0635 -3.4548
 3863TIP3   OH233003   0.952   2.939   3.153  0.1945  0.0748 -0.5815
 3863TIP3    H133004   0.960   2.858   3.202  0.3280  0.0709 -0.6108
 3863TIP3    H233005   1.011   3.000   3.197  3.3778 -1.0217 -3.0736
 3864TIP3   OH233006   1.689   3.662  11.331  0.3227 -0.2438  0.0881
 3864TIP3    H133007   1.635   3.664  11.410 -0.8293 -1.0626 -0.6578
 3864TIP3    H233008   1.638   3.609  11.269  1.7575 -0.6117 -0.7982
 3865TIP3   OH233009   2.061   6.366   5.275  0.0505 -0.0296  0.6348
 3865TIP3    H133010   2.137   6.334   5.323  0.0135  0.2723  0.8931
 3865TIP3    H233011   1.993   6.376   5.341 -0.8441 -2.2446  0.0940
 3866TIP3   OH233012   3.543   4.213   0.813 -0.2277 -0.0181  0.1524
 3866TIP3    H133013   3.618   4.222   0.872  0.0527  0.0692 -0.2101
 3866TIP3    H233014   3.477   4.272   0.849  0.9118  2.1349 -1.1245
 3867TIP3   OH233015   3.188   2.993   4.338 -0.8006  0.4270 -0.3276
 3867TIP3    H133016   3.229   2.970   4.421 -0.7661 -0.7335 -0.6647
 3867TIP3    H233017   3.135   2.917   4.315  0.4488  0.0746 -2.1584
 3868TIP3   OH233018   2.135   1.121  12.387  0.4453 -0.0887  0.3791
 3868TIP3    H133019   2.189   1.198  12.406  1.3526 -0.3868 -0.9129
 3868TIP3    H233020   2.045   1.150  12.404  0.6598  1.6627 -1.2626
 3869TIP3   OH233021   4.325   6.621   3.645 -0.0495 -0.4520  0.2102
 3869TIP3    H133022   4.329   6.621   3.549 -0.9852  0.0816  0.1626
 3869TIP3    H233023   4.238   6.587   3.665 -0.2315  0.3793  0.8523
 3870TIP3   OH233024   6.605   6.557   0.027  0.1860  0.4449  0.1145
 3870TIP3    H133025   6.657   6.507  -0.036 -0.7033 -0.1302 -0.1740
 3870TIP3    H233026   6.579   6.636  -0.021  0.5341  0.5820  0.1523
 3871TIP3   OH233027   4.217   0.114   5.098 -0.4121  0.1233  0.1026
 3871TIP3    H133028   4.173   0.198   5.086 -1.6388 -0.2578  1.7611
 3871TIP3    H233029   4.288   0.132   5.159  0.5988  0.3417 -1.1028
 3872TIP3   OH233030   4.169   5.623   2.755 -0.3806 -0.4071  0.4946
 3872TIP3    H133031   4.088   5.624   2.806 -1.1856  0.9219 -0.7659
 3872TIP3    H233032   4.140   5.616   2.664  0.9053  0.8133 -0.0188
 3873TIP3   OH233033   4.089   4.431   1.921  0.1975  0.3748 -0.6018
 3873TIP3    H133034   4.152   4.501   1.934 -0.3507  0.7913 -0.1329
 3873TIP3    H233035   4.004   4.473   1.931 -0.1240 -0.5308  0.6907
 3874TIP3   OH233036   1.633   0.774   4.337  0.4002 -0.9065  0.1710
 3874TIP3    H133037   1.550   0.785   4.382  0.1285 -0.3465 -0.4597
 3874TIP3    H233038   1.691   0.840   4.377 -0.4292  0.9916 -1.6902
 3875TIP3   OH233039   3.948   6.316  11.904 -0.5529 -0.2134  0.1545
 3875TIP3    H133040   3.973   6.336  11.814 -2.0912  1.4546  0.0787
 3875TIP3    H233041   3.953   6.221  11.910 -0.9506 -0.3714 -1.8246
 3876TIP3   OH233042   6.634   0.512   4.359  0.3099 -0.0686  0.1099
 3876TIP3    H133043   6.544   0.530   4.330  0.1983 -0.3977  0.2417
 3876TIP3    H233044   6.658   0.589   4.410  1.2340  1.3961 -2.4851
 3877TIP3   OH233045   6.331   0.409  16.748 -0.0299 -0.6416  0.1142
 3877TIP3    H133046   6.286   0.352  16.686 -1.3167  0.7901 -0.3012
 3877TIP3    H233047   6.296   0.384  16.833  0.3587 -1.3318  0.0800
 3878TIP3   OH233048   5.257   5.545  11.884  0.0908  0.0403 -0.3393
 3878TIP3    H133049   5.288   5.454  11.878  1.0323  0.2892  0.5766
 3878TIP3    H233050   5.335   5.595  11.907 -0.6239  0.9550  0.1080
 3879TIP3   OH233051   5.074   0.431  11.077  0.3123 -0.6155 -0.0508
 3879TIP3    H133052   5.103   0.520  11.098  0.2815 -0.7221  0.4505
 3879TIP3    H233053   5.109   0.377  11.148 -0.1864 -0.9093 -0.0300
 3880TIP3   OH233054   6.095   5.261   5.686  0.6245  0.5114  0.1263
 3880TIP3    H133055   6.150   5.198   5.732 -0.7737 -0.9286 -0.1320
 3880TIP3    H233056   6.006   5.238   5.711  0.0128  1.5698 -1.0052
 3881TIP3   OH233057   0.305   5.607   0.221  0.0206 -0.1374  0.1308
 3881TIP3    H133058   0.395   5.611   0.253 -0.1234 -1.3827  0.7294
 3881TIP3    H233059   0.309   5.550   0.145 -0.5952 -1.9678  1.4280
 3882TIP3   OH233060   5.958   1.086   6.727  0.1502  0.3322  0.2766
 3882TIP3    H133061   5.873   1.055   6.695  0.3470  0.5495 -0.4615
 3882TIP3    H233062   6.019   1.065   6.657  0.6000  0.7348  0.5491
 3883TIP3   OH233063   3.281   0.507  12.076  0.0762 -0.4933 -0.0928
 3883TIP3    H133064   3.320   0.578  12.128  0.7337 -0.6650 -0.3502
 3883TIP3    H233065   3.345   0.489  12.008 -0.4621 -0.7720 -0.5318
 3884TIP3   OH233066   2.660   0.938   6.578  0.0065 -0.0276  0.7052
 3884TIP3    H133067   2.703   0.990   6.645  2.1162 -0.1755 -0.4996
 3884TIP3    H233068   2.663   0.993   6.499  0.5313 -1.1830 -0.0892
 3885TIP3   OH233069   1.701   4.482   1.466  0.3883  0.6919 -0.0900
 3885TIP3    H133070   1.630   4.529   1.423  0.1712  0.0776 -0.4058
 3885TIP3    H233071   1.660   4.404   1.504  0.8041  0.5772  0.1285
 3886TIP3   OH233072   1.188   4.890   5.141 -0.4988  0.6402 -0.1721
 3886TIP3    H133073   1.101   4.888   5.102 -0.5998  1.1051  0.0275
 3886TIP3    H233074   1.248   4.873   5.068 -0.8321 -1.0986 -0.0594
 3887TIP3   OH233075   0.519   6.454   0.361 -0.4251 -0.4831  0.3400
 3887TIP3    H133076   0.482   6.542   0.363  0.1271 -0.2340 -0.1587
 3887TIP3    H233077   0.488   6.413   0.442 -0.1892  0.3798  0.8796
 3888TIP3   OH233078   1.719   2.379  16.895  0.4681 -0.5544  0.2374
 3888TIP3    H133079   1.703   2.285  16.895 -1.2368 -0.2819  1.0178
 3888TIP3    H233080   1.639   2.417  16.858  0.8280  0.6326  0.6584
 3889TIP3   OH233081   5.287   2.991  16.546 -0.1730  0.4241 -0.2266
 3889TIP3    H133082   5.201   3.024  16.520 -1.0765 -0.2961  1.8155
 3889TIP3    H233083   5.304   2.919  16.485 -1.5742 -0.2339  0.1313
 3890TIP3   OH233084   0.245   5.344  15.907 -0.5296 -0.0244  0.6082
 3890TIP3    H133085   0.216   5.290  15.980  0.8405  0.1000  1.2494
 3890TIP3    H233086   0.168   5.350  15.850 -3.0113  3.4981  4.0836
 3891TIP3   OH233087   4.894   1.371  14.980  0.2820  0.0299 -0.2420
 3891TIP3    H133088   4.811   1.341  14.941 -0.4784  1.0017  0.5933
 3891TIP3    H233089   4.911   1.308  15.050  0.9675 -0.9563 -1.2776
 3892TIP3   OH233090   6.117   5.244   0.590  0.1488  0.6513  0.1909
 3892TIP3    H133091   6.173   5.253   0.667 -2.1416  2.7999  1.6826
 3892TIP3    H233092   6.151   5.310   0.529 -1.0059  2.2962  1.2865
 3893TIP3   OH233093   0.597   4.117  12.519 -0.3404  0.0682  0.6480
 3893TIP3    H133094   0.672   4.169  12.548 -0.2001  0.4077 -0.2928
 3893TIP3    H233095   0.596   4.127  12.424 -0.4667 -1.4450  0.4663
 3894TIP3   OH233096   6.765   0.613  14.478  0.6097 -0.1016 -0.0330
 3894TIP3    H133097   6.752   0.702  14.513  0.0865 -0.1466 -0.1148
 3894TIP3    H233098   6.683   0.568  14.497  0.9104 -0.5985  0.0948
 3895TIP3   OH233099   6.786   4.070  13.163 -0.4974 -0.1363 -0.1359
 3895TIP3    H133100   6.835   4.033  13.089  1.7092 -0.4804  1.4427
 3895TIP3    H233101   6.709   4.013  13.172 -0.3109 -0.6294 -1.5756
 3896TIP3   OH233102   0.006   4.402  15.485 -0.3574  0.0934  0.6973
 3896TIP3    H133103  -0.056   4.366  15.421 -0.0690  1.2419 -0.2529
 3896TIP3    H233104   0.087   4.352  15.471  0.1442  1.3032 -0.8503
 3897TIP3   OH233105   1.447   2.328   2.918  0.5143 -0.0742 -0.7401
 3897TIP3    H133106   1.490   2.408   2.886  1.4550  0.2890  1.3340
 3897TIP3    H233107   1.512   2.259   2.905  0.7244 -0.0069 -0.0849
 3898TIP3   OH233108   2.279   1.945   2.196 -0.2292  0.3142  0.0731
 3898TIP3    H133109   2.268   2.029   2.151 -1.1777  0.0870 -0.1255
 3898TIP3    H233110   2.372   1.941   2.217  0.2362  0.4342 -1.8675
 3899TIP3   OH233111   5.616   4.324  11.162  0.0756 -1.0888  0.2435
 3899TIP3    H133112   5.546   4.307  11.225  1.8567 -0.7336  2.3840
 3899TIP3    H233113   5.588   4.404  11.117 -1.4300 -1.5958  0.2261
 3900TIP3   OH233114   5.591   6.371   2.488  0.0393 -0.5516 -0.1774
 3900TIP3    H133115   5.591   6.436   2.418  0.1886  0.7440  0.9972
 3900TIP3    H233116   5.571   6.288   2.444 -1.3675  0.4722 -1.5224
 3901TIP3   OH233117   1.673   0.031  17.118  0.0065  0.0987  0.3111
 3901TIP3    H133118   1.667   0.120  17.084 -0.8207 -0.0195  0.1355
 3901TIP3    H233119   1.587   0.014  17.156 -0.6013 -1.4259 -1.6661
 3902TIP3   OH233120   6.781   0.737  15.226  0.4263  0.3136 -0.0498
 3902TIP3    H133121   6.791   0.770  15.315  1.4675 -2.3924  0.9215
 3902TIP3    H233122   6.821   0.804  15.170  1.8025  1.0340  1.7471
 3903TIP3   OH233123   1.403   4.493   2.059  0.3094 -0.6784 -0.0777
 3903TIP3    H133124   1.359   4.535   1.985 -1.3348 -0.0049  1.2439
 3903TIP3    H233125   1.408   4.561   2.126  2.6417 -0.9954  0.1164
 3904TIP3   OH233126   3.088   1.244   2.031  0.0605  0.0584 -0.0208
 3904TIP3    H133127   3.039   1.322   2.005 -1.4661  0.1309  2.8931
 3904TIP3    H233128   3.032   1.171   2.006  1.7975 -0.2037 -3.3866
 3905TIP3   OH233129   5.330   3.670  13.676 -0.1866  0.6677 -0.0320
 3905TIP3    H133130   5.324   3.750  13.730 -1.1383  1.4109 -1.2193
 3905TIP3    H233131   5.402   3.688  13.616  0.3441  0.1626  0.4458
 3906TIP3   OH233132   6.225   1.000   2.146 -0.1437 -0.0576  0.0587
 3906TIP3    H133133   6.175   1.064   2.197  2.0481  1.8160 -0.0755
 3906TIP3    H233134   6.203   1.019   2.055 -0.0309  0.0456  0.0530
 3907TIP3   OH233135   5.654   0.237  13.215  0.1472  0.4003  0.4626
 3907TIP3    H133136   5.615   0.160  13.256 -1.9160  0.8537 -0.5808
 3907TIP3    H233137   5.748   0.223  13.221 -0.1286 -0.4785  3.5832
 3908TIP3   OH233138   1.200   0.897  16.275 -0.1503  0.2821 -0.0661
 3908TIP3    H133139   1.243   0.831  16.220 -4.0717 -0.8914 -1.8638
 3908TIP3    H233140   1.204   0.977  16.223  0.9617  0.5338  0.3703
 3909TIP3   OH233141   2.073   1.251   4.449  0.0083 -0.0466  0.1847
 3909TIP3    H133142   2.052   1.174   4.503 -0.5221 -1.0949 -1.4654
 3909TIP3    H233143   2.156   1.284   4.485 -0.1012 -0.9867  1.3398
 3910TIP3   OH233144   5.956   6.251  13.447 -0.4127 -0.1172 -0.1163
 3910TIP3    H133145   5.894   6.308  13.493  0.0508  1.9495 -1.9372
 3910TIP3    H233146   5.923   6.248  13.357  0.3317 -1.6591 -0.3501
 3911TIP3   OH233147   0.067   5.692   0.866  0.1612  0.4420 -0.1488
 3911TIP3    H133148   0.093   5.616   0.813  0.0058  0.6190 -0.4802
 3911TIP3    H233149  -0.023   5.710   0.838  0.1540  0.6671  0.0219
 3912TIP3   OH233150   3.808   2.631  17.010  0.4669 -0.1355  0.0009
 3912TIP3    H133151   3.786   2.657  17.099 -1.5733  0.4736 -0.6580
 3912TIP3    H233152   3.897   2.665  16.997 -0.5725  2.9447  0.5749
 3913TIP3   OH233153   4.450   0.878  10.945 -0.1003 -0.1217  0.0629
 3913TIP3    H133154   4.491   0.793  10.924 -0.2451 -0.6671  1.9422
 3913TIP3    H233155   4.449   0.925  10.861 -2.7536 -3.1182 -1.7121
 3914TIP3   OH233156   2.487   1.245   4.106  0.2159 -0.9696 -0.0379
 3914TIP3    H133157   2.432   1.290   4.042  1.2517  0.0364 -0.2372
 3914TIP3    H233158   2.447   1.267   4.191  0.7958  0.4578 -0.1231
 3915TIP3   OH233159   5.121   4.484   0.138 -0.4968  0.8128  0.3662
 3915TIP3    H133160   5.135   4.578   0.135  0.7303  0.6092 -0.7106
 3915TIP3    H233161   5.201   4.446   0.101 -1.2836 -0.6174  0.0729
 3916TIP3   OH233162   6.587   0.690  16.485  0.6065 -0.2964  0.1017
 3916TIP3    H133163   6.534   0.696  16.405  0.1799  2.7634  0.5681
 3916TIP3    H233164   6.529   0.648  16.549 -1.2145  2.6937  0.4979
 3917TIP3   OH233165   6.066   4.851   1.865 -0.6571 -0.1577  0.0827
 3917TIP3    H133166   6.057   4.874   1.957 -0.3416  0.0670  0.0574
 3917TIP3    H233167   6.114   4.768   1.865 -0.0579  0.1811  0.0993
 3918TIP3   OH233168   5.635   1.384   3.188  0.8737  0.0537 -0.4477
 3918TIP3    H133169   5.585   1.310   3.154  2.7503 -0.9420 -1.1071
 3918TIP3    H233170   5.725   1.366   3.162  1.2905  2.8352 -1.0600
 3919TIP3   OH233171   0.476   2.941  14.142  0.4415 -0.0185 -0.1564
 3919TIP3    H133172   0.520   2.992  14.210 -1.4932  0.3454  0.8652
 3919TIP3    H233173   0.455   3.005  14.074 -1.7846  0.5770  1.0256
 3920TIP3   OH233174   3.928   3.430   4.861 -0.3495 -0.0923  0.2257
 3920TIP3    H133175   4.005   3.457   4.911 -0.8520  0.9029  0.4847
 3920TIP3    H233176   3.963   3.376   4.790  0.7442  1.5442 -0.5154
 3921TIP3   OH233177   5.161   5.030   5.013  0.3253  0.7754  0.8411
 3921TIP3    H133178   5.224   4.985   4.956  0.1160 -0.7709  1.7998
 3921TIP3    H233179   5.124   5.100   4.958  0.3106 -0.5236 -0.8369
 3922TIP3   OH233180   4.433   2.455   2.604  0.1597 -0.2209  0.6219
 3922TIP3    H133181   4.422   2.376   2.657  0.5612 -1.5752 -1.2365
 3922TIP3    H233182   4.349   2.464   2.558 -0.4815  1.4014  2.0220
 3923TIP3   OH233183   1.168   4.685   1.341  0.3139  0.0031 -0.4697
 3923TIP3    H133184   1.137   4.720   1.257 -2.3144 -0.5652  0.2063
 3923TIP3    H233185   1.251   4.729   1.357 -0.9918  2.9711 -1.5462
 3924TIP3   OH233186   4.771   2.665  14.097 -0.4022 -0.1224  0.4214
 3924TIP3    H133187   4.813   2.581  14.116 -0.2401 -0.1471 -0.0416
 3924TIP3    H233188   4.827   2.730  14.138  0.6888 -0.0655 -1.1001
 3925TIP3   OH233189   3.513   5.320  10.919 -0.3822 -0.0003 -0.4896
 3925TIP3    H133190   3.473   5.233  10.919 -0.1121 -0.1220 -0.7231
 3925TIP3    H233191   3.551   5.330  10.832 -2.9713  1.5183 -1.5270
 3926TIP3   OH233192   5.703   4.034   0.810 -0.2279 -0.2015 -0.2485
 3926TIP3    H133193   5.734   4.058   0.897  0.5294 -2.2384  0.0529
 3926TIP3    H233194   5.617   4.077   0.802 -0.2814  0.0174  1.4701
 3927TIP3   OH233195   3.417   3.066  11.885 -0.2664 -0.3103 -0.2999
 3927TIP3    H133196   3.332   3.107  11.869 -0.4855 -0.6015  0.1072
 3927TIP3    H233197   3.396   2.980  11.921  0.1883 -1.2042 -2.1396
 3928TIP3   OH233198   1.693   4.544  16.500 -0.1094 -0.2520 -0.0930
 3928TIP3    H133199   1.613   4.564  16.452 -0.4106 -1.9023 -0.3102
 3928TIP3    H233200   1.673   4.465  16.549  0.4270  1.0272  2.2461
 3929TIP3   OH233201   5.017   3.766  14.252 -0.1452  0.4141  0.2283
 3929TIP3    H133202   5.069   3.783  14.174  0.3021  1.6379  0.7768
 3929TIP3    H233203   5.027   3.845  14.305  2.2619 -1.6185  3.0223
 3930TIP3   OH233204   5.681   4.449  13.944 -0.0805  0.1275 -0.0747
 3930TIP3    H133205   5.755   4.510  13.943 -1.0383  1.2679 -2.9279
 3930TIP3    H233206   5.617   4.490  14.002 -0.1678  1.1760 -0.9055
 3931TIP3   OH233207   5.593   2.409  17.058  0.6667 -0.4000 -0.0540
 3931TIP3    H133208   5.575   2.330  17.109  1.9601 -0.2849  0.6033
 3931TIP3    H233209   5.564   2.481  17.114  2.8061 -0.2289  0.8939
 3932TIP3   OH233210   5.666   3.568  15.214 -0.6562  0.3384  0.0037
 3932TIP3    H133211   5.611   3.523  15.278 -1.4916  1.7832  0.3043
 3932TIP3    H233212   5.610   3.579  15.137 -0.6149  1.2938  0.1026
 3933TIP3   OH233213   4.206   5.700  11.684  0.2514  0.0092 -0.3081
 3933TIP3    H133214   4.249   5.614  11.685  1.6458  0.6433 -1.8629
 3933TIP3    H233215   4.197   5.720  11.591 -2.3398  0.4633  0.0173
 3934TIP3   OH233216   6.752   5.945  14.326  0.3165 -0.0345  0.7810
 3934TIP3    H133217   6.762   5.943  14.231  0.5054  0.2377  0.7941
 3934TIP3    H233218   6.673   5.894  14.344 -0.4742  1.0583  0.3852
 3935TIP3   OH233219   3.542   1.019  16.907  0.7057 -0.1694  0.5480
 3935TIP3    H133220   3.631   1.050  16.889  0.5761 -0.9567 -1.7388
 3935TIP3    H233221   3.552   0.956  16.978  2.1060 -0.8704 -0.2499
 3936TIP3   OH233222   0.289   5.019   0.763 -0.1724  0.3129 -0.0892
 3936TIP3    H133223   0.375   5.006   0.803 -0.4395  0.3382  0.4953
 3936TIP3    H233224   0.258   5.102   0.799 -0.4166  0.3388 -0.3533
 3937TIP3   OH233225   4.225   0.003   1.000 -0.8490 -0.5505 -0.0703
 3937TIP3    H133226   4.294  -0.061   0.988  0.4888  0.5525  1.4796
 3937TIP3    H233227   4.165  -0.038   1.063  0.8202  0.3054  2.1305
 3938TIP3   OH233228   2.801   1.096   5.606  0.5833 -0.0528 -0.2252
 3938TIP3    H133229   2.894   1.092   5.628 -0.1977  2.1893  3.9531
 3938TIP3    H233230   2.788   1.185   5.574 -0.3743  0.0673  0.4934
 3939TIP3   OH233231   4.226   2.049  16.864 -0.1242  1.0897  0.0967
 3939TIP3    H133232   4.140   2.058  16.822  0.0836 -0.4309 -0.7278
 3939TIP3    H233233   4.248   2.137  16.894 -0.8593  1.9944 -1.9112
 3940TIP3   OH233234   3.452   6.508   5.111  0.3642  0.3168  0.3684
 3940TIP3    H133235   3.386   6.556   5.162  0.2602  0.0187  0.5108
 3940TIP3    H233236   3.420   6.419   5.107  0.6210  0.2313  0.1983
 3941TIP3   OH233237   1.896   4.648   0.564  0.3316 -0.2948  0.5957
 3941TIP3    H133238   1.954   4.574   0.543 -0.0949 -0.8347  1.3263
 3941TIP3    H233239   1.930   4.682   0.647  0.4258  0.2308  0.3438
 3942TIP3   OH233240   1.446   6.555  11.362  0.3229  0.0708  0.3635
 3942TIP3    H133241   1.440   6.632  11.305  0.0394  0.6840  1.2134
 3942TIP3    H233242   1.405   6.485  11.312  1.7165  0.1595 -0.9510
 3943TIP3   OH233243   3.793   0.711  16.747  0.0614  0.2383 -0.0137
 3943TIP3    H133244   3.860   0.646  16.726 -0.0300  0.6290 -1.5957
 3943TIP3    H233245   3.720   0.660  16.781  0.0499 -0.4928 -1.0953
 3944TIP3   OH233246   3.130   6.763   5.978  0.1909  0.6375 -0.3364
 3944TIP3    H133247   3.095   6.717   6.054  0.8343 -0.0774 -0.4550
 3944TIP3    H233248   3.225   6.752   5.986  0.2037 -0.4583 -1.8581
 3945TIP3   OH233249   1.331   1.221  15.692  0.2282 -0.1125  0.3875
 3945TIP3    H133250   1.362   1.250  15.778  0.2917  1.6741 -0.2018
 3945TIP3    H233251   1.409   1.187  15.649  0.2006 -0.9833  1.0346
 3946TIP3   OH233252   0.408   1.921  16.822 -0.4736  0.4012 -0.8606
 3946TIP3    H133253   0.375   1.917  16.733 -1.1586  0.7471 -0.6293
 3946TIP3    H233254   0.347   1.867  16.873 -0.5109  0.7966 -0.4823
 3947TIP3   OH233255   2.793   4.442   2.755  0.0383  0.2240 -0.1234
 3947TIP3    H133256   2.774   4.421   2.846  0.1840  0.0856 -0.1236
 3947TIP3    H233257   2.854   4.515   2.759 -0.7299  0.8719 -0.1278
 3948TIP3   OH233258   2.056   6.247   2.206 -0.4188  0.2686 -0.5248
 3948TIP3    H133259   2.138   6.281   2.242 -0.4707  0.2286 -0.3695
 3948TIP3    H233260   2.084   6.187   2.137 -0.3170  0.2816 -0.4957
 3949TIP3   OH233261   1.331   4.907   3.036 -0.3328  0.3245  0.2471
 3949TIP3    H133262   1.294   4.917   2.949  0.2569  1.0689  0.0840
 3949TIP3    H233263   1.404   4.969   3.040 -0.7418  0.7537  1.4867
 3950TIP3   OH233264   5.343   5.116   0.013 -0.5566  0.3229 -0.3327
 3950TIP3    H133265   5.314   5.100   0.103 -0.8135 -0.4535 -0.5441
 3950TIP3    H233266   5.262   5.123  -0.037 -0.4065 -0.7138 -0.7411
 3951TIP3   OH233267   0.459   4.940   1.370  0.4293  0.1177 -0.1552
 3951TIP3    H133268   0.468   5.034   1.384 -0.0252 -0.3005  3.3657
 3951TIP3    H233269   0.539   4.902   1.406 -0.2376 -0.9768  0.2015
 3952TIP3   OH233270   4.561   4.476  12.431  0.0526  0.1654  0.4408
 3952TIP3    H133271   4.586   4.541  12.497 -1.7312 -0.6494  1.9589
 3952TIP3    H233272   4.505   4.524  12.370 -3.4876 -0.4864  3.0460
 3953TIP3   OH233273   5.729   3.335   6.708 -0.2267  0.6256  0.3092
 3953TIP3    H133274   5.698   3.330   6.799 -1.0875  1.2997  0.0571
 3953TIP3    H233275   5.812   3.384   6.714  0.3945 -0.4745  0.8859
 3954TIP3   OH233276   2.993   6.553  13.726  0.2374  0.2980 -0.3446
 3954TIP3    H133277   2.963   6.517  13.809  0.8476  1.7760  0.5424
 3954TIP3    H233278   3.084   6.526  13.719 -0.9232 -3.3224 -2.5498
 3955TIP3   OH233279   2.031   3.863   4.794 -0.0806  0.4674  0.3024
 3955TIP3    H133280   2.084   3.845   4.716  0.9820  1.8302  0.6904
 3955TIP3    H233281   1.967   3.928   4.766  1.0501  1.8335  0.8448
 3956TIP3   OH233282   1.272   6.724  11.116 -0.2896  0.1386  0.2810
 3956TIP3    H133283   1.245   6.633  11.100 -1.3349  0.4442  0.2672
 3956TIP3    H233284   1.213   6.776  11.062  0.1137  0.8453  0.5185
 3957TIP3   OH233285   5.264   5.344   5.728 -0.1493 -0.2532 -0.0683
 3957TIP3    H133286   5.334   5.284   5.702 -0.8391 -0.2158 -2.0997
 3957TIP3    H233287   5.285   5.425   5.682 -1.6751 -0.3436 -0.9432
 3958TIP3   OH233288   0.123   3.823  16.151 -0.2565 -0.0771  0.0451
 3958TIP3    H133289   0.064   3.779  16.212  0.0987 -0.0850  0.3853
 3958TIP3    H233290   0.176   3.753  16.114 -1.0899 -0.1826 -0.9570
 3959TIP3   OH233291   2.774   0.062  12.196 -0.5639 -0.6214  0.4286
 3959TIP3    H133292   2.813   0.019  12.120 -0.6135  0.3620 -0.1655
 3959TIP3    H233293   2.776   0.155  12.175 -0.8649 -0.3564  1.5040
 3960TIP3   OH233294   4.685   3.839  13.046 -0.2573 -0.4584 -0.0413
 3960TIP3    H133295   4.655   3.900  13.113 -2.4959 -0.0153 -1.4036
 3960TIP3    H233296   4.680   3.753  13.088  3.4049  0.2496  2.0512
 3961TIP3   OH233297   6.693   1.743   0.203  0.2556  0.1352  0.1492
 3961TIP3    H133298   6.771   1.721   0.152 -0.4951 -1.7414 -0.2264
 3961TIP3    H233299   6.727   1.779   0.285  1.4904  0.3135 -0.4203
 3962TIP3   OH233300   1.129   1.966  13.247  0.3889  0.3844  0.7695
 3962TIP3    H133301   1.119   1.917  13.166  1.5397  0.2873  0.6672
 3962TIP3    H233302   1.154   1.900  13.312 -2.5337  0.1395  1.6907
 3963TIP3   OH233303   6.128   2.826  15.186  0.1318 -0.6309  0.2323
 3963TIP3    H133304   6.196   2.841  15.120 -0.2039 -0.6376 -0.1144
 3963TIP3    H233305   6.078   2.752  15.153 -1.6374  0.9871 -0.8038
 3964TIP3   OH233306   0.158   4.571   5.147 -0.0895 -0.5326 -0.1745
 3964TIP3    H133307   0.200   4.540   5.066 -0.0791 -1.1306  0.0549
 3964TIP3    H233308   0.231   4.593   5.205 -0.0811 -1.3129  0.1255
 3965TIP3   OH233309   3.359   0.010  11.642 -0.4330  0.1007 -0.2701
 3965TIP3    H133310   3.390   0.100  11.642 -0.1205 -0.0059 -2.0882
 3965TIP3    H233311   3.421  -0.037  11.698  1.1516  0.4269 -1.7229
 3966TIP3   OH233312   4.498   5.687  17.237  0.0710 -0.2815  0.2065
 3966TIP3    H133313   4.459   5.710  17.152  1.2383  1.0775  0.0113
 3966TIP3    H233314   4.586   5.726  17.234 -0.0959  0.2902  2.2801
 3967TIP3   OH233315   1.404   0.319  16.762 -0.1884  0.0541  0.1059
 3967TIP3    H133316   1.452   0.396  16.792  0.0654  0.9631 -2.5166
 3967TIP3    H233317   1.437   0.303  16.674 -0.2095 -3.1082  0.6003
 3968TIP3   OH233318   6.095   3.455  17.080  0.2763  0.8976  0.4457
 3968TIP3    H133319   6.189   3.468  17.067 -0.0976  1.1605 -2.2821
 3968TIP3    H233320   6.084   3.360  17.081  0.2803  0.8455 -1.8602
 3969TIP3   OH233321   6.552   5.097   4.279 -0.2233 -0.3165  0.1892
 3969TIP3    H133322   6.476   5.048   4.248  0.5928 -1.1488 -0.5519
 3969TIP3    H233323   6.627   5.047   4.246  0.6505  2.5403 -2.3713
 3970TIP3   OH233324   6.749   4.096  14.104  0.0429  0.3944  0.0480
 3970TIP3    H133325   6.745   4.019  14.162  2.5078  0.0162 -0.2352
 3970TIP3    H233326   6.836   4.132  14.118 -0.4090  2.0520 -1.2443
 3971TIP3   OH233327   2.030   0.273   1.337 -0.1241 -0.1326 -0.3182
 3971TIP3    H133328   2.028   0.178   1.324 -1.7058 -0.1320 -0.1917
 3971TIP3    H233329   1.956   0.305   1.286  0.2429  1.0081 -0.1325
 3972TIP3   OH233330   1.251   2.036   4.886  0.5804 -0.2245 -0.2393
 3972TIP3    H133331   1.224   1.958   4.837 -1.0097  1.3392 -1.9306
 3972TIP3    H233332   1.168   2.080   4.906  1.4257  0.6327  1.3721
 3973TIP3   OH233333   1.569   4.534  13.578 -0.3263 -0.3567 -0.0501
 3973TIP3    H133334   1.518   4.599  13.628 -0.6095 -0.4947 -0.1547
 3973TIP3    H233335   1.648   4.521  13.630 -0.6565 -0.5600  0.4122
 3974TIP3   OH233336   3.869   0.452  12.552  0.2873 -0.3636 -0.2270
 3974TIP3    H133337   3.887   0.504  12.474 -1.8261  0.8010  0.0286
 3974TIP3    H233338   3.868   0.515  12.624 -1.4912 -0.8344  0.1932
 3975TIP3   OH233339   5.620   3.564  16.532 -0.2921 -0.3289  0.4422
 3975TIP3    H133340   5.620   3.468  16.524  0.2406 -0.3704  0.9361
 3975TIP3    H233341   5.604   3.595  16.443  2.0463 -0.8429 -0.1833
 3976TIP3   OH233342   4.151   1.034  13.217  0.0458 -0.4170 -0.3169
 3976TIP3    H133343   4.111   0.985  13.288  1.5801 -1.4684 -0.1565
 3976TIP3    H233344   4.119   0.993  13.137  0.3947 -0.9228 -0.1965
 3977TIP3   OH233345   2.264   3.729   3.651 -0.1962 -0.2290 -0.0221
 3977TIP3    H133346   2.345   3.754   3.695  0.0959 -1.3536  0.1079
 3977TIP3    H233347   2.194   3.756   3.710  0.1682 -1.1168  0.8230
 3978TIP3   OH233348   0.266   4.312  15.433 -0.1472  0.0830  0.0433
 3978TIP3    H133349   0.335   4.377  15.450  1.1798 -0.5433 -2.6308
 3978TIP3    H233350   0.310   4.227  15.442 -1.3284 -0.4277  1.2535
 3979TIP3   OH233351   3.125   5.618  15.576 -0.8451  0.1508 -0.2599
 3979TIP3    H133352   3.147   5.536  15.620 -2.3769 -0.1095  0.0669
 3979TIP3    H233353   3.163   5.686  15.632 -0.3870 -0.2981 -0.0203
 3980TIP3   OH233354   2.098   5.678   4.068  0.7761  0.5923 -0.1160
 3980TIP3    H133355   2.066   5.602   4.019 -0.5579  2.2738 -1.9894
 3980TIP3    H233356   2.038   5.686   4.142  0.6329  0.1172 -0.1777
 3981TIP3   OH233357   2.144   5.587  16.403  0.7517  0.7330  0.0281
 3981TIP3    H133358   2.064   5.596  16.352  0.0846  0.8903  1.0979
 3981TIP3    H233359   2.125   5.629  16.487  1.1351 -1.3581  1.2092
 3982TIP3   OH233360   1.464   2.129  14.693 -0.1419  0.3566 -0.2871
 3982TIP3    H133361   1.460   2.034  14.708  0.2932  0.2828 -0.6367
 3982TIP3    H233362   1.484   2.138  14.600  1.9109  0.7603  0.1654
 3983TIP3   OH233363   0.392   3.363   5.980  0.1369  0.4279 -0.5293
 3983TIP3    H133364   0.437   3.279   5.970  1.8351  1.1666  0.6066
 3983TIP3    H233365   0.461   3.424   6.007 -1.5897  1.5656  1.4945
 3984TIP3   OH233366   1.750   3.485  14.511 -0.0959  0.6462 -0.6668
 3984TIP3    H133367   1.693   3.562  14.513 -0.5544  0.3458  3.7794
 3984TIP3    H233368   1.690   3.411  14.496 -0.2769  0.7494 -0.4535
 3985TIP3   OH233369   3.880   3.747   1.348 -0.6010  0.2112 -0.4420
 3985TIP3    H133370   3.860   3.815   1.412 -1.3739 -0.1904 -0.2456
 3985TIP3    H233371   3.876   3.666   1.398  2.0376  0.1342 -0.2866
 3986TIP3   OH233372   4.156   1.101   0.720 -0.3269 -0.2783  0.3112
 3986TIP3    H133373   4.160   1.093   0.625 -0.2586  0.1395  0.2784
 3986TIP3    H233374   4.068   1.135   0.738  0.0698  0.7829  0.3126
 3987TIP3   OH233375   5.059   0.380  11.820 -0.0875 -0.5786  0.0125
 3987TIP3    H133376   5.112   0.307  11.790 -0.2493 -1.2385  1.2774
 3987TIP3    H233377   4.969   0.355  11.798  0.0345  0.1488 -1.3524
 3988TIP3   OH233378   2.759   6.429  11.058 -0.5000  0.7053  0.5236
 3988TIP3    H133379   2.841   6.379  11.052 -0.1823  0.8884  2.9083
 3988TIP3    H233380   2.787   6.519  11.073 -1.1348  0.7550  1.4412
 3989TIP3   OH233381   0.803   3.677   4.341  0.2804 -0.5203  0.2719
 3989TIP3    H133382   0.830   3.593   4.303  0.8573  0.3594 -1.2890
 3989TIP3    H233383   0.768   3.727   4.268  0.5595  0.8636  1.0614
 3990TIP3   OH233384   1.609   0.698  15.202  0.4890  0.0443 -0.0663
 3990TIP3    H133385   1.635   0.613  15.166 -1.4705 -2.6281  4.4281
 3990TIP3    H233386   1.687   0.730  15.247  0.5654 -0.4563  0.1618
 3991TIP3   OH233387   4.964   2.227  13.508 -0.6347  0.2578  0.2130
 3991TIP3    H133388   4.895   2.185  13.458  0.3444  2.7332 -3.3964
 3991TIP3    H233389   5.034   2.242  13.445  1.1652  2.3515  2.5917
 3992TIP3   OH233390   5.613   3.832   1.102 -0.0846 -0.3217  0.1842
 3992TIP3    H133391   5.663   3.776   1.043 -0.9986 -0.5839 -0.3457
 3992TIP3    H233392   5.639   3.921   1.078 -0.6120 -0.4175 -0.7654
 3993TIP3   OH233393   4.201   2.610  13.735 -0.1723  0.0578 -0.4739
 3993TIP3    H133394   4.275   2.668  13.749 -0.5689  0.5902 -0.5960
 3993TIP3    H233395   4.147   2.619  13.814 -0.2443 -0.1275 -0.4995
 3994TIP3   OH233396   1.473   5.585   1.378  0.1353  0.3479 -0.4873
 3994TIP3    H133397   1.532   5.610   1.306 -1.3085  2.5003 -0.9719
 3994TIP3    H233398   1.388   5.621   1.353 -0.7644 -0.3153  1.5248
 3995TIP3   OH233399   6.008   3.400   1.367 -0.8197 -0.3136 -0.1743
 3995TIP3    H133400   6.064   3.379   1.442 -0.0275  0.1655 -0.6191
 3995TIP3    H233401   5.932   3.342   1.377  0.0170 -1.3884  0.1298
 3996TIP3   OH233402   1.430   3.417  16.283  0.2604 -0.4036  0.3263
 3996TIP3    H133403   1.426   3.437  16.190 -1.1337 -2.6504 -0.1446
 3996TIP3    H233404   1.524   3.420  16.304  0.4599  1.5733 -0.7873
 3997TIP3   OH233405   3.470   0.691   4.747  0.6182 -0.2210 -0.0149
 3997TIP3    H133406   3.510   0.618   4.698 -0.4730 -0.3488 -0.7294
 3997TIP3    H233407   3.527   0.765   4.730 -0.5229  0.0929 -2.6913
 3998TIP3   OH233408   0.675   4.565  13.469 -0.0890  0.1614  0.0110
 3998TIP3    H133409   0.642   4.480  13.443 -0.0286 -0.0044  0.4691
 3998TIP3    H233410   0.597   4.620  13.479 -0.0726  0.3870 -1.0758
 3999TIP3   OH233411   4.632   0.312   2.326  0.8069  1.0011 -0.5269
 3999TIP3    H133412   4.612   0.348   2.412  1.9039  1.3234 -0.4046
 3999TIP3    H233413   4.554   0.331   2.274  0.3090  1.1837  0.2716
 4000TIP3   OH233414   2.688   6.538   1.477  0.3541  0.1456  0.3764
 4000TIP3    H133415   2.618   6.474   1.467  1.2132 -0.8168  0.5531
 4000TIP3    H233416   2.768   6.492   1.451  1.2336  0.5948  2.2219
 4001TIP3   OH233417   2.231   4.600  14.794  0.5685 -0.2859 -0.6466
 4001TIP3    H133418   2.139   4.577  14.805  0.5457 -0.7540 -1.7082
 4001TIP3    H233419   2.261   4.544  14.722  1.6634 -0.0883 -0.3531
 4002TIP3   OH233420   6.593   6.385   5.467 -0.2687  0.2268  0.1099
 4002TIP3    H133421   6.608   6.455   5.404  1.9019 -0.0058  0.3430
 4002TIP3    H233422   6.587   6.429   5.552  3.1149  0.0108  0.5259
 4003TIP3   OH233423   1.882   0.254   5.633 -0.8901 -0.3552 -0.1739
 4003TIP3    H133424   1.847   0.263   5.544 -1.2448  1.0608  0.0992
 4003TIP3    H233425   1.806   0.266   5.690 -1.1246 -3.5874  0.3084
 4004TIP3   OH233426   3.360   2.255   6.258 -0.3260  0.1536  0.0537
 4004TIP3    H133427   3.385   2.282   6.346 -1.2129  0.1093  0.3169
 4004TIP3    H233428   3.283   2.200   6.270 -0.1218 -0.3057 -0.7056
 4005TIP3   OH233429   0.788   6.776   5.088 -0.4913 -0.6377  0.6086
 4005TIP3    H133430   0.819   6.843   5.150  0.3802 -1.7808  1.4373
 4005TIP3    H233431   0.859   6.712   5.086 -1.2628 -1.4637 -0.2911
 4006TIP3   OH233432   6.294   3.578  10.589  0.9408  0.6088  0.2274
 4006TIP3    H133433   6.221   3.611  10.537  0.3619  0.8986  1.2066
 4006TIP3    H233434   6.372   3.615  10.548  0.4811  1.0190 -0.2857
 4007TIP3   OH233435   3.635   6.685   3.628 -0.1681  0.0971 -0.1565
 4007TIP3    H133436   3.574   6.758   3.635 -1.7505 -1.0390 -1.4024
 4007TIP3    H233437   3.628   6.640   3.712  0.1157  0.8566  0.2738
 4008TIP3   OH233438   4.611   0.732  15.328  0.3186 -0.5283  0.3042
 4008TIP3    H133439   4.545   0.802  15.330  1.3379  0.4715 -0.7133
 4008TIP3    H233440   4.585   0.676  15.255  1.3018  0.5848 -0.9241
 4009TIP3   OH233441   6.000   5.775   1.531  0.7054  0.0819 -0.1897
 4009TIP3    H133442   6.071   5.800   1.471 -0.3779  0.2520 -1.4419
 4009TIP3    H233443   5.956   5.703   1.486  0.9204 -0.9418  1.2241
 4010TIP3   OH233444   2.681   4.606   3.541 -0.4095  0.5703 -0.1836
 4010TIP3    H133445   2.742   4.678   3.523 -0.3576  0.5013 -0.2871
 4010TIP3    H233446   2.598   4.649   3.557 -0.5043  0.6252 -0.8139
 4011TIP3   OH233447   2.988   0.775   1.322 -0.1957 -0.1941 -0.0089
 4011TIP3    H133448   2.940   0.696   1.299 -0.1760 -0.3770  0.5605
 4011TIP3    H233449   2.921   0.844   1.324 -0.2259 -0.2107 -0.4240
 4012TIP3   OH233450   0.684   1.631   0.750 -0.2570  0.0797 -0.2239
 4012TIP3    H133451   0.733   1.569   0.803  0.7825  0.5882 -0.5612
 4012TIP3    H233452   0.597   1.635   0.789  0.3703  0.1344  1.1710
 4013TIP3   OH233453   0.132   3.272  17.044  0.7363  0.2629 -0.0237
 4013TIP3    H133454   0.145   3.366  17.032 -0.0484  0.4325  0.3555
 4013TIP3    H233455   0.085   3.244  16.966 -0.8838  0.6064  0.7867
 4014TIP3   OH233456   4.585   6.778   1.178  0.0124  0.2246 -0.4653
 4014TIP3    H133457   4.645   6.849   1.201 -1.7219  1.1960  1.2644
 4014TIP3    H233458   4.499   6.820   1.174 -1.1043 -1.8423  1.0358
 4015TIP3   OH233459   6.311   6.424  15.103 -0.1306  0.1296  0.0008
 4015TIP3    H133460   6.352   6.417  15.190 -0.3878 -0.8096  0.0595
 4015TIP3    H233461   6.346   6.505  15.067 -0.5916  0.9157  1.2768
 4016TIP3   OH233462   6.362   3.723   0.848  0.2353  0.1745  0.2830
 4016TIP3    H133463   6.365   3.761   0.761  0.3373  2.7734  1.3726
 4016TIP3    H233464   6.270   3.729   0.874  0.6732  2.1426  1.4789
 4017TIP3   OH233465   6.324   2.240  16.895 -0.0902  0.4132 -0.1036
 4017TIP3    H133466   6.404   2.196  16.864 -1.2692 -0.0994 -2.5129
 4017TIP3    H233467   6.351   2.284  16.975  1.5363 -3.3967  1.5733
 4018TIP3   OH233468   5.068   2.325   1.997 -0.1767  0.1048 -0.0719
 4018TIP3    H133469   5.108   2.240   1.980  0.1831  0.4279 -0.8733
 4018TIP3    H233470   4.976   2.314   1.973 -0.6282 -0.6872  1.9264
 4019TIP3   OH233471   3.674   3.875   0.711  0.1889 -0.3483 -0.0844
 4019TIP3    H133472   3.656   3.923   0.792  5.9758 -1.0370  1.8816
 4019TIP3    H233473   3.684   3.942   0.645 -1.3934  0.4447  0.4551
 4020TIP3   OH233474   5.944   1.925  16.735 -0.1835  0.3196  0.5887
 4020TIP3    H133475   5.919   1.833  16.728  1.2334  0.1224 -2.5581
 4020TIP3    H233476   6.023   1.924  16.789  0.5413 -0.4470 -0.4811
 4021TIP3   OH233477   5.690   2.216   3.961 -0.7770 -0.9192 -0.3201
 4021TIP3    H133478   5.685   2.166   4.042 -0.3029 -0.6342 -0.1118
 4021TIP3    H233479   5.759   2.174   3.911 -0.1487 -0.2757 -0.0029
 4022TIP3   OH233480   5.780   6.738   0.051 -0.1112 -0.5665  0.2856
 4022TIP3    H133481   5.846   6.806   0.058  0.6661 -1.3194  0.4166
 4022TIP3    H233482   5.829   6.660   0.026 -1.0913 -0.9027 -0.6270
 4023TIP3   OH233483   3.249   5.951  14.976 -0.2450  0.4853  0.0496
 4023TIP3    H133484   3.211   5.995  14.900 -0.7547  0.8891  0.5337
 4023TIP3    H233485   3.242   5.858  14.957  0.2321  0.5973 -0.6869
 4024TIP3   OH233486   4.536   1.902  13.077 -0.6830  0.0470  0.3109
 4024TIP3    H133487   4.452   1.941  13.102 -0.3205  0.4340  0.9474
 4024TIP3    H233488   4.595   1.926  13.149  0.0404  0.0265 -0.2759
 4025TIP3   OH233489   3.410   5.341  12.376  0.5545  0.3106 -0.5400
 4025TIP3    H133490   3.382   5.310  12.290 -1.2358  0.8607 -0.1653
 4025TIP3    H233491   3.359   5.421  12.391  0.4336 -0.0813  1.2571
 4026TIP3   OH233492   1.272   5.836  13.109  0.0351  0.1244 -0.0289
 4026TIP3    H133493   1.242   5.876  13.190  3.6070  1.5065  0.7006
 4026TIP3    H233494   1.229   5.886  13.039 -2.1693 -0.3543  0.9457
 4027TIP3   OH233495   1.905   2.427  16.530 -0.8873  0.2959  0.4826
 4027TIP3    H133496   1.938   2.514  16.552 -0.0629  0.3452 -0.8805
 4027TIP3    H233497   1.957   2.367  16.584 -0.2829  0.5415  0.1805
 4028TIP3   OH233498   2.445   1.376   5.524 -0.1641 -0.0966  0.7835
 4028TIP3    H133499   2.368   1.329   5.492  0.1239 -1.1816  1.6568
 4028TIP3    H233500   2.440   1.462   5.482 -2.1521  0.0425  1.2455
 4029TIP3   OH233501   4.426   6.551  11.455 -0.4473 -0.0167  0.9617
 4029TIP3    H133502   4.465   6.500  11.385  1.4291 -0.2633  2.1628
 4029TIP3    H233503   4.429   6.641  11.424 -0.0811 -0.1778  0.5235
 4030TIP3   OH233504   0.112   2.605  12.490 -0.5863 -0.0623 -0.0220
 4030TIP3    H133505   0.052   2.532  12.506 -0.3000  0.1151  1.9127
 4030TIP3    H233506   0.156   2.581  12.408 -2.1607 -0.9310 -0.6425
 4031TIP3   OH233507   5.775   5.736  12.670 -0.2061  0.0182 -1.0217
 4031TIP3    H133508   5.835   5.678  12.716  1.6684  1.4317 -1.6052
 4031TIP3    H233509   5.696   5.736  12.724  1.5962  0.9207  1.7726
 4032TIP3   OH233510   2.600   1.505  13.347 -0.3703  0.1879 -0.1823
 4032TIP3    H133511   2.626   1.431  13.292 -3.0248 -0.6503 -0.3736
 4032TIP3    H233512   2.642   1.488  13.432 -0.8043 -1.4382 -0.2812
 4033TIP3   OH233513   2.215   4.824   1.392  0.3802  0.6749  0.7822
 4033TIP3    H133514   2.266   4.860   1.464 -1.3514  0.4436  2.1395
 4033TIP3    H233515   2.143   4.777   1.434  0.2983 -0.9026 -1.0469
 4034TIP3   OH233516   6.013   5.500   1.410 -0.0510 -0.3203 -0.2147
 4034TIP3    H133517   6.016   5.404   1.409 -2.2392 -0.4397  0.6942
 4034TIP3    H233518   6.080   5.526   1.473  0.5076 -1.2567 -0.4101
 4035TIP3   OH233519   4.473   5.543   6.239  0.0129 -0.4008 -0.1790
 4035TIP3    H133520   4.468   5.449   6.256 -0.5350 -0.2829  0.3805
 4035TIP3    H233521   4.545   5.554   6.177 -1.9579 -1.5204 -2.7574
 4036TIP3   OH233522   6.389   0.321  15.065  0.3103 -0.1624  0.1874
 4036TIP3    H133523   6.420   0.262  14.996  1.5726  0.9064 -0.1952
 4036TIP3    H233524   6.310   0.280  15.099  0.1503 -1.1295 -1.3249
 4037TIP3   OH233525   2.005   5.083  12.512 -0.2794  0.4809 -0.3738
 4037TIP3    H133526   2.082   5.044  12.556 -1.1823 -0.7262  0.1763
 4037TIP3    H233527   1.978   5.016  12.449 -0.2600  1.3433 -1.3023
 4038TIP3   OH233528   3.195   4.223  11.823  0.1932 -0.0280  0.3356
 4038TIP3    H133529   3.109   4.218  11.782  0.5855 -3.2267 -0.2273
 4038TIP3    H233530   3.180   4.271  11.905 -1.7117  1.1603 -0.6625
 4039TIP3   OH233531   6.210   4.969   2.469 -0.3184 -0.4002 -0.2386
 4039TIP3    H133532   6.121   4.960   2.435  0.2244 -0.5028 -1.6487
 4039TIP3    H233533   6.231   5.061   2.456  0.5997 -0.8401 -1.9811
 4040TIP3   OH233534   2.253   6.559  12.298 -0.7189 -0.0294 -0.9980
 4040TIP3    H133535   2.234   6.647  12.266 -1.1936  0.5329  0.7865
 4040TIP3    H233536   2.174   6.533  12.346  0.8017  0.0428  1.6114
 4041TIP3   OH233537   3.954   5.962  10.632  0.4018 -0.5785 -0.1354
 4041TIP3    H133538   3.968   5.886  10.575 -0.9793 -1.4685  0.6849
 4041TIP3    H233539   3.954   5.927  10.721 -0.4246  0.3475  0.2483
 4042TIP3   OH233540   5.165   1.519   4.182 -0.0722 -0.1971  0.2017
 4042TIP3    H133541   5.170   1.447   4.245  2.6176  0.1633  0.4639
 4042TIP3    H233542   5.113   1.586   4.226  0.8858 -0.3707  1.6147
 4043TIP3   OH233543   5.797   2.169   1.974 -0.1704  0.7421  0.2571
 4043TIP3    H133544   5.843   2.149   2.055  0.4931  0.1144 -0.2651
 4043TIP3    H233545   5.856   2.139   1.905 -0.1467  2.4922 -0.5027
 4044TIP3   OH233546   0.326   4.825   2.599 -0.3960 -0.6281  0.1640
 4044TIP3    H133547   0.273   4.871   2.534  0.1661 -1.9073 -1.2330
 4044TIP3    H233548   0.344   4.890   2.667 -2.8019  0.1392  0.1088
 4045TIP3   OH233549   6.353   3.319  14.089 -0.5398 -0.1672 -0.5350
 4045TIP3    H133550   6.344   3.317  13.994 -1.1769 -2.8586 -0.4593
 4045TIP3    H233551   6.446   3.305  14.105 -0.7405 -1.7193 -0.7218
 4046TIP3   OH233552   3.240   1.922   2.134 -0.3643  0.2504 -0.0752
 4046TIP3    H133553   3.240   2.011   2.099 -0.3893  0.7365  1.1309
 4046TIP3    H233554   3.329   1.910   2.169  0.3212 -0.9748 -2.1188
 4047TIP3   OH233555   6.649   3.884  15.454  0.2524  0.7616 -0.1310
 4047TIP3    H133556   6.644   3.823  15.381  0.2307  0.0245  0.4837
 4047TIP3    H233557   6.632   3.831  15.532 -0.4140  1.6612  0.3537
 4048TIP3   OH233558   2.785   3.680   6.285  0.5746  0.2484 -0.1569
 4048TIP3    H133559   2.837   3.627   6.345 -0.3258  0.4247  0.8027
 4048TIP3    H233560   2.832   3.763   6.277 -0.4182  1.0757  2.0934
 4049TIP3   OH233561   2.822   2.528   4.903  0.6384  0.2067  0.1498
 4049TIP3    H133562   2.785   2.559   4.986 -0.7840 -0.2519 -0.2955
 4049TIP3    H233563   2.757   2.554   4.837  1.3522 -0.1921 -0.7182
 4050TIP3   OH233564   0.864   6.573   1.253 -0.1722  0.6095  0.2734
 4050TIP3    H133565   0.808   6.526   1.314  1.5937 -1.3408  0.4621
 4050TIP3    H233566   0.837   6.542   1.166 -0.3737  0.8088  0.2629
 4051TIP3   OH233567   5.327   3.452  14.166  0.1158 -0.8735 -0.4571
 4051TIP3    H133568   5.245   3.475  14.122 -0.6044 -1.1065  0.7335
 4051TIP3    H233569   5.309   3.466  14.259  1.2434 -1.4880 -0.1391
 4052TIP3   OH233570   4.185   4.863   5.471 -0.5400 -0.1038 -0.1915
 4052TIP3    H133571   4.234   4.934   5.428  0.6616 -1.0278 -0.3751
 4052TIP3    H233572   4.248   4.792   5.478 -1.0783 -0.3848  2.0460
 4053TIP3   OH233573   4.462   3.091   4.913  0.2269  0.2586 -0.5511
 4053TIP3    H133574   4.370   3.065   4.904 -0.2725  1.9673 -0.4377
 4053TIP3    H233575   4.461   3.186   4.905  1.9536  0.3119 -0.2262
 4054TIP3   OH233576   1.429   2.981  17.132 -0.2206  0.2842  0.6985
 4054TIP3    H133577   1.420   3.044  17.061 -0.8978 -0.1996  0.3512
 4054TIP3    H233578   1.524   2.969  17.142 -0.1299 -0.0876 -0.5283
 4055TIP3   OH233579   3.220   4.375  11.383  0.4367  0.0612 -0.6329
 4055TIP3    H133580   3.248   4.297  11.431 -0.6185  1.1805  1.8604
 4055TIP3    H233581   3.298   4.403  11.335  1.7613 -0.6031  1.0991
 4056TIP3   OH233582   4.717   6.276   5.356 -0.6634 -0.0092 -0.1327
 4056TIP3    H133583   4.788   6.219   5.383 -0.2169  0.6601  0.1101
 4056TIP3    H233584   4.741   6.363   5.389 -0.7892  0.5444 -1.4666
 4057TIP3   OH233585   1.016   1.447  11.614  0.2933 -0.0027 -0.5543
 4057TIP3    H133586   0.924   1.461  11.591 -0.1387  0.8663  1.5698
 4057TIP3    H233587   1.058   1.532  11.600  1.0857 -0.7286 -2.7805
 4058TIP3   OH233588   3.632   2.682  16.801  0.5703  0.2877 -0.0099
 4058TIP3    H133589   3.703   2.685  16.737  0.1667  0.8394 -0.4389
 4058TIP3    H233590   3.670   2.639  16.878  0.7772 -1.3353 -0.9784
 4059TIP3   OH233591   6.274   0.552   5.184 -0.3161  0.5487  0.3472
 4059TIP3    H133592   6.356   0.521   5.223  0.6459  3.8155  1.1231
 4059TIP3    H233593   6.217   0.569   5.259 -1.2754 -0.5227 -0.1313
 4060TIP3   OH233594   0.585   0.602   5.221 -0.7374  0.6245 -1.0830
 4060TIP3    H133595   0.539   0.540   5.278  0.8913  0.6289  0.2559
 4060TIP3    H233596   0.579   0.563   5.134 -0.1347 -1.1860 -0.3338
 4061TIP3   OH233597   1.172   3.147   3.029 -0.0706  0.1087 -0.0479
 4061TIP3    H133598   1.224   3.219   3.065  0.0837  0.0811 -0.2160
 4061TIP3    H233599   1.092   3.188   2.996 -0.1924  0.1413  0.2826
 4062TIP3   OH233600   6.559   2.041   5.519 -0.4137 -0.1497  0.0318
 4062TIP3    H133601   6.613   2.021   5.442  0.2621  0.7917  0.2485
 4062TIP3    H233602   6.619   2.031   5.592 -0.0938  2.4641  0.1623
 4063TIP3   OH233603   5.128   6.781   2.870 -0.5226 -0.4543 -0.6693
 4063TIP3    H133604   5.169   6.781   2.957  0.7274 -0.3336 -1.2527
 4063TIP3    H233605   5.129   6.873   2.843 -1.3623 -0.4257 -0.6014
 4064TIP3   OH233606   2.236   2.732  12.094  0.4885  0.4300 -0.3806
 4064TIP3    H133607   2.298   2.776  12.153 -1.3401  0.8919  1.2713
 4064TIP3    H233608   2.184   2.804  12.057 -0.3082 -0.0828 -0.2654
 4065TIP3   OH233609   1.030   4.501  12.629  0.4645  0.6136  0.2956
 4065TIP3    H133610   1.108   4.474  12.677  0.5335 -0.3878 -0.3661
 4065TIP3    H233611   1.021   4.436  12.560 -0.4425  1.2417 -0.1847
 4066TIP3   OH233612   4.234   3.728   4.950 -0.5536 -0.0755 -0.3242
 4066TIP3    H133613   4.197   3.804   4.995 -0.9089  0.1599 -1.0225
 4066TIP3    H233614   4.275   3.677   5.020  0.1025  0.9978  0.0901
 4067TIP3   OH233615   0.186   3.548  14.433 -0.8157 -0.5842 -0.2932
 4067TIP3    H133616   0.220   3.632  14.403 -1.0680  0.1513  1.4133
 4067TIP3    H233617   0.172   3.560  14.527 -0.1583 -2.7700  0.1083
 4068TIP3   OH233618   0.306   3.351  15.032  0.3936  0.1624  0.2135
 4068TIP3    H133619   0.300   3.290  14.959 -0.8501 -0.1902  0.6083
 4068TIP3    H233620   0.267   3.432  14.999 -1.0359 -0.2869  0.7973
 4069TIP3   OH233621   5.767   1.845   0.232 -0.6408 -0.9801 -0.1187
 4069TIP3    H133622   5.856   1.815   0.251 -0.3360  0.2554  0.4727
 4069TIP3    H233623   5.716   1.821   0.309 -0.4575 -0.2431  0.2359
 4070TIP3   OH233624   3.834   3.433  14.266  0.0166 -0.1220 -0.3882
 4070TIP3    H133625   3.789   3.515  14.246 -0.0302 -0.1196 -0.2736
 4070TIP3    H233626   3.844   3.434  14.361  0.0477 -0.2310 -0.3895
 4071TIP3   OH233627   5.906   3.651  16.296 -0.4695 -0.1524  0.1633
 4071TIP3    H133628   5.895   3.636  16.390 -0.1539  0.2393  0.2663
 4071TIP3    H233629   5.822   3.627  16.258 -0.5675 -0.4092  0.5357
 4072TIP3   OH233630   5.828   4.261   5.410  0.2104  0.0900 -0.6900
 4072TIP3    H133631   5.793   4.211   5.483 -0.2375  1.8792  0.3323
 4072TIP3    H233632   5.770   4.336   5.401 -0.0755 -0.3958 -3.2639
 4073TIP3   OH233633   1.001   5.893  15.128  0.1440  0.2622  0.9874
 4073TIP3    H133634   0.958   5.920  15.209 -0.1997  0.6469  0.6792
 4073TIP3    H233635   0.935   5.841  15.081  0.4830 -0.3109  1.1461
 4074TIP3   OH233636   2.849   3.784  11.755 -0.7349  0.4853 -0.6139
 4074TIP3    H133637   2.791   3.788  11.679 -0.3762  0.7387 -0.8789
 4074TIP3    H233638   2.905   3.708  11.737  0.7653  1.8007 -1.6421
 4075TIP3   OH233639   3.594   4.837  12.503  0.0463  0.1205  0.3776
 4075TIP3    H133640   3.684   4.869  12.500  0.1794 -0.1385  1.5320
 4075TIP3    H233641   3.568   4.829  12.411  0.7412  1.4715  0.0543
 4076TIP3   OH233642   4.132   6.207  15.117  0.0510 -0.1708 -0.2963
 4076TIP3    H133643   4.227   6.208  15.126  0.0955  0.2398 -0.7727
 4076TIP3    H233644   4.101   6.277  15.175  0.0535 -0.1704 -0.2949
 4077TIP3   OH233645   3.545   5.067  17.052  0.3506  0.4535  0.1569
 4077TIP3    H133646   3.459   5.045  17.088  1.0589  1.0821  2.2896
 4077TIP3    H233647   3.533   5.155  17.015 -0.5451 -0.4512 -1.7650
 4078TIP3   OH233648   5.306   5.870  12.917 -0.3038 -0.1899  0.7337
 4078TIP3    H133649   5.313   5.775  12.910 -0.4773 -0.2208  0.9743
 4078TIP3    H233650   5.363   5.893  12.991 -1.2963 -0.2481  1.5314
 4079TIP3   OH233651   0.242   3.820  15.611  0.1863  0.3696 -0.1875
 4079TIP3    H133652   0.323   3.775  15.637  0.3928  0.3256 -0.8932
 4079TIP3    H233653   0.208   3.857  15.692  0.8399  0.2570  0.1432
 4080TIP3   OH233654   0.784   6.597  12.717 -0.1955  0.0535  0.7397
 4080TIP3    H133655   0.716   6.646  12.670  1.3549  0.2047 -1.4463
 4080TIP3    H233656   0.736   6.538  12.775 -2.2694 -1.2440 -2.1591
 4081TIP3   OH233657   6.523   5.294   1.931 -0.0560 -0.0615 -0.3630
 4081TIP3    H133658   6.479   5.364   1.979  0.2031 -0.0570 -0.1314
 4081TIP3    H233659   6.481   5.294   1.845  0.2209  0.6404 -0.5009
 4082TIP3   OH233660   1.764   3.021  13.300  0.1305  0.0457 -0.7126
 4082TIP3    H133661   1.750   3.037  13.207  0.0582 -0.2405 -0.7541
 4082TIP3    H233662   1.681   2.984  13.330  0.5630 -1.0096 -0.7994
 4083TIP3   OH233663   5.077   3.474   0.645  0.4023  0.0051  0.1288
 4083TIP3    H133664   5.159   3.426   0.639 -0.1509 -0.9047 -0.1046
 4083TIP3    H233665   5.048   3.484   0.554  0.0405 -0.0222  0.2434
 4084TIP3   OH233666   3.604   0.313  12.639  0.0251 -0.0831 -0.6862
 4084TIP3    H133667   3.637   0.272  12.719 -0.0809  1.0737 -0.0436
 4084TIP3    H233668   3.682   0.339  12.591  0.0995  1.4265  0.1991
 4085TIP3   OH233669   2.783   3.075  11.899  0.2045 -0.3989  0.5598
 4085TIP3    H133670   2.775   3.061  11.994  0.0630 -1.7893  0.3609
 4085TIP3    H233671   2.859   3.022  11.875  1.2568  1.2714  0.1513
 4086TIP3   OH233672   4.916   2.602  11.398 -0.2290  0.2562 -0.2659
 4086TIP3    H133673   4.838   2.566  11.442  0.2117  1.1956  1.3335
 4086TIP3    H233674   4.945   2.532  11.339 -0.6965 -1.1420  1.1316
 4087TIP3   OH233675   1.079   6.137   5.824  0.4030 -0.3284 -0.1872
 4087TIP3    H133676   1.159   6.144   5.772  0.7419 -0.7130  0.2865
 4087TIP3    H233677   1.096   6.066   5.885  0.1547  0.3825  0.7198
 4088TIP3   OH233678   2.571   0.622  16.887  0.0995  0.4956  0.4948
 4088TIP3    H133679   2.624   0.543  16.876 -0.2369  0.5032 -1.3202
 4088TIP3    H233680   2.589   0.674  16.808 -2.1099  0.7962  0.1731
 4089TIP3   OH233681   4.270   2.481  16.082  0.0307 -0.3910  0.0748
 4089TIP3    H133682   4.344   2.513  16.133 -0.7171 -2.3373  2.4551
 4089TIP3    H233683   4.308   2.459  15.996  2.1368 -0.9015  1.1014
 4090TIP3   OH233684   6.659   5.142  12.476 -0.7264 -0.1433  0.2954
 4090TIP3    H133685   6.679   5.228  12.439  0.2366 -1.0656 -1.3737
 4090TIP3    H233686   6.730   5.085  12.445 -1.3953 -1.5712  1.3077
 4091TIP3   OH233687   3.127   1.353   2.429 -0.1487 -0.4531  0.4979
 4091TIP3    H133688   3.216   1.358   2.395 -0.1814 -0.7482  0.3618
 4091TIP3    H233689   3.078   1.308   2.360 -1.1978  2.8838 -0.9986
 4092TIP3   OH233690   0.268   0.305  15.580  0.1102  0.7141  0.2185
 4092TIP3    H133691   0.329   0.331  15.511 -0.8181  0.1240 -0.8424
 4092TIP3    H233692   0.288   0.213  15.596 -0.1865  0.6427  0.1897
 4093TIP3   OH233693   6.260   6.432   2.220 -0.2023 -0.5812  0.5633
 4093TIP3    H133694   6.176   6.442   2.263 -0.9424 -1.4028 -0.6655
 4093TIP3    H233695   6.268   6.338   2.203 -0.1083 -0.2392 -1.3998
 4094TIP3   OH233696   2.856   3.367  16.449  0.1573 -0.3229  1.4658
 4094TIP3    H133697   2.930   3.426  16.460  1.8218 -2.3890  1.6349
 4094TIP3    H233698   2.834   3.373  16.356  2.3565 -1.7642  0.8213
 4095TIP3   OH233699   2.512   0.978   2.197 -0.0226  0.0287  0.5899
 4095TIP3    H133700   2.548   0.908   2.251 -0.4595 -2.6917 -2.5119
 4095TIP3    H233701   2.454   0.934   2.135  0.9528  2.8916 -2.5495
 4096TIP3   OH233702   5.534   0.045   1.733  0.4149 -0.3621 -0.3983
 4096TIP3    H133703   5.466   0.034   1.667 -0.3099  0.6335  0.1798
 4096TIP3    H233704   5.488   0.074   1.811  1.5224  0.4313 -0.0259
 4097TIP3   OH233705   0.879   3.240   5.353  0.1023 -0.0860  0.0537
 4097TIP3    H133706   0.900   3.157   5.310 -1.6788 -0.8498  0.6329
 4097TIP3    H233707   0.963   3.287   5.354  0.8976 -1.4123 -1.2476
 4098TIP3   OH233708   3.238   3.892  12.655  0.3292  0.1518 -0.1552
 4098TIP3    H133709   3.287   3.974  12.664  2.2369 -0.9024 -0.6605
 4098TIP3    H233710   3.168   3.912  12.593 -1.3009  2.2806  2.2473
 4099TIP3   OH233711   2.647   2.339  13.202  0.1657 -0.7956 -0.3209
 4099TIP3    H133712   2.661   2.408  13.137  1.0851  0.1278  0.8372
 4099TIP3    H233713   2.584   2.376  13.263  2.4935 -0.0029  1.6723
 4100TIP3   OH233714   3.177   3.433   1.788  0.0185 -0.3199  0.3198
 4100TIP3    H133715   3.207   3.373   1.719  0.1936 -0.6402  0.6761
 4100TIP3    H233716   3.234   3.510   1.778  0.6451 -0.7351  0.6911
 4101TIP3   OH233717   6.334   5.272  10.334  0.9409  0.0829  0.4308
 4101TIP3    H133718   6.391   5.269  10.257  1.2118  1.1786  0.5757
 4101TIP3    H233719   6.289   5.356  10.326 -2.6586 -1.9005 -1.0872
 4102TIP3   OH233720   0.880   6.575   0.747 -0.3299 -0.2746  0.1866
 4102TIP3    H133721   0.927   6.647   0.788  0.4129 -0.7897  0.2566
 4102TIP3    H233722   0.795   6.612   0.722  0.8398  1.2205 -1.7585
 4103TIP3   OH233723   2.374   3.120   3.672 -0.7115 -0.2256 -0.6502
 4103TIP3    H133724   2.386   3.198   3.726 -2.3081 -0.1617 -0.3755
 4103TIP3    H233725   2.379   3.153   3.582 -0.3303  0.0323 -0.5350
 4104TIP3   OH233726   0.682   3.638  16.162  0.1736 -0.3598  0.1565
 4104TIP3    H133727   0.692   3.598  16.075  0.7143  0.3671 -0.1145
 4104TIP3    H233728   0.674   3.563  16.222  0.6419 -0.8660 -0.4134
 4105TIP3   OH233729   0.611   5.699   6.322  0.7139 -0.5748  0.0803
 4105TIP3    H133730   0.613   5.661   6.410 -1.3147  3.0356  1.8292
 4105TIP3    H233731   0.518   5.699   6.298  1.1251 -0.4527 -1.5713
 4106TIP3   OH233732   4.334   1.331  11.963 -0.1756  0.1792  0.4541
 4106TIP3    H133733   4.391   1.273  11.912 -1.9954 -0.5304 -0.7960
 4106TIP3    H233734   4.318   1.284  12.045 -0.1793 -0.2790  0.1874
 4107TIP3   OH233735   2.304   1.873   4.518  0.4766 -0.3917 -0.2208
 4107TIP3    H133736   2.369   1.933   4.483 -0.3411  1.0822  0.7075
 4107TIP3    H233737   2.221   1.901   4.479 -0.0949 -0.1546  1.1273
 4108TIP3   OH233738   4.210   6.154  14.204 -0.2709 -0.6202 -0.1647
 4108TIP3    H133739   4.235   6.076  14.155  0.7693 -0.6574  0.4136
 4108TIP3    H233740   4.289   6.208  14.206 -1.1557  0.7466 -1.0868
 4109TIP3   OH233741   0.299   3.831  12.219  0.2548  0.9495 -0.0127
 4109TIP3    H133742   0.207   3.816  12.238  0.6806 -1.9873 -0.0064
 4109TIP3    H233743   0.303   3.835  12.123  0.1717  0.5990 -0.0326
 4110TIP3   OH233744   5.591   5.552   2.971  0.1320 -0.1428  0.4637
 4110TIP3    H133745   5.552   5.481   2.919 -0.7896  0.6391  0.0533
 4110TIP3    H233746   5.615   5.618   2.906  0.7294  0.0395  0.8682
 4111TIP3   OH233747   5.586   2.210   4.914  0.1130 -0.3043  0.0814
 4111TIP3    H133748   5.500   2.215   4.872 -0.5467 -0.4264  1.3822
 4111TIP3    H233749   5.623   2.298   4.903 -0.0284 -0.3477 -0.7729
 4112TIP3   OH233750   3.666   4.129  15.457  0.4837  1.0182 -0.0335
 4112TIP3    H133751   3.687   4.218  15.430 -1.6774  1.8362  0.9023
 4112TIP3    H233752   3.595   4.102  15.399  2.2731 -0.7778 -1.4704
 4113TIP3   OH233753   4.728   0.859  14.841 -0.2058  0.1065  0.3060
 4113TIP3    H133754   4.702   0.771  14.813 -0.5735  0.0615  0.7839
 4113TIP3    H233755   4.732   0.910  14.760  0.7106 -0.5255 -0.0670
 4114TIP3   OH233756   3.553   5.279  14.424  0.0696 -0.0641  0.3376
 4114TIP3    H133757   3.628   5.255  14.479  0.7961 -0.5880 -0.8487
 4114TIP3    H233758   3.559   5.219  14.349 -1.0464  0.4725 -0.1830
 4115TIP3   OH233759   3.581   5.618  12.515  0.0768 -0.0907  0.3506
 4115TIP3    H133760   3.488   5.598  12.524  0.0594  0.7322  2.2351
 4115TIP3    H233761   3.603   5.665  12.596  1.6234  1.6341 -1.0370
 4116TIP3   OH233762   2.077   5.297   3.389 -0.1296 -0.0782  0.2917
 4116TIP3    H133763   2.026   5.249   3.324 -0.7361  1.9478 -0.7321
 4116TIP3    H233764   2.012   5.328   3.452  0.2072 -0.0688  0.6388
 4117TIP3   OH233765   0.691   1.869  16.854 -0.0399  0.3674  0.3926
 4117TIP3    H133766   0.642   1.918  16.920 -0.1904 -0.2855  0.7727
 4117TIP3    H233767   0.641   1.880  16.773  0.9053  2.3511  0.0603
 4118TIP3   OH233768   3.474   4.648  13.560  0.3069 -0.1084 -0.1030
 4118TIP3    H133769   3.532   4.675  13.632  0.8087  0.5486 -0.7513
 4118TIP3    H233770   3.459   4.728  13.510 -1.2132 -0.2519  0.0744
 4119TIP3   OH233771   4.494   1.257  14.587  0.2416  0.3443 -0.1796
 4119TIP3    H133772   4.487   1.328  14.523  1.7527 -0.2065 -0.9770
 4119TIP3    H233773   4.418   1.201  14.569 -0.7583  1.5496  0.2231
 4120TIP3   OH233774   3.212   0.003  14.583 -0.1156 -0.3440  0.2495
 4120TIP3    H133775   3.128  -0.019  14.543  0.1745 -1.0677  0.0275
 4120TIP3    H233776   3.190   0.064  14.653 -0.7871 -0.2444 -0.0485
 4121TIP3   OH233777   3.359   3.906  14.339 -0.3055 -0.6438 -0.5507
 4121TIP3    H133778   3.449   3.931  14.359 -0.8122 -0.0329  1.0607
 4121TIP3    H233779   3.352   3.913  14.244  1.4279 -0.9791 -0.7036
 4122TIP3   OH233780   0.771   5.005   3.065  0.1479  0.5275 -1.2865
 4122TIP3    H133781   0.806   5.050   3.142  0.6448  1.4327 -2.0412
 4122TIP3    H233782   0.699   5.060   3.035 -2.8067 -1.9457  0.9932
 4123TIP3   OH233783   1.191   5.542  12.589 -0.2862 -0.2001  0.4809
 4123TIP3    H133784   1.103   5.549  12.625 -0.2584 -0.3510  0.5797
 4123TIP3    H233785   1.208   5.448  12.587 -0.5879 -0.2409 -0.6564
 4124TIP3   OH233786   1.214   4.056  16.049 -0.4847 -0.0296  0.4248
 4124TIP3    H133787   1.151   4.076  16.118 -0.5182  2.1632 -0.2094
 4124TIP3    H233788   1.238   3.965  16.064 -2.8578 -0.5329  1.4472
 4125TIP3   OH233789   5.374   0.243   5.235 -0.5384  0.2698 -0.2922
 4125TIP3    H133790   5.423   0.166   5.265 -2.1117 -1.3204 -1.6983
 4125TIP3    H233791   5.364   0.298   5.313  2.4177  0.0750  0.2817
 4126TIP3   OH233792   4.028   2.190   4.432 -0.3002 -0.7580 -0.0815
 4126TIP3    H133793   3.954   2.243   4.403 -1.2672 -2.4592 -0.7598
 4126TIP3    H233794   4.105   2.237   4.400 -1.1638 -0.1146 -1.2304
 4127TIP3   OH233795   5.398   6.707   1.529 -0.2267 -0.2049  0.0299
 4127TIP3    H133796   5.446   6.627   1.551  0.1862  0.3686  1.3227
 4127TIP3    H233797   5.457   6.756   1.473  0.0762 -0.2060  0.3455
 4128TIP3   OH233798   1.781   0.162   4.155  0.5737 -0.6350  0.1129
 4128TIP3    H133799   1.875   0.174   4.150  0.5076 -0.2830 -0.2455
 4128TIP3    H233800   1.765   0.077   4.113  0.7505 -0.7849  0.3488
 4129TIP3   OH233801   1.196   3.073   2.535 -0.2425 -0.2352  0.0231
 4129TIP3    H133802   1.280   3.091   2.493  0.2215  1.3695  1.5800
 4129TIP3    H233803   1.134   3.130   2.491 -0.0347  0.3803  0.5215
 4130TIP3   OH233804   1.857   5.563   4.989 -0.4271 -0.4591  0.5506
 4130TIP3    H133805   1.934   5.594   4.942 -1.3441 -0.5677 -1.0598
 4130TIP3    H233806   1.881   5.568   5.081  0.7541  1.4750  0.1506
 4131TIP3   OH233807   4.814   2.508  14.812  0.2008 -0.3928 -0.7619
 4131TIP3    H133808   4.776   2.424  14.787 -2.3941  0.5276 -0.0568
 4131TIP3    H233809   4.877   2.527  14.743 -2.5240 -0.7585 -3.4933
 4132TIP3   OH233810   5.323   1.259   0.409 -0.2558  0.4690  0.4586
 4132TIP3    H133811   5.235   1.294   0.393  0.5407  1.9493 -0.7755
 4132TIP3    H233812   5.317   1.219   0.495 -2.6393 -1.0525 -0.3553
 4133TIP3   OH233813   0.198   1.802   2.967  0.0784 -0.0193  0.8183
 4133TIP3    H133814   0.162   1.726   2.923  1.4938 -1.2599  1.7498
 4133TIP3    H233815   0.288   1.808   2.935 -0.7029  2.7010 -1.0583
 4134TIP3   OH233816   1.621   6.568   2.195  0.1650 -0.8433 -0.0541
 4134TIP3    H133817   1.683   6.544   2.125 -0.4057 -0.2107 -0.7907
 4134TIP3    H233818   1.675   6.615   2.259  0.7305 -1.5921  0.0317
 4135TIP3   OH233819   5.473   2.386   5.379  0.2259  0.6013 -0.4585
 4135TIP3    H133820   5.488   2.298   5.345 -1.9608  0.5484 -1.3923
 4135TIP3    H233821   5.421   2.429   5.311 -3.0547  0.9802  2.1578
 4136TIP3   OH233822   4.666   4.986   4.508 -0.5194 -0.2154 -0.6741
 4136TIP3    H133823   4.648   5.028   4.423  1.8133  0.6477 -0.7826
 4136TIP3    H233824   4.762   4.982   4.512 -0.6513 -2.7842  0.7115
 4137TIP3   OH233825   5.888   4.727   0.012 -0.0042  0.8892 -0.1068
 4137TIP3    H133826   5.906   4.726   0.106 -1.3610  0.0637  0.1486
 4137TIP3    H233827   5.837   4.806  -0.002 -2.2919 -0.4634  0.3424
 4138TIP3   OH233828   3.824   2.703   2.549 -0.0125  0.2384  0.3899
 4138TIP3    H133829   3.775   2.764   2.604  1.2003  0.5277  1.1563
 4138TIP3    H233830   3.786   2.617   2.570 -2.1615  0.7533 -1.1683
 4139TIP3   OH233831   1.346   2.100   2.015 -0.4336  0.5450 -0.5290
 4139TIP3    H133832   1.260   2.064   2.036 -0.6065  2.2388  1.8557
 4139TIP3    H233833   1.392   2.104   2.099  1.0514  2.0249 -1.3751
 4140TIP3   OH233834   1.776   3.514  17.067  0.3274  0.1106 -0.0013
 4140TIP3    H133835   1.688   3.542  17.041  0.6440  0.6762 -0.4751
 4140TIP3    H233836   1.820   3.595  17.093  0.9757 -0.0712 -0.5418
 4141TIP3   OH233837   0.152   6.624  12.165  0.0446 -0.0702  0.0475
 4141TIP3    H133838   0.163   6.694  12.101  0.9854  0.2283  0.5361
 4141TIP3    H233839   0.057   6.616  12.175 -0.0675  1.1151 -0.0181
 4142TIP3   OH233840   6.341   1.828  13.585 -0.2769  0.4779  0.4350
 4142TIP3    H133841   6.426   1.869  13.601  0.8046 -0.7037 -2.0711
 4142TIP3    H233842   6.341   1.750  13.640  1.0866 -0.5488 -0.9888
 4143TIP3   OH233843   2.312   0.684   4.215 -0.2698  0.1507  0.3450
 4143TIP3    H133844   2.295   0.774   4.244 -1.7422  0.1289 -0.4277
 4143TIP3    H233845   2.357   0.695   4.131  2.5388  0.1880  1.7936
 4144TIP3   OH233846   4.554   4.421  12.013 -0.4799 -0.7263  0.1679
 4144TIP3    H133847   4.608   4.427  11.934 -0.8247  0.2243  0.0012
 4144TIP3    H233848   4.464   4.434  11.981 -0.3313  3.2151  1.1721
 4145TIP3   OH233849   4.537   2.942  13.207 -0.2073 -0.6944  0.2228
 4145TIP3    H133850   4.552   2.857  13.165 -1.9533 -0.1254 -1.6584
 4145TIP3    H233851   4.443   2.958  13.195  0.7525  3.3522 -3.0825
 4146TIP3   OH233852   6.309   0.369  14.609 -1.0091 -0.4800  0.0099
 4146TIP3    H133853   6.282   0.419  14.686  2.1000  0.5357  0.4862
 4146TIP3    H233854   6.298   0.430  14.535  0.3123  0.0682  0.2552
 4147TIP3   OH233855   6.135   0.223   1.454  0.4874 -0.0513 -0.6362
 4147TIP3    H133856   6.114   0.277   1.530  3.9149  0.7984 -0.1903
 4147TIP3    H233857   6.055   0.223   1.401 -0.7524  2.4743  1.1293
 4148TIP3   OH233858   1.678   5.840  10.900 -0.1092  0.2125  0.1744
 4148TIP3    H133859   1.695   5.863  10.992 -0.5574 -1.1909  0.6285
 4148TIP3    H233860   1.763   5.848  10.857  0.4492 -0.6896  1.0722
 4149TIP3   OH233861   4.391   0.759  13.917  0.1428  0.5136  0.2889
 4149TIP3    H133862   4.304   0.784  13.887  0.4955  0.7751 -0.5114
 4149TIP3    H233863   4.415   0.684  13.863  1.8025  2.5205 -1.8097
 4150TIP3   OH233864   3.158   0.356  11.735 -0.0433  0.2171  0.1723
 4150TIP3    H133865   3.168   0.277  11.681 -0.7512 -0.3412  0.8460
 4150TIP3    H233866   3.248   0.382  11.756  0.1941 -0.3917 -0.0870
 4151TIP3   OH233867   2.137   2.020  11.368 -0.6867  0.0880  0.5224
 4151TIP3    H133868   2.202   1.988  11.431  0.1515  1.6855  0.4958
 4151TIP3    H233869   2.072   2.065  11.422 -0.0707  1.2848  0.2968
 4152TIP3   OH233870   2.225   1.898  16.694 -0.0409  0.2170 -0.0949
 4152TIP3    H133871   2.216   1.933  16.605 -0.0744  0.0656 -0.1539
 4152TIP3    H233872   2.254   1.972  16.747 -0.2083  0.3543 -0.1953
 4153TIP3   OH233873   1.066   6.091   3.835  0.2179 -0.3240  0.3775
 4153TIP3    H133874   0.993   6.133   3.789 -0.2224 -1.2251  0.2396
 4153TIP3    H233875   1.039   6.091   3.927 -0.3974 -1.5187  0.2088
 4154TIP3   OH233876   0.938   0.055  12.746 -0.1536 -0.3328  0.1742
 4154TIP3    H133877   0.896  -0.030  12.759  0.2947 -0.4284  0.9984
 4154TIP3    H233878   0.993   0.043  12.668  0.2519 -0.9332  0.5473
 4155TIP3   OH233879   0.756   0.610   1.521 -0.2663 -0.1510  0.4328
 4155TIP3    H133880   0.838   0.597   1.568 -0.1881 -0.5910  0.1744
 4155TIP3    H233881   0.689   0.610   1.590 -0.3087 -2.2906  0.4038
 4156TIP3   OH233882   4.438   1.273   1.619 -0.2241 -0.1664  0.9057
 4156TIP3    H133883   4.391   1.333   1.562  0.4573 -0.2287  0.2672
 4156TIP3    H233884   4.370   1.217   1.657 -0.8977  1.2228  1.7763
 4157TIP3   OH233885   1.285   1.457  16.813 -0.1095 -0.2317  0.1901
 4157TIP3    H133886   1.260   1.474  16.904 -2.5780  1.0436 -0.6802
 4157TIP3    H233887   1.215   1.403  16.778  0.4493 -0.0944 -1.1602
 4158TIP3   OH233888   2.921   5.518  12.747  0.0792  0.2044  0.0634
 4158TIP3    H133889   2.878   5.515  12.832  0.1629  0.5788  0.1222
 4158TIP3    H233890   3.003   5.565  12.763  0.1093  0.2502 -0.2189
 4159TIP3   OH233891   2.491   1.148  14.406 -0.2331 -0.4217 -0.3325
 4159TIP3    H133892   2.563   1.090  14.381 -0.5398 -1.0012  0.0898
 4159TIP3    H233893   2.437   1.094  14.465 -0.5817  0.2648 -0.0215
 4160TIP3   OH233894   5.526   5.817   4.619 -0.3559  0.0214 -0.7474
 4160TIP3    H133895   5.513   5.807   4.525  1.9255  1.4415 -1.2663
 4160TIP3    H233896   5.438   5.813   4.657 -1.2853 -0.5781 -2.9291
 4161TIP3   OH233897   2.596   6.329   0.369 -0.3178  0.4430 -0.0495
 4161TIP3    H133898   2.644   6.251   0.345 -0.4289  0.3631 -0.0142
 4161TIP3    H233899   2.510   6.317   0.329 -0.2763  0.6282 -0.1961
 4162TIP3   OH233900   6.456   5.509   5.148 -0.1767 -0.0779 -0.2049
 4162TIP3    H133901   6.462   5.498   5.243  0.7488 -0.7220 -0.3289
 4162TIP3    H233902   6.521   5.449   5.113  1.4773  2.2014 -1.1514
 4163TIP3   OH233903   5.451   2.156   3.030 -0.1630  0.4462  0.1208
 4163TIP3    H133904   5.366   2.168   2.989  0.6207 -2.1138 -2.4245
 4163TIP3    H233905   5.431   2.135   3.121 -2.2463  0.5082 -0.2923
 4164TIP3   OH233906   6.145   6.384   6.150  0.4832 -0.3232 -0.1328
 4164TIP3    H133907   6.222   6.347   6.106 -0.3659 -1.2656 -0.8659
 4164TIP3    H233908   6.071   6.337   6.111 -0.3704 -0.3869  1.5276
 4165TIP3   OH233909   6.164   1.751  14.826 -0.7006 -0.1658 -0.1629
 4165TIP3    H133910   6.182   1.657  14.819  1.4052  0.2052 -0.1305
 4165TIP3    H233911   6.251   1.792  14.827 -1.5450  1.6532  1.7969
 4166TIP3   OH233912   4.196   2.184   3.878 -0.4757  0.1721 -0.3236
 4166TIP3    H133913   4.209   2.097   3.842 -1.5296  0.3314 -1.0969
 4166TIP3    H233914   4.241   2.243   3.817  2.4427 -0.0271  1.5420
 4167TIP3   OH233915   1.063   1.002  14.367  0.3330  0.3735  0.3028
 4167TIP3    H133916   0.990   0.946  14.392  0.9829 -0.9712 -0.7909
 4167TIP3    H233917   1.118   1.006  14.446  0.5551 -0.9464  0.2155
 4168TIP3   OH233918   5.864   4.587  14.157  0.2875  0.8091 -0.1913
 4168TIP3    H133919   5.827   4.544  14.234  0.9516 -0.4002 -0.5283
 4168TIP3    H233920   5.951   4.616  14.185 -0.0993  1.8288 -0.0100
 4169TIP3   OH233921   5.535   0.343  16.213  0.0404 -0.3146 -0.3689
 4169TIP3    H133922   5.486   0.271  16.174 -0.7429 -0.1814  0.3659
 4169TIP3    H233923   5.499   0.422  16.171 -0.1723 -0.2385 -0.0402
 4170TIP3   OH233924   0.977   6.291  12.996 -0.0487  0.7764  0.5654
 4170TIP3    H133925   0.906   6.347  13.030 -1.9704 -1.2136 -0.0689
 4170TIP3    H233926   0.992   6.323  12.907  0.5328  1.8114  1.0187
 4171TIP3   OH233927   3.874   0.855   0.516  0.4771 -0.2414 -0.1948
 4171TIP3    H133928   3.946   0.883   0.572  1.4229 -0.4959 -1.2772
 4171TIP3    H233929   3.809   0.925   0.524  1.9481  1.2628 -1.2747
 4172TIP3   OH233930   0.991   5.848   3.629  0.3040  0.1900  0.5340
 4172TIP3    H133931   1.018   5.928   3.584 -0.2824 -0.2308 -0.5874
 4172TIP3    H233932   0.931   5.878   3.697 -0.8013  0.6356 -0.6030
 4173TIP3   OH233933   6.128   0.761   2.494 -0.0206 -0.8912  0.2406
 4173TIP3    H133934   6.195   0.692   2.495  0.6600 -0.3275 -2.1045
 4173TIP3    H233935   6.129   0.793   2.404 -1.2378  1.3049  0.9720
 4174TIP3   OH233936   1.614   5.910  12.969  0.2398  0.2185  0.4659
 4174TIP3    H133937   1.529   5.923  12.927  0.3646 -1.3658 -0.2890
 4174TIP3    H233938   1.593   5.896  13.061 -0.3460 -0.5015  0.2256
 4175TIP3   OH233939   1.989   0.616  13.901 -0.1057 -0.5437  0.1731
 4175TIP3    H133940   1.894   0.605  13.900 -0.0492 -0.9542 -1.6654
 4175TIP3    H233941   2.023   0.527  13.904  0.2347 -0.4319 -0.4267
 4176TIP3   OH233942   3.843   0.037   3.993 -0.3580 -0.7041 -0.1867
 4176TIP3    H133943   3.916   0.057   3.934  0.1817 -1.7007  0.1210
 4176TIP3    H233944   3.869  -0.045   4.035 -0.9271 -0.2136  1.1337
 4177TIP3   OH233945   6.747   1.780  16.712 -0.1535  0.3958  0.1333
 4177TIP3    H133946   6.836   1.745  16.705 -0.5250 -0.5446  0.0173
 4177TIP3    H233947   6.758   1.870  16.744  0.8988  0.6375 -0.8712
 4178TIP3   OH233948   5.685   5.030  16.343  0.5901  0.1220 -0.0528
 4178TIP3    H133949   5.631   5.105  16.316 -0.3530 -0.6543 -0.3803
 4178TIP3    H233950   5.635   4.990  16.414  0.4004 -0.9952 -0.8046
 4179TIP3   OH233951   2.857   6.365  11.397  0.3431  0.4564  0.0782
 4179TIP3    H133952   2.872   6.363  11.491 -1.3349  0.0758  0.3405
 4179TIP3    H233953   2.886   6.452  11.370  0.6139  0.6470  0.9683
 4180TIP3   OH233954   3.789   2.540   2.165 -0.5293 -0.2162  0.0010
 4180TIP3    H133955   3.806   2.621   2.117 -1.0064 -0.2715 -0.2614
 4180TIP3    H233956   3.759   2.570   2.251  1.5623 -0.1123  0.7342
 4181TIP3   OH233957   4.585   0.690  14.707 -0.1714  0.0687 -0.4626
 4181TIP3    H133958   4.493   0.694  14.679 -0.6441  0.0619  1.0237
 4181TIP3    H233959   4.588   0.614  14.766  0.6988  0.3296 -0.1662
 4182TIP3   OH233960   3.797   3.677   4.769 -0.1338 -0.2642  0.0878
 4182TIP3    H133961   3.703   3.691   4.778 -0.1072 -0.2597  0.3737
 4182TIP3    H233962   3.819   3.619   4.842  0.0839 -0.2610  0.0233
 4183TIP3   OH233963   5.114   2.483  15.245  0.8614  0.1890 -0.3186
 4183TIP3    H133964   5.094   2.561  15.297  1.0282 -0.9897  1.5546
 4183TIP3    H233965   5.210   2.479  15.245  0.8268 -1.1596  1.3698
 4184TIP3   OH233966   2.851   5.055   3.981 -0.9058  0.2528 -0.0758
 4184TIP3    H133967   2.933   5.027   3.940 -0.1320  1.2763  0.7579
 4184TIP3    H233968   2.787   4.988   3.955  0.1859 -0.5405 -0.7457
 4185TIP3   OH233969   0.501   1.349  13.622  0.4263  0.1933 -0.4508
 4185TIP3    H133970   0.540   1.275  13.669  0.6535  0.8298  0.3710
 4185TIP3    H233971   0.442   1.389  13.686 -2.4368 -1.3956 -1.9890
 4186TIP3   OH233972   2.051   4.254  15.328  0.2391 -0.0414 -0.1711
 4186TIP3    H133973   2.018   4.327  15.275  1.0450  0.9988  0.7115
 4186TIP3    H233974   2.001   4.260  15.410  1.7362  0.7901  0.6942
 4187TIP3   OH233975   6.291   1.140   6.134 -0.2333 -0.4317  0.2305
 4187TIP3    H133976   6.384   1.133   6.113 -0.0252 -1.8096  1.6164
 4187TIP3    H233977   6.257   1.051   6.125 -1.0872 -0.2206  1.3089
 4188TIP3   OH233978   2.796   6.071  15.464  0.2278 -0.1626 -0.2380
 4188TIP3    H133979   2.887   6.098  15.479  0.1594  0.0006 -0.1121
 4188TIP3    H233980   2.782   6.088  15.370  0.4873 -0.6826 -0.3715
 4189TIP3   OH233981   3.031   4.370   6.233 -0.0059 -0.1885 -0.0359
 4189TIP3    H133982   3.007   4.439   6.295  0.0595  0.2480 -0.4929
 4189TIP3    H233983   3.116   4.339   6.264  1.1980  1.7122 -1.3121
 4190TIP3   OH233984   0.815   2.570  11.916 -0.7008  0.1014  0.4843
 4190TIP3    H133985   0.781   2.624  11.988 -0.6072 -1.0475  1.4092
 4190TIP3    H233986   0.910   2.573  11.928 -0.6527  0.5356 -0.0441
 4191TIP3   OH233987   4.158   0.567   6.122 -0.1476  0.6183 -0.5057
 4191TIP3    H133988   4.083   0.536   6.174  0.1744  2.6545  1.2728
 4191TIP3    H233989   4.234   0.537   6.171  0.1608  2.5622  0.2618
 4192TIP3   OH233990   6.629   1.409   0.478 -0.0511  0.4614  0.7354
 4192TIP3    H133991   6.687   1.366   0.414  1.3133  0.7100  1.7787
 4192TIP3    H233992   6.661   1.379   0.563 -4.0691 -2.7104  1.2859
 4193TIP3   OH233993   1.859   0.554  16.584 -0.1330  0.3581 -0.1325
 4193TIP3    H133994   1.903   0.639  16.587  0.1262  0.1638  1.6965
 4193TIP3    H233995   1.855   0.533  16.490  3.4516  0.4863 -0.3709
 4194TIP3   OH233996   0.130   1.042   2.110  0.2073 -0.4278 -0.3002
 4194TIP3    H133997   0.156   1.015   2.022 -1.8378 -0.7059 -0.8408
 4194TIP3    H233998   0.083   0.967   2.146  2.8742 -1.1433  1.9005
 4195TIP3   OH233999   0.999   0.928  11.306 -0.3190  0.2302 -0.4292
 4195TIP3    H134000   1.044   0.950  11.388 -0.0324 -0.1475 -0.4839
 4195TIP3    H234001   1.059   0.869  11.261 -1.0886 -0.6592 -0.2867
 4196TIP3   OH234002   5.284   5.341   1.535  0.0605  0.0865 -0.0345
 4196TIP3    H134003   5.230   5.420   1.530 -0.1965 -0.2016 -2.2444
 4196TIP3    H234004   5.325   5.335   1.449  0.0280 -2.2228  0.1007
 4197TIP3   OH234005   6.708   2.876   3.240  0.5446 -0.0448  0.6506
 4197TIP3    H134006   6.641   2.839   3.297  0.2383  1.1182  1.0764
 4197TIP3    H234007   6.658   2.916   3.169  0.8239  0.1873  0.5865
 4198TIP3   OH234008   5.580   0.908   5.146  0.0574  0.3972  0.0392
 4198TIP3    H134009   5.573   0.999   5.119 -1.8697 -0.0891 -1.2233
 4198TIP3    H234010   5.585   0.910   5.241 -1.6982  1.7490  0.1184
 4199TIP3   OH234011   4.293   4.920  11.439 -0.2377  0.2947  0.2297
 4199TIP3    H134012   4.252   4.928  11.353 -0.0881  0.0157  0.1326
 4199TIP3    H234013   4.220   4.904  11.499 -0.2321 -0.5728  0.0044
 4200TIP3   OH234014   4.850   2.501   6.016  0.2389 -0.2299 -0.0005
 4200TIP3    H134015   4.917   2.569   6.026  1.4031 -1.0591 -1.9457
 4200TIP3    H234016   4.790   2.536   5.950  1.4089 -1.4778 -1.7741
 4201TIP3   OH234017   2.508   3.834  11.821  0.2290  0.0571 -0.6884
 4201TIP3    H134018   2.470   3.900  11.763  1.2883  0.9878 -0.3444
 4201TIP3    H234019   2.566   3.883  11.879 -1.4594 -0.7733  1.7382
 4202TIP3   OH234020   5.984   4.598  14.667 -0.1379  0.0953  0.1350
 4202TIP3    H134021   6.045   4.526  14.654 -0.0758  0.1286  0.2405
 4202TIP3    H234022   5.905   4.572  14.619  1.2601  1.7382 -3.1829
 4203TIP3   OH234023   1.088   0.825   2.234 -0.0274  0.5793 -0.7403
 4203TIP3    H134024   1.087   0.798   2.326  1.9457  2.0245 -0.2473
 4203TIP3    H234025   1.014   0.885   2.225 -0.5125  0.0662 -0.2262
 4204TIP3   OH234026   6.586   4.481   0.787  0.1169 -0.2655  0.3299
 4204TIP3    H134027   6.568   4.493   0.880  0.8513  0.0048  0.4407
 4204TIP3    H234028   6.649   4.409   0.784  0.8275  0.3572  0.1120
 4205TIP3   OH234029   0.060   0.274   4.071  0.6796  0.8130 -0.0036
 4205TIP3    H134030   0.092   0.236   3.989 -1.9428  1.2726 -1.3051
 4205TIP3    H234031   0.086   0.366   4.066  1.0713  0.7002 -0.0410
 4206TIP3   OH234032   2.117   2.446   0.348 -0.0816  0.2576 -0.3914
 4206TIP3    H134033   2.141   2.514   0.410 -0.6480  1.3124 -1.3170
 4206TIP3    H234034   2.099   2.369   0.403  1.0925  0.6802  0.6162
 4207TIP3   OH234035   2.519   3.171   2.566  0.2916 -0.1642  0.1014
 4207TIP3    H134036   2.529   3.236   2.636  1.5472 -0.5957  0.3422
 4207TIP3    H234037   2.488   3.093   2.611  0.5651 -0.2794  0.0867
 4208TIP3   OH234038   0.867   1.023   2.340 -0.4256  0.3440  0.5566
 4208TIP3    H134039   0.811   0.998   2.414 -1.5045  1.4058  0.1237
 4208TIP3    H234040   0.809   1.074   2.283  0.5022 -0.1280 -0.8244
 4209TIP3   OH234041   4.181   3.981  14.827  0.0825 -0.2833 -0.6798
 4209TIP3    H134042   4.087   3.963  14.821  0.2006 -0.6678 -1.4034
 4209TIP3    H234043   4.198   3.987  14.921 -0.5082 -1.0173 -0.5249
 4210TIP3   OH234044   2.280   5.516  13.473 -0.1787  0.3049  0.0768
 4210TIP3    H134045   2.354   5.490  13.528 -1.0278  0.2706  1.2111
 4210TIP3    H234046   2.211   5.453  13.494 -1.3732  1.8696  0.8898
 4211TIP3   OH234047   0.059   2.305   4.295  0.5795  0.0009  0.4141
 4211TIP3    H134048  -0.015   2.366   4.292  2.1403  1.8633 -0.9015
 4211TIP3    H234049   0.033   2.234   4.236 -0.6041  0.0914  0.7984
 4212TIP3   OH234050   3.887   4.115  16.079  0.1847 -0.0357  0.2527
 4212TIP3    H134051   3.931   4.030  16.079 -0.2181 -0.2513  0.9374
 4212TIP3    H234052   3.958   4.179  16.075  0.4717 -0.4051 -0.8166
 4213TIP3   OH234053   2.520   4.804  12.032  0.4663  0.8660 -0.2678
 4213TIP3    H134054   2.609   4.827  12.060  0.2955  0.3555  0.7355
 4213TIP3    H234055   2.495   4.733  12.091 -1.1789  2.0209  0.4566
 4214TIP3   OH234056   2.979   2.842  11.555  0.2928  0.5241 -0.3766
 4214TIP3    H134057   2.970   2.748  11.565  1.1144  0.5105  0.2730
 4214TIP3    H234058   3.022   2.853  11.470  1.6180  0.2405  0.2502
 4215TIP3   OH234059   3.033   2.223  13.251 -0.2446 -0.0969 -0.0519
 4215TIP3    H134060   2.960   2.168  13.225 -2.9141  2.9057  0.8259
 4215TIP3    H234061   3.099   2.162  13.284 -3.2144 -2.7228  1.2566
 4216TIP3   OH234062   1.143   1.786  11.372  0.0666 -0.4122  0.3392
 4216TIP3    H134063   1.068   1.757  11.321 -0.0616  0.9184 -0.2470
 4216TIP3    H234064   1.168   1.709  11.424 -1.6527 -0.8763  0.5052
 4217TIP3   OH234065   1.886   5.724  17.079 -0.0238 -0.2148  0.2595
 4217TIP3    H134066   1.794   5.748  17.064  0.0254 -0.2257 -0.0696
 4217TIP3    H234067   1.882   5.632  17.105  0.1384 -1.2130 -3.0213
 4218TIP3   OH234068   5.933   3.294  15.803 -0.2330 -0.0844 -0.2840
 4218TIP3    H134069   5.844   3.263  15.791  0.0508 -1.0255  0.0087
 4218TIP3    H234070   5.955   3.337  15.720 -1.0105  0.2997 -0.2913
 4219TIP3   OH234071   1.837   6.340   5.435 -0.1845  0.3530  0.1984
 4219TIP3    H134072   1.762   6.390   5.467 -0.1064 -0.9893  2.6027
 4219TIP3    H234073   1.846   6.268   5.498  1.0023 -1.4583 -1.9901
 4220TIP3   OH234074   6.360   5.929   5.305 -0.0179 -0.7868 -0.2595
 4220TIP3    H134075   6.269   5.956   5.291 -0.0498 -0.2637  0.8625
 4220TIP3    H234076   6.408   6.011   5.317  0.6532 -1.0486 -1.0864
 4221TIP3   OH234077   4.181   6.455   2.351  0.5040 -0.5502 -0.0497
 4221TIP3    H134078   4.162   6.516   2.280  0.7209  0.4798  0.7570
 4221TIP3    H234079   4.271   6.475   2.377 -0.0921  0.1673  1.5472
 4222TIP3   OH234080   6.397   0.830  12.544  0.1450  0.1247  0.4768
 4222TIP3    H134081   6.317   0.880  12.530  1.0852  1.0842 -1.7900
 4222TIP3    H234082   6.398   0.766  12.473  1.1454 -0.1842  0.7611
 4223TIP3   OH234083   2.129   6.742  14.000  0.3870  0.1048  0.3253
 4223TIP3    H134084   2.198   6.743  14.066  1.1281  0.5084 -0.4421
 4223TIP3    H234085   2.103   6.834  13.991  1.0912  0.2037 -0.7637
 4224TIP3   OH234086   2.773   0.264   6.282 -0.2440 -0.6607  0.1598
 4224TIP3    H134087   2.849   0.308   6.244 -1.6442 -0.3189 -2.3070
 4224TIP3    H234088   2.808   0.218   6.359  2.7203 -1.5818 -1.6729
 4225TIP3   OH234089   6.519   2.614  14.793 -0.0290  0.6351  0.5659
 4225TIP3    H134090   6.482   2.651  14.873  0.4738  1.3033  0.4976
 4225TIP3    H234091   6.498   2.678  14.725 -0.7246 -0.0731  0.0904
 4226TIP3   OH234092   1.684   6.630   4.986  0.4707  0.2368  0.0702
 4226TIP3    H134093   1.596   6.669   4.978 -0.7145 -2.2823  0.3739
 4226TIP3    H234094   1.743   6.699   4.957 -1.6925  1.5719 -1.3470
 4227TIP3   OH234095   0.323   1.581  15.155 -0.0677 -0.0277 -0.0339
 4227TIP3    H134096   0.370   1.592  15.238  0.9769  0.9876 -0.7580
 4227TIP3    H234097   0.252   1.520  15.177 -0.2511  0.7841  1.7903
 4228TIP3   OH234098   2.900   2.515  12.334 -0.7264  0.2519 -0.3867
 4228TIP3    H134099   2.912   2.439  12.277 -0.5968  1.2660 -1.7431
 4228TIP3    H234100   2.805   2.525  12.340 -0.7380  0.2531 -0.5662
 4229TIP3   OH234101   3.208   0.026  10.676 -0.3343  0.2070  0.3243
 4229TIP3    H134102   3.158   0.081  10.736  1.8477  2.7149 -0.0801
 4229TIP3    H234103   3.279  -0.008  10.729 -1.4898 -2.0520  0.4881
 4230TIP3   OH234104   2.217   4.560   6.101 -0.4358  0.0262 -0.0667
 4230TIP3    H134105   2.258   4.477   6.076  2.0433  1.9009 -2.5662
 4230TIP3    H234106   2.267   4.590   6.177 -2.7662 -1.7677  2.2532
 4231TIP3   OH234107   2.429   0.989  11.796 -0.0734 -0.0294  0.6017
 4231TIP3    H134108   2.403   1.067  11.746 -3.2798  0.0731  2.2865
 4231TIP3    H234109   2.491   1.022  11.861  3.6798 -0.0650 -2.7851
 4232TIP3   OH234110   0.726   1.842   5.019  0.2365 -0.2363  0.0321
 4232TIP3    H134111   0.808   1.849   5.067  0.6695 -0.5119 -0.6536
 4232TIP3    H234112   0.718   1.749   4.998 -0.2104 -0.1990  0.0245
 4233TIP3   OH234113   5.472   4.057  15.358  0.6159  0.1648 -0.0150
 4233TIP3    H134114   5.519   4.008  15.291 -1.7282 -0.8583 -0.9670
 4233TIP3    H234115   5.456   4.143  15.318  0.9114  0.2261 -0.0053
 4234TIP3   OH234116   0.292   4.491   4.141 -0.1714 -0.3700 -0.1591
 4234TIP3    H134117   0.284   4.585   4.127 -1.2510 -0.3860  0.2848
 4234TIP3    H234118   0.255   4.452   4.061 -0.0320 -0.4157 -0.2013
 4235TIP3   OH234119   2.831   5.028   4.542  0.1886  0.1039  0.6365
 4235TIP3    H134120   2.817   5.116   4.508 -0.8284 -1.0331 -2.0279
 4235TIP3    H234121   2.926   5.017   4.540  0.2653  0.8064  0.0852
 4236TIP3   OH234122   2.114   4.871   2.391  0.0183  0.0917  0.3399
 4236TIP3    H134123   2.034   4.870   2.443 -0.3960 -0.3888 -0.2969
 4236TIP3    H234124   2.122   4.782   2.358  1.2516 -0.0712  1.0561
 4237TIP3   OH234125   4.757   5.388  14.623  0.4410 -0.3498 -0.0630
 4237TIP3    H134126   4.809   5.421  14.549  2.1421 -1.8966  0.4038
 4237TIP3    H234127   4.804   5.418  14.700 -0.9567  0.6695  0.4095
 4238TIP3   OH234128   6.422   2.982   0.976 -0.3716  0.0594  0.6392
 4238TIP3    H134129   6.386   2.895   0.959  0.7710 -0.1741 -0.6744
 4238TIP3    H234130   6.356   3.025   1.032 -1.5809 -1.1579  0.1769
 4239TIP3   OH234131   5.817   5.029  11.013  0.1892 -0.5415 -0.1692
 4239TIP3    H134132   5.789   4.938  11.030  2.3282 -1.3016 -0.5590
 4239TIP3    H234133   5.762   5.057  10.940 -0.2852 -1.6346 -0.2495
 4240TIP3   OH234134   4.029   5.581   0.326 -0.3846 -0.8069 -0.0838
 4240TIP3    H134135   4.074   5.571   0.243  0.2007  0.9065  0.0273
 4240TIP3    H234136   3.941   5.611   0.303 -0.6160 -1.4936 -0.1328
 4241TIP3   OH234137   5.811   4.156   5.658  0.2356  0.7377  0.7001
 4241TIP3    H134138   5.874   4.092   5.624  0.2771  1.5659 -0.8501
 4241TIP3    H234139   5.856   4.196   5.732  1.7277  1.6130 -0.6510
 4242TIP3   OH234140   4.080   2.416   1.468 -0.0597 -0.1437  0.3423
 4242TIP3    H134141   4.051   2.486   1.526  0.1210  0.8524 -0.7318
 4242TIP3    H234142   4.176   2.415   1.478  0.0854  0.8479 -0.8178
 4243TIP3   OH234143   5.244   3.368   6.448 -0.0223 -0.0376 -0.2030
 4243TIP3    H134144   5.280   3.294   6.497  0.5509 -2.1618 -3.7274
 4243TIP3    H234145   5.318   3.429   6.441 -0.0325  0.1805  1.2792
 4244TIP3   OH234146   4.924   4.540  15.313  0.7510 -0.2850  0.5458
 4244TIP3    H134147   4.829   4.533  15.306  0.7452 -0.8649  1.1893
 4244TIP3    H234148   4.955   4.545  15.222  0.2510 -1.9914  0.2714
 4245TIP3   OH234149   0.703   6.368  13.656  0.5758 -0.1516  0.1595
 4245TIP3    H134150   0.761   6.425  13.708  1.5889 -1.3200  0.3371
 4245TIP3    H234151   0.715   6.397  13.566  1.4194 -0.3564  0.2005
 4246TIP3   OH234152   0.614   4.030   2.668  0.0312  0.0715 -0.0540
 4246TIP3    H134153   0.577   4.117   2.686  1.5276  0.5235  0.8931
 4246TIP3    H234154   0.703   4.034   2.703  0.1512 -1.8103 -0.1059
 4247TIP3   OH234155   3.116   2.584  11.377  0.0549  0.1304  0.8728
 4247TIP3    H134156   3.031   2.552  11.405 -0.3650  0.1886 -0.2929
 4247TIP3    H234157   3.178   2.518  11.407 -0.7142 -1.4166 -0.8299
 4248TIP3   OH234158   6.446   6.696  15.790 -0.1440  0.5481  0.1158
 4248TIP3    H134159   6.535   6.728  15.805  0.3197 -1.2644  1.5026
 4248TIP3    H234160   6.393   6.741  15.857  0.2811 -0.6003  1.2458
 4249TIP3   OH234161   2.715   0.132  13.925  0.3974  0.0394 -0.0943
 4249TIP3    H134162   2.635   0.183  13.917 -2.0349 -3.7446 -1.6405
 4249TIP3    H234163   2.741   0.113  13.835  1.7326 -0.6546  0.4188
 4250TIP3   OH234164   3.951   5.192  11.665  0.2601  0.0059  0.2027
 4250TIP3    H134165   3.898   5.113  11.674  0.3146 -0.2419 -1.5136
 4250TIP3    H234166   3.986   5.188  11.576  1.2963  1.3246  0.5285
 4251TIP3   OH234167   4.744   1.032   4.636 -0.4399  0.2592 -0.5318
 4251TIP3    H134168   4.805   1.017   4.708 -0.0380  1.0604 -0.6983
 4251TIP3    H234169   4.799   1.036   4.558 -0.5485  2.1321 -0.5487
 4252TIP3   OH234170   1.619   3.427  14.979  0.2774 -0.5607 -0.7178
 4252TIP3    H134171   1.611   3.349  14.923 -1.2944  0.4333 -1.9451
 4252TIP3    H234172   1.694   3.474  14.943  1.2903 -1.5365  0.0859
 4253TIP3   OH234173   1.776   3.402   2.405 -0.0555 -0.0473  0.4121
 4253TIP3    H134174   1.846   3.344   2.375  0.1311 -0.3254  1.3667
 4253TIP3    H234175   1.740   3.358   2.482 -0.1631  0.9217  0.9225
 4254TIP3   OH234176   6.695   1.648   4.115  0.1683 -0.2528 -0.6550
 4254TIP3    H134177   6.738   1.717   4.065 -0.3725 -0.2368 -1.1130
 4254TIP3    H234178   6.660   1.588   4.048  0.5384 -0.9121 -0.2686
 4255TIP3   OH234179   3.497   2.812   3.040 -0.2138 -0.3389  0.2459
 4255TIP3    H134180   3.442   2.784   3.114 -0.2465 -1.4738 -0.2009
 4255TIP3    H234181   3.492   2.907   3.041 -3.1696 -0.4410 -0.5074
 4256TIP3   OH234182   1.261   4.961  14.319  0.7325 -0.0164  0.4676
 4256TIP3    H134183   1.307   4.902  14.379 -0.1719 -0.5713  0.6158
 4256TIP3    H234184   1.268   4.919  14.233  1.3827  0.4082  0.3128
 4257TIP3   OH234185   1.068   5.945  13.927  0.1112  0.0955 -0.2016
 4257TIP3    H134186   0.990   5.976  13.882 -0.2471  2.3222  1.8496
 4257TIP3    H234187   1.128   6.020  13.925  0.7710 -0.3668  1.3931
 4258TIP3   OH234188   5.441   4.949   4.573 -0.1308  0.4980 -0.1432
 4258TIP3    H134189   5.417   5.038   4.547  0.7126  0.6635 -0.3764
 4258TIP3    H234190   5.494   4.916   4.500  0.0933  0.0322  0.2277
 4259TIP3   OH234191   6.354   6.230  12.195  0.1216  0.0310  0.0530
 4259TIP3    H134192   6.265   6.265  12.205  0.3007  0.8380 -1.1082
 4259TIP3    H234193   6.411   6.305  12.205  0.5492 -0.0508 -1.5309
 4260TIP3   OH234194   1.650   3.749   0.374 -0.1998 -0.2871  0.1862
 4260TIP3    H134195   1.700   3.787   0.446  0.0513  0.3936 -0.3417
 4260TIP3    H234196   1.711   3.691   0.329 -0.2546 -0.4432  0.3147
 4261TIP3   OH234197   3.044   3.106  15.485 -0.9283 -0.6439 -0.0834
 4261TIP3    H134198   3.086   3.192  15.483 -2.1062 -0.0418 -3.5772
 4261TIP3    H234199   3.100   3.050  15.431 -1.6895 -1.2896 -0.2172
 4262TIP3   OH234200   4.717   2.559  12.891 -0.8229 -0.2673  0.2690
 4262TIP3    H134201   4.699   2.585  12.800 -1.0172  0.8712  0.6269
 4262TIP3    H234202   4.666   2.478  12.903  0.8093 -1.5553 -1.2500
 4263TIP3   OH234203   6.452   4.646  12.216 -0.0506 -0.5900  0.1735
 4263TIP3    H134204   6.473   4.591  12.140  2.1022 -0.1942  0.4468
 4263TIP3    H234205   6.365   4.680  12.198  1.0473  0.7879 -2.9209
 4264TIP3   OH234206   4.400   2.828  11.163 -0.7038 -0.6090 -0.4774
 4264TIP3    H134207   4.443   2.819  11.078 -0.6373 -0.1708 -0.4929
 4264TIP3    H234208   4.359   2.915  11.160  1.1047  0.3225  0.7422
 4265TIP3   OH234209   3.726   0.264  11.622 -0.0333 -0.4993  0.6775
 4265TIP3    H134210   3.749   0.196  11.559 -0.7886 -1.1216  1.0741
 4265TIP3    H234211   3.753   0.229  11.706 -1.2487 -0.6845  0.9917
 4266TIP3   OH234212   4.464   6.022  13.412 -0.1814 -0.3880  0.4391
 4266TIP3    H134213   4.502   5.958  13.472  1.4055  1.7000  1.7050
 4266TIP3    H234214   4.496   5.996  13.325  1.2648 -0.7254  1.0641
 4267TIP3   OH234215   6.633   6.327  11.059  0.2600  0.2770  0.2912
 4267TIP3    H134216   6.634   6.418  11.088  2.3934  0.3711  0.0414
 4267TIP3    H234217   6.602   6.330  10.969 -1.1399  0.5734  0.7669
 4268TIP3   OH234218   6.177   5.756  12.626  0.9011 -0.0359  0.4080
 4268TIP3    H134219   6.162   5.809  12.704 -0.3934 -0.6757  0.6210
 4268TIP3    H234220   6.210   5.672  12.659  0.1756 -0.3736  0.2909
 4269TIP3   OH234221   4.530   6.020   2.625 -0.4416  0.5269 -0.1544
 4269TIP3    H134222   4.472   6.091   2.596  0.6279  0.9525 -1.3656
 4269TIP3    H234223   4.558   5.978   2.543 -0.7060 -1.0085  0.5342
 4270TIP3   OH234224   6.513   0.917  15.271  0.0453 -0.1319 -0.6561
 4270TIP3    H134225   6.419   0.922  15.287  0.2038 -0.9578  0.5850
 4270TIP3    H234226   6.530   0.824  15.257  0.8794 -0.1492  0.4265
 4271TIP3   OH234227   4.485   3.869   3.614 -0.1811 -0.4658  0.2469
 4271TIP3    H134228   4.467   3.778   3.637  2.2173 -1.2236 -0.6796
 4271TIP3    H234229   4.580   3.871   3.600 -0.1992  2.2012  0.3521
 4272TIP3   OH234230   5.775   1.260   1.736 -0.0764 -0.4322 -0.3684
 4272TIP3    H134231   5.827   1.291   1.810 -0.5986  0.8577 -0.5300
 4272TIP3    H234232   5.833   1.201   1.688 -0.1906 -2.4357  1.8599
 4273TIP3   OH234233   6.239   2.564  12.067 -0.3852  0.3683 -0.1598
 4273TIP3    H134234   6.242   2.643  12.012 -0.2695  1.4725  1.4067
 4273TIP3    H234235   6.250   2.597  12.156  0.6557 -1.5370  0.4196
 4274TIP3   OH234236   4.464   1.989  14.115  0.5747  0.3972  0.1906
 4274TIP3    H134237   4.398   1.951  14.174  0.1772 -1.4565 -1.3865
 4274TIP3    H234238   4.414   2.039  14.052  0.6522 -0.8641 -0.9023
 4275TIP3   OH234239   1.970   5.611  14.931 -0.0719 -0.1922  0.1411
 4275TIP3    H134240   1.888   5.584  14.890  0.5728 -2.2563  0.1230
 4275TIP3    H234241   1.945   5.639  15.019 -1.1239  1.7684 -0.7474
 4276TIP3   OH234242   4.075   6.454  15.250 -0.6140  0.3464 -0.2964
 4276TIP3    H134243   4.116   6.492  15.327 -0.9687  0.5040 -0.1858
 4276TIP3    H234244   4.039   6.528  15.202 -2.1035  0.0899  0.3820
 4277TIP3   OH234245   0.546   5.007   4.830  0.1708  0.6519 -0.4093
 4277TIP3    H134246   0.507   4.962   4.905  0.7482  0.4604 -0.2251
 4277TIP3    H234247   0.618   5.058   4.867  1.4226 -0.6298 -1.0364
 4278TIP3   OH234248   6.225   6.003   4.314 -0.3913 -0.6665  0.2465
 4278TIP3    H134249   6.220   5.933   4.379 -1.1503 -1.3151 -0.5070
 4278TIP3    H234250   6.264   5.962   4.237 -1.4867 -0.4512 -0.4344
 4279TIP3   OH234251   5.119   5.492   3.073 -0.2674 -0.4101 -0.3003
 4279TIP3    H134252   5.068   5.435   3.132  2.0247 -2.2126  0.0251
 4279TIP3    H234253   5.121   5.576   3.118 -3.4408 -0.0970 -0.6158
 4280TIP3   OH234254   1.923   0.922  16.934  0.3842 -0.2491  0.0161
 4280TIP3    H134255   1.889   0.874  16.859 -0.0537  1.5697 -0.9691
 4280TIP3    H234256   1.854   0.986  16.955  1.1337  0.2474  1.0344
 4281TIP3   OH234257   3.898   4.932  15.200 -0.3181  0.1142 -0.0252
 4281TIP3    H134258   3.871   4.919  15.110 -2.6570  1.6746  0.3932
 4281TIP3    H234259   3.943   5.017  15.199  2.0355 -1.1019 -0.1779
 4282TIP3   OH234260   0.715   5.443   2.124 -0.0574  0.1724  0.5063
 4282TIP3    H134261   0.770   5.521   2.131 -1.0229  0.8499  0.6689
 4282TIP3    H234262   0.759   5.378   2.180  1.1522  0.3441 -0.2129
 4283TIP3   OH234263   2.427   5.373   4.962 -0.2727 -0.4972 -0.5384
 4283TIP3    H134264   2.359   5.441   4.968 -0.4342 -0.5372 -1.7958
 4283TIP3    H234265   2.500   5.408   5.013 -0.0274  1.0306 -1.8842
 4284TIP3   OH234266   5.759   5.497   5.639  0.3949  0.1927 -0.3189
 4284TIP3    H134267   5.717   5.433   5.697 -1.0056  2.9140  1.7325
 4284TIP3    H234268   5.691   5.521   5.577  0.9764 -0.4104 -1.1958
 4285TIP3   OH234269   5.468   3.571   5.030 -0.3025  0.0501  0.3445
 4285TIP3    H134270   5.520   3.498   5.065 -3.2373 -1.5466  1.5790
 4285TIP3    H234271   5.471   3.638   5.099  0.1586 -0.0139  0.3872
 4286TIP3   OH234272   3.226   5.180   2.195 -0.4324  0.2876 -0.3211
 4286TIP3    H134273   3.244   5.094   2.158 -3.0320 -0.2833 -0.3916
 4286TIP3    H234274   3.145   5.168   2.245  1.1911  1.8389  2.8292
 4287TIP3   OH234275   2.932   5.703   2.239 -0.0113 -1.2167  0.1675
 4287TIP3    H134276   2.914   5.609   2.249 -1.3152 -0.9056  0.9218
 4287TIP3    H234277   2.858   5.736   2.188  0.7561 -0.7045 -0.6136
 4288TIP3   OH234278   6.233   3.981   3.009 -0.3197 -0.1127  0.6303
 4288TIP3    H134279   6.175   3.969   3.084  0.1460  0.6123  1.1182
 4288TIP3    H234280   6.196   4.056   2.961  0.7372  0.9755  1.4741
 4289TIP3   OH234281   3.044   4.028   5.935  0.1045  0.1973 -0.4173
 4289TIP3    H134282   2.954   4.059   5.923 -0.7380 -2.6042 -1.5404
 4289TIP3    H234283   3.035   3.946   5.984  2.1740  0.6986  0.8457
 4290TIP3   OH234284   4.264   0.801   6.258  0.6888 -0.0214 -0.4329
 4290TIP3    H134285   4.207   0.782   6.184 -1.8796 -1.1471  1.7757
 4290TIP3    H234286   4.240   0.890   6.285  0.5713 -0.1733 -0.0308
 4291TIP3   OH234287   4.194   5.439  16.529  0.2295  0.1227 -0.1729
 4291TIP3    H134288   4.208   5.500  16.457  1.6526 -0.3483 -0.2983
 4291TIP3    H234289   4.217   5.353  16.493  0.2928 -0.2090  0.6386
 4292TIP3   OH234290   4.234   4.856  14.287 -0.0680 -0.6321 -0.2834
 4292TIP3    H134291   4.232   4.845  14.382  1.4141  0.7195 -0.0785
 4292TIP3    H234292   4.302   4.797  14.257  1.3534  0.9246 -0.1908
 4293TIP3   OH234293   0.509   3.306   0.211  0.2746 -0.0078  0.4422
 4293TIP3    H134294   0.602   3.301   0.232  0.4844  0.1533 -0.4503
 4293TIP3    H234295   0.472   3.226   0.248  0.7550 -0.0488  0.8426
 4294TIP3   OH234296   6.753   6.740   1.130  0.4748 -0.6752 -0.1384
 4294TIP3    H134297   6.804   6.664   1.101  0.2891 -0.9719  0.2920
 4294TIP3    H234298   6.681   6.702   1.181 -0.1701 -0.2648 -0.7247
 4295TIP3   OH234299   3.548   0.847   2.444  0.1011  0.0924 -0.2837
 4295TIP3    H134300   3.569   0.938   2.462 -0.0018  0.0227  0.1940
 4295TIP3    H234301   3.515   0.813   2.527 -0.0662 -0.3204 -0.5159
 4296TIP3   OH234302   0.810   2.247  14.758  0.2296  0.0367 -0.3000
 4296TIP3    H134303   0.886   2.229  14.703 -1.1191 -2.3753 -1.4931
 4296TIP3    H234304   0.736   2.243  14.698 -1.1435 -1.1585  1.4054
 4297TIP3   OH234305   5.681   0.035   2.278 -0.6481  0.3512  0.0188
 4297TIP3    H134306   5.600   0.025   2.328  0.5781  1.0140  2.2037
 4297TIP3    H234307   5.750   0.012   2.340  0.9726  2.2076 -1.0542
 4298TIP3   OH234308   6.698   3.359  11.613  0.1913  0.0706 -0.2994
 4298TIP3    H134309   6.703   3.392  11.702 -1.1079  0.8648 -0.5054
 4298TIP3    H234310   6.707   3.437  11.558  2.4742 -0.5808 -0.9168
 4299TIP3   OH234311   0.552   4.247  13.737  0.2207 -0.5555  0.1133
 4299TIP3    H134312   0.647   4.260  13.734  0.0949  0.6681  0.9440
 4299TIP3    H234313   0.539   4.154  13.721  1.4438 -0.3522 -2.2430
 4300TIP3   OH234314   2.843   6.306  15.856  0.4497 -0.0430 -0.1815
 4300TIP3    H134315   2.905   6.265  15.796  0.3401 -1.1077  0.4259
 4300TIP3    H234316   2.863   6.267  15.941  0.7621  1.6263  0.5244
 4301TIP3   OH234317   4.729   6.240   0.497 -0.1169 -0.0182  0.0132
 4301TIP3    H134318   4.641   6.277   0.492 -0.1728 -0.1700 -0.1003
 4301TIP3    H234319   4.774   6.274   0.419 -0.1119 -0.0401  0.0066
 4302TIP3   OH234320   4.080   0.642   3.933  0.1433 -0.2181 -0.0389
 4302TIP3    H134321   4.074   0.660   4.027 -0.5450 -0.6896  0.0135
 4302TIP3    H234322   4.159   0.588   3.924  0.8609  0.7951  0.1118
 4303TIP3   OH234323   1.809   1.562   2.222  0.5484  0.0910 -0.1431
 4303TIP3    H134324   1.832   1.639   2.170  0.0701  1.0940  1.1047
 4303TIP3    H234325   1.790   1.596   2.309 -2.7428 -1.0378 -0.3355
 4304TIP3   OH234326   3.951   1.500   0.963 -0.7104 -0.0483 -0.5505
 4304TIP3    H134327   4.033   1.511   1.012  0.3367  0.5812 -2.3943
 4304TIP3    H234328   3.925   1.410   0.979  0.0230 -0.0699  0.5469
 4305TIP3   OH234329   1.638   5.606   2.533 -0.6358 -0.1420 -0.3419
 4305TIP3    H134330   1.577   5.539   2.564 -0.2489  0.2418  1.2990
 4305TIP3    H234331   1.635   5.673   2.602 -0.1555  0.9795 -1.4113
 4306TIP3   OH234332   5.357   3.783   5.466  0.0166 -0.0980 -0.0362
 4306TIP3    H134333   5.400   3.704   5.436 -0.3639 -0.4420  0.3222
 4306TIP3    H234334   5.380   3.790   5.559  0.8386  0.7285 -0.2958
 4307TIP3   OH234335   1.972   1.179  15.600 -0.5424  0.1781 -0.1336
 4307TIP3    H134336   1.903   1.165  15.665 -2.2658 -2.5813 -2.4094
 4307TIP3    H234337   1.947   1.260  15.556 -1.8340 -0.2701 -0.2596
 4308TIP3   OH234338   2.217   4.624   1.087 -0.4039  0.1546 -0.2233
 4308TIP3    H134339   2.161   4.700   1.096 -1.4069 -0.7391  1.2970
 4308TIP3    H234340   2.160   4.550   1.108  1.5515 -0.7132  2.3017
 4309TIP3   OH234341   0.831   3.221  16.122 -0.3986 -0.4076 -0.1858
 4309TIP3    H134342   0.796   3.143  16.163  0.7872 -0.0018  1.6438
 4309TIP3    H234343   0.839   3.198  16.029 -0.8313 -2.1624  0.2069
 4310TIP3   OH234344   3.656   1.398  16.042  0.0564  0.3600  0.8752
 4310TIP3    H134345   3.624   1.484  16.017 -0.0008  0.2515  0.5759
 4310TIP3    H234346   3.655   1.399  16.138 -1.9044 -0.0332  0.8817
 4311TIP3   OH234347   0.875   2.395  15.034  0.1646  0.0605  0.0879
 4311TIP3    H134348   0.935   2.468  15.025 -1.3387  1.1933 -1.0673
 4311TIP3    H234349   0.891   2.341  14.956  1.5249 -1.0438  1.1218
 4312TIP3   OH234350   1.930   0.607   4.040 -0.6822 -0.2788  0.3112
 4312TIP3    H134351   1.842   0.638   4.062 -0.3648  1.0211 -0.2060
 4312TIP3    H234352   1.961   0.668   3.973  0.2051 -1.3601 -0.2721
 4313TIP3   OH234353   0.307   2.290   0.130 -0.3631 -0.6050  0.1398
 4313TIP3    H134354   0.348   2.226   0.072  2.6919 -0.3769  1.9237
 4313TIP3    H234355   0.319   2.253   0.218 -0.9881  1.1253  0.9766
 4314TIP3   OH234356   0.945   0.167   5.273  0.5496  0.4774 -0.0900
 4314TIP3    H134357   0.965   0.164   5.367  2.5538  0.7388 -0.4830
 4314TIP3    H234358   0.886   0.242   5.263  1.4522  1.3199  0.7720
 4315TIP3   OH234359   1.313   1.742   0.931  0.0640 -0.1613 -0.3320
 4315TIP3    H134360   1.359   1.692   0.999 -0.1771  0.5250  0.3509
 4315TIP3    H234361   1.220   1.724   0.946 -0.0954  1.3601  0.6382
 4316TIP3   OH234362   5.269   5.785  14.834 -0.4298 -0.0950  0.1167
 4316TIP3    H134363   5.283   5.833  14.752 -0.8569 -1.2464 -0.6423
 4316TIP3    H234364   5.263   5.694  14.807 -1.2572 -0.4147  1.3685
 4317TIP3   OH234365   1.130   5.522  16.231  0.3112 -0.1029 -0.6587
 4317TIP3    H134366   1.139   5.584  16.303 -1.9419 -0.4093 -0.0872
 4317TIP3    H234367   1.114   5.576  16.154 -1.1639  0.0598 -0.2486
 4318TIP3   OH234368   2.164   5.114   5.656 -0.4894 -0.2891 -0.2329
 4318TIP3    H134369   2.081   5.155   5.680 -1.4265 -1.5160 -1.2980
 4318TIP3    H234370   2.192   5.069   5.735 -0.9309 -0.0299  0.0779
 4319TIP3   OH234371   6.376   1.744   3.118 -0.3350 -0.1838 -0.1968
 4319TIP3    H134372   6.412   1.810   3.059 -0.4986  0.7614  0.7583
 4319TIP3    H234373   6.339   1.793   3.191  1.8260 -1.4243  1.8017
 4320TIP3   OH234374   5.512   6.388  14.665 -0.1669 -0.1574 -0.0673
 4320TIP3    H134375   5.452   6.463  14.666  0.9939  0.7903 -0.1545
 4320TIP3    H234376   5.457   6.313  14.687 -2.0846  0.1312 -3.5525
 4321TIP3   OH234377   4.934   4.388  16.055  0.5761 -0.0524 -0.1260
 4321TIP3    H134378   4.918   4.443  15.977 -0.5164  1.0137  0.8232
 4321TIP3    H234379   5.010   4.428  16.097  2.0572 -1.4762 -1.3726
 4322TIP3   OH234380   2.865   5.154   1.139  0.9904  0.1134  0.5414
 4322TIP3    H134381   2.885   5.088   1.073 -0.3014 -0.6208  0.8647
 4322TIP3    H234382   2.926   5.226   1.121  0.9949 -0.2931 -1.1305
 4323TIP3   OH234383   6.546   3.539   4.957 -0.8071 -0.9535 -0.6492
 4323TIP3    H134384   6.473   3.583   4.915 -1.4179  1.7161  2.9199
 4323TIP3    H234385   6.505   3.477   5.018 -0.0978 -0.7480  0.0539
 4324TIP3   OH234386   3.391   2.166  14.430 -0.2266 -0.1778 -0.4272
 4324TIP3    H134387   3.470   2.221  14.432  0.1171 -0.6591 -0.6157
 4324TIP3    H234388   3.396   2.120  14.346 -0.1712 -0.9829  0.0080
 4325TIP3   OH234389   4.780   6.240  15.692 -0.0766  0.0352  0.3239
 4325TIP3    H134390   4.727   6.258  15.615  0.0850 -0.9551 -0.0197
 4325TIP3    H234391   4.807   6.149  15.683  1.0016  0.2815  0.9046
 4326TIP3   OH234392   5.704   1.429   0.915 -0.4202  0.2961  0.0143
 4326TIP3    H134393   5.756   1.508   0.931  2.6918 -1.5827 -0.2748
 4326TIP3    H234394   5.707   1.417   0.820 -1.7502  0.3765 -0.0459
 4327TIP3   OH234395   3.104   6.749  11.020 -0.7054  0.3298  0.5647
 4327TIP3    H134396   3.119   6.825  10.964 -0.9398 -0.3818 -0.4725
 4327TIP3    H234397   3.191   6.711  11.033 -0.6640  0.4335  0.5914
 4328TIP3   OH234398   2.546   3.650   4.166 -0.7771 -0.4727  0.0866
 4328TIP3    H134399   2.633   3.622   4.194  0.2477  2.6140  0.1987
 4328TIP3    H234400   2.562   3.727   4.112 -3.5716  1.5116  1.9636
 4329TIP3   OH234401   1.341   2.145  12.923 -0.4001  0.1089  0.6968
 4329TIP3    H134402   1.359   2.151  13.017 -1.3926 -1.3426  0.9962
 4329TIP3    H234403   1.251   2.177  12.914 -0.4021 -0.0111  0.2805
 4330TIP3   OH234404   3.424   4.213  13.120 -0.2040  0.0788  0.2605
 4330TIP3    H134405   3.391   4.143  13.065  0.5397 -0.7125  0.8137
 4330TIP3    H234406   3.428   4.290  13.062  1.6114 -0.9993 -1.0830
 4331TIP3   OH234407   2.577   6.142  14.513  0.4202 -0.1786  0.1133
 4331TIP3    H134408   2.530   6.062  14.486 -0.5735  0.6450 -0.6361
 4331TIP3    H234409   2.519   6.183  14.577  0.9399 -0.0729  0.5107
 4332TIP3   OH234410   1.136   2.061  13.611  0.3831  0.2939 -0.0659
 4332TIP3    H134411   1.151   2.133  13.550  1.1194  0.5728  0.4375
 4332TIP3    H234412   1.198   1.993  13.583 -0.2706 -0.1382 -0.5071
 4333TIP3   OH234413   4.705   5.783  14.270  0.4787 -0.1540 -0.2517
 4333TIP3    H134414   4.647   5.809  14.341  1.3778 -0.1827  0.5056
 4333TIP3    H234415   4.793   5.799  14.304  0.9513 -1.1890 -0.9521
 4334TIP3   OH234416   4.729   1.295  13.138 -0.5696 -0.5886  0.1115
 4334TIP3    H134417   4.650   1.347  13.120  0.0345  0.5166  0.6350
 4334TIP3    H234418   4.766   1.278  13.051 -0.5251  0.2307 -0.0343
 4335TIP3   OH234419   1.925   6.185   0.894 -0.5540 -0.3616  0.1785
 4335TIP3    H134420   1.952   6.195   0.803  1.5431  1.0110  0.9154
 4335TIP3    H234421   1.999   6.142   0.937 -0.0264  2.1716  1.9311
 4336TIP3   OH234422   1.502   0.498   0.747  0.1888 -0.0709  0.1280
 4336TIP3    H134423   1.548   0.525   0.667 -0.1982 -0.0355 -0.0822
 4336TIP3    H234424   1.416   0.539   0.740 -0.4631 -1.5058 -0.2621
 4337TIP3   OH234425   6.451   1.123   3.848  0.5473 -0.5033 -0.0700
 4337TIP3    H134426   6.413   1.035   3.854  0.5700 -0.4887  0.2790
 4337TIP3    H234427   6.391   1.171   3.792  0.6095 -0.7822 -0.3775
 4338TIP3   OH234428   1.714   1.976   5.969  0.2160 -0.4540 -0.4835
 4338TIP3    H134429   1.714   2.054   5.913  0.8832 -1.0062 -1.2606
 4338TIP3    H234430   1.621   1.955   5.979 -0.0329  1.0670  0.6239
 4339TIP3   OH234431   0.471   1.867   4.916  0.5822 -0.7390  0.2164
 4339TIP3    H134432   0.563   1.850   4.934  0.3268 -2.1697  0.2759
 4339TIP3    H234433   0.423   1.823   4.986 -0.1088  1.5294  1.2162
 4340TIP3   OH234434   3.934   0.290  15.880 -0.3101  0.2674  0.1536
 4340TIP3    H134435   3.868   0.239  15.927 -0.0474 -0.2140  0.0123
 4340TIP3    H234436   4.010   0.289  15.938 -0.1961  0.2126  0.0043
 4341TIP3   OH234437   3.123   0.952   0.329 -0.0360 -0.0540  0.0979
 4341TIP3    H134438   3.076   1.024   0.371  0.1209 -0.3582  0.8046
 4341TIP3    H234439   3.207   0.949   0.374  1.4225  1.6852 -2.3923
 4342TIP3   OH234440   3.024   5.484   1.279  0.3001  0.1900  0.5119
 4342TIP3    H134441   3.114   5.507   1.300  1.0772 -1.2972 -1.0996
 4342TIP3    H234442   2.994   5.434   1.355  1.3096 -0.5720  0.4184
 4343TIP3   OH234443   0.297   2.070  11.143  0.1047  0.6444 -0.2680
 4343TIP3    H134444   0.335   1.995  11.097 -2.2489 -0.2814 -0.7587
 4343TIP3    H234445   0.306   2.143  11.082  2.5130  0.8148  0.2583
 4344TIP3   OH234446   4.070   0.892  14.588  0.0634 -0.2930  0.6044
 4344TIP3    H134447   4.004   0.881  14.520  3.3490 -3.2885 -2.3266
 4344TIP3    H234448   4.038   0.839  14.661 -3.5583  3.0510  1.6203
 4345TIP3   OH234449   0.693   0.654   4.530  0.0767 -0.1423  0.0678
 4345TIP3    H134450   0.739   0.572   4.545  1.0963  0.1211 -1.4788
 4345TIP3    H234451   0.756   0.709   4.484 -0.1279  1.9976  2.1888
 4346TIP3   OH234452   3.612   1.848   4.890  0.1305 -0.1945 -0.0648
 4346TIP3    H134453   3.632   1.908   4.961  3.2259  0.0768 -1.1042
 4346TIP3    H234454   3.653   1.766   4.915  0.6090 -0.3065 -1.1672
 4347TIP3   OH234455   6.096   3.396   1.087 -0.0181  0.4574 -0.4679
 4347TIP3    H134456   6.069   3.305   1.083  0.0229  0.4620 -0.9266
 4347TIP3    H234457   6.080   3.422   1.178  0.4728 -0.1590 -0.1980
 4348TIP3   OH234458   3.071   6.541  14.771 -0.4447  0.2260 -0.1760
 4348TIP3    H134459   3.013   6.467  14.789 -2.5456  1.6678 -0.7791
 4348TIP3    H234460   3.015   6.618  14.782  1.4930  1.6879 -0.3345
 4349TIP3   OH234461   1.356   4.065  12.010  0.3588 -0.5573  0.1176
 4349TIP3    H134462   1.263   4.060  11.990  0.4732  0.7336 -0.7559
 4349TIP3    H234463   1.374   3.984  12.059 -1.1063 -1.0389 -0.1126
 4350TIP3   OH234464   0.515   2.147   0.870  0.2069 -0.1176  0.4363
 4350TIP3    H134465   0.516   2.183   0.959  0.9789  0.5782  0.1575
 4350TIP3    H234466   0.560   2.213   0.818 -2.0466  0.4346 -0.8558
 4351TIP3   OH234467   3.531   5.879   0.112  0.0115 -0.1696  0.7054
 4351TIP3    H134468   3.447   5.896   0.155 -0.3740 -1.8497  0.6542
 4351TIP3    H234469   3.597   5.907   0.175 -0.5744 -0.2096  1.3394
 4352TIP3   OH234470   1.529   0.157  13.493  0.0013  0.0327  0.4154
 4352TIP3    H134471   1.463   0.182  13.429 -1.1285 -2.4639  0.5870
 4352TIP3    H234472   1.541   0.063  13.481  2.8065  0.2598  1.0717
 4353TIP3   OH234473   0.272   5.398   4.103  0.0071  0.1637  0.1262
 4353TIP3    H134474   0.307   5.405   4.014 -0.8650  0.2308 -0.2194
 4353TIP3    H234475   0.216   5.475   4.113  0.4017  0.3538  0.8689
 4354TIP3   OH234476   1.705   4.771  10.993 -0.1783  0.0854  0.4108
 4354TIP3    H134477   1.634   4.798  10.935 -1.9362  1.7985  3.2913
 4354TIP3    H234478   1.738   4.852  11.031 -0.2823 -1.1367  3.2312
 4355TIP3   OH234479   0.069   3.387   0.243 -0.1836 -0.3312 -0.9737
 4355TIP3    H134480   0.126   3.360   0.171 -2.2232 -0.8097 -2.4746
 4355TIP3    H234481  -0.007   3.426   0.200 -1.0132  0.2477  0.9642
 4356TIP3   OH234482   0.555   1.232  11.545  0.3864 -0.3445 -0.0981
 4356TIP3    H134483   0.644   1.198  11.549 -0.0928 -1.3842  2.0800
 4356TIP3    H234484   0.524   1.206  11.458  2.4876  0.8337 -1.2500
 4357TIP3   OH234485   1.745   6.217  16.944 -0.4888  0.6931  0.0273
 4357TIP3    H134486   1.787   6.301  16.962 -1.1558  1.2122 -0.7672
 4357TIP3    H234487   1.693   6.234  16.865  1.6754 -1.2514 -1.8629
 4358TIP3   OH234488   5.264   1.585  12.229  0.4096  0.3368 -0.2683
 4358TIP3    H134489   5.269   1.539  12.313 -2.0861  0.1708 -0.2000
 4358TIP3    H234490   5.356   1.604  12.208  1.1529 -0.5227  1.9821
 4359TIP3   OH234491   6.306   5.473  14.201 -0.0906 -0.7600  0.1756
 4359TIP3    H134492   6.328   5.415  14.128 -1.6059 -0.3267 -0.6410
 4359TIP3    H234493   6.338   5.427  14.278  1.2036 -1.3988 -0.7138
 4360TIP3   OH234494   3.495   6.365   0.599  0.2520 -0.2422  0.0254
 4360TIP3    H134495   3.555   6.358   0.674  1.4264 -0.9784 -0.9690
 4360TIP3    H234496   3.493   6.277   0.562 -2.0654 -0.4032  0.4999
 4361TIP3   OH234497   1.300   4.387   1.640  0.2494  0.1064  0.2941
 4361TIP3    H134498   1.239   4.439   1.588 -0.4774 -1.5776 -0.5639
 4361TIP3    H234499   1.345   4.332   1.576 -0.4937 -1.8313  1.4234
 4362TIP3   OH234500   5.197   4.182   4.715  0.2078  0.2052  0.3560
 4362TIP3    H134501   5.106   4.190   4.745 -0.6724  0.1374 -2.2035
 4362TIP3    H234502   5.192   4.123   4.640  2.3940  0.2083  0.1922
 4363TIP3   OH234503   1.923   0.540   0.978 -0.4418 -0.1231  0.2666
 4363TIP3    H134504   1.887   0.530   0.890 -1.0672 -1.6726  0.6857
 4363TIP3    H234505   1.913   0.454   1.018  0.6487  0.3315  1.5557
 4364TIP3   OH234506   3.766   3.355   3.336  0.3291 -0.9427 -0.6484
 4364TIP3    H134507   3.786   3.289   3.402 -1.5376 -1.2074 -0.3138
 4364TIP3    H234508   3.678   3.333   3.307 -0.0171  0.9558 -1.0792
 4365TIP3   OH234509   4.325   1.366   1.140  0.5618  0.4093 -0.0588
 4365TIP3    H134510   4.310   1.356   1.046 -1.5203  0.1626  0.2670
 4365TIP3    H234511   4.420   1.366   1.150  0.7915 -0.3407 -2.0796
 4366TIP3   OH234512   4.896   1.707  10.691 -0.4225 -0.0077  0.2070
 4366TIP3    H134513   4.932   1.642  10.752  0.2607  0.0437 -0.1308
 4366TIP3    H234514   4.972   1.760  10.666 -0.8492  0.4775 -0.0643
 4367TIP3   OH234515   5.053   1.111  17.038  0.7379 -0.6455 -0.0784
 4367TIP3    H134516   5.110   1.071  16.972 -0.0024 -0.7271 -0.6812
 4367TIP3    H234517   4.965   1.102  17.002  0.5059  1.0864  0.0094
 4368TIP3   OH234518   0.587   3.952   4.256  0.6952  0.0702  0.7890
 4368TIP3    H134519   0.557   3.968   4.346 -0.4143  0.7078  0.3133
 4368TIP3    H234520   0.589   4.039   4.216  0.6650 -0.2829  0.0284
 4369TIP3   OH234521   4.356   1.342  15.655  0.7346  0.6009  0.2542
 4369TIP3    H134522   4.367   1.268  15.714  2.2919  1.7927  1.4941
 4369TIP3    H234523   4.274   1.383  15.683  1.1075  0.7518  1.1157
 4370TIP3   OH234524   1.966   2.649  13.776 -0.1051 -0.3034  0.2713
 4370TIP3    H134525   2.012   2.626  13.694 -1.6389 -1.1952 -0.3658
 4370TIP3    H234526   1.919   2.729  13.756 -0.1928 -0.3250  0.3885
 4371TIP3   OH234527   5.460   1.030  11.472 -0.1135 -0.2521  0.1281
 4371TIP3    H134528   5.382   1.016  11.526 -0.0385  0.6870  0.5087
 4371TIP3    H234529   5.531   1.036  11.536  0.4100 -1.9908 -0.2741
 4372TIP3   OH234530   0.945   5.929   4.332 -0.1583 -0.2110 -0.3598
 4372TIP3    H134531   0.925   5.928   4.426  2.4300  0.1592  0.2236
 4372TIP3    H234532   0.878   5.873   4.293 -0.6573 -1.2110  1.8317
 4373TIP3   OH234533   5.508   2.276  10.882  0.8248  0.2681 -0.8637
 4373TIP3    H134534   5.442   2.211  10.857 -1.1968  1.6208  0.7784
 4373TIP3    H234535   5.517   2.333  10.806 -1.8274  1.6036 -0.2081
 4374TIP3   OH234536   6.179   5.254  13.027 -0.8827 -0.0298  0.4372
 4374TIP3    H134537   6.216   5.215  12.948 -0.6893  0.6075  0.2112
 4374TIP3    H234538   6.155   5.180  13.082 -2.4300 -0.5183 -0.8595
 4375TIP3   OH234539   2.794   2.222   5.984  0.1613  0.3476  0.0202
 4375TIP3    H134540   2.783   2.282   6.058 -2.3254  0.3083 -0.2870
 4375TIP3    H234541   2.821   2.140   6.024  2.5537  1.3420  0.5340
 4376TIP3   OH234542   6.174   3.568   3.019  0.1324 -0.6948 -0.0170
 4376TIP3    H134543   6.228   3.620   3.078  2.5966 -1.7949 -1.1996
 4376TIP3    H234544   6.113   3.522   3.076  0.3717  0.6787  1.3667
 4377TIP3   OH234545   6.116   0.386   1.137 -0.0352 -0.2518  0.2972
 4377TIP3    H134546   6.066   0.422   1.211  1.8183  1.5653  0.7305
 4377TIP3    H234547   6.185   0.333   1.178 -0.2347 -0.8897 -0.1982
 4378TIP3   OH234548   4.427   5.445   2.842 -0.4803  0.5030 -0.6504
 4378TIP3    H134549   4.393   5.470   2.928 -2.6912  1.0042 -1.6275
 4378TIP3    H234550   4.475   5.523   2.812  0.8536  0.0901  0.3966
 4379TIP3   OH234551   1.742   4.037  17.067  0.4586 -0.7999  0.2068
 4379TIP3    H134552   1.710   3.959  17.021  0.0360 -0.4133 -0.1646
 4379TIP3    H234553   1.831   4.049  17.035 -1.1330  1.7712 -3.5961
 4380TIP3   OH234554   2.522   2.036  13.912  0.3906 -0.6925 -0.3676
 4380TIP3    H134555   2.435   2.019  13.948  0.1322  1.2843 -0.0246
 4380TIP3    H234556   2.579   1.977  13.961 -0.2836  0.3092  1.7035
 4381TIP3   OH234557   0.725   6.662   0.978  0.1073 -0.2540  0.0444
 4381TIP3    H134558   0.807   6.709   0.961  0.6326 -1.4731 -0.8987
 4381TIP3    H234559   0.706   6.680   1.070  0.8365  0.9563 -0.0239
 4382TIP3   OH234560   3.301   2.737   5.468 -0.6943  0.0309  0.2671
 4382TIP3    H134561   3.311   2.816   5.414 -0.1929  0.4072  0.8906
 4382TIP3    H234562   3.256   2.768   5.547 -0.1354 -0.2237  0.6924
 4383TIP3   OH234563   4.474   3.854   0.938 -0.5918  0.0149  0.5147
 4383TIP3    H134564   4.435   3.827   1.021 -1.8708 -0.9898 -0.3993
 4383TIP3    H234565   4.403   3.849   0.875  0.8690 -1.2585 -1.0742
 4384TIP3   OH234566   4.280   3.552  15.070  0.2089 -0.4213 -0.7590
 4384TIP3    H134567   4.185   3.538  15.076 -0.0700  1.6388 -0.1442
 4384TIP3    H234568   4.292   3.601  14.989  0.8907 -1.7492 -1.4708
 4385TIP3   OH234569   1.470   0.133  13.009 -0.5091  0.5409  0.3178
 4385TIP3    H134570   1.418   0.084  12.946 -0.9633  0.1508  0.9896
 4385TIP3    H234571   1.494   0.069  13.076  0.9602  0.6831 -0.0526
 4386TIP3   OH234572   1.138   3.228  16.010  0.8063  0.4484  0.2809
 4386TIP3    H134573   1.138   3.323  16.017  0.3400  0.5069 -0.5005
 4386TIP3    H234574   1.050   3.206  15.979  1.0156 -0.2132  0.1457
 4387TIP3   OH234575   3.239   4.901  13.196  0.0021  0.3818  0.0871
 4387TIP3    H134576   3.297   4.875  13.124 -0.9784  1.8214 -1.2553
 4387TIP3    H234577   3.222   4.820  13.243  0.7367 -0.5769 -1.2481
 4388TIP3   OH234578   5.352   2.402  14.675 -0.0147  0.0411  0.1819
 4388TIP3    H134579   5.436   2.396  14.629  0.1336  0.1507  0.4332
 4388TIP3    H234580   5.321   2.312  14.681  0.9351 -0.2096  1.6428
 4389TIP3   OH234581   3.119   6.294  16.104  0.1169  0.3389  0.3239
 4389TIP3    H134582   3.059   6.363  16.132  1.2244  1.4409 -0.0273
 4389TIP3    H234583   3.148   6.253  16.186  0.3824  1.0628  0.5903
 4390TIP3   OH234584   2.050   1.959   4.447 -0.0347 -0.6641  0.2007
 4390TIP3    H134585   2.027   1.994   4.533 -0.9383  0.6327 -0.5420
 4390TIP3    H234586   1.988   2.002   4.387 -0.2632 -2.5200 -0.9219
 4391TIP3   OH234587   1.904   6.718  16.987 -0.0452  0.8033 -0.1479
 4391TIP3    H134588   1.831   6.739  17.045 -0.0538 -0.5965  0.3650
 4391TIP3    H234589   1.971   6.783  17.009 -0.8976  1.7043 -0.1827
 4392TIP3   OH234590   3.775   0.854  15.841 -0.1338  0.4482  0.0841
 4392TIP3    H134591   3.742   0.943  15.829  2.4313  1.2824 -1.0599
 4392TIP3    H234592   3.869   0.861  15.827  0.1336 -2.4308  0.1465
 4393TIP3   OH234593   4.268   1.444  16.319 -0.1290 -0.2166  0.1542
 4393TIP3    H134594   4.298   1.416  16.406  1.8925  4.0018  0.9508
 4393TIP3    H234595   4.223   1.526  16.335  1.9242  1.6109 -2.9567
 4394TIP3   OH234596   1.933   4.109  13.117 -0.0054  0.0282  0.1810
 4394TIP3    H134597   1.974   4.168  13.054 -2.1433  3.1614  1.5887
 4394TIP3    H234598   1.863   4.066  13.067 -0.1787  0.7260 -0.1775
 4395TIP3   OH234599   0.170   1.654  14.029 -0.0501 -0.8281  0.1278
 4395TIP3    H134600   0.095   1.624  14.080 -0.2662 -0.6174 -0.0644
 4395TIP3    H234601   0.135   1.667  13.941  0.2305 -0.8031  0.0209
 4396TIP3   OH234602   4.834   0.875  14.369 -0.1292  0.2116  0.4225
 4396TIP3    H134603   4.928   0.871  14.386  0.2739  0.3096 -1.6629
 4396TIP3    H234604   4.825   0.849  14.278 -2.2089 -0.4921  0.8003
 4397TIP3   OH234605   4.042   4.561   0.842  0.1076  0.0798  0.5483
 4397TIP3    H134606   4.043   4.605   0.927 -1.5800 -0.1372  0.7021
 4397TIP3    H234607   4.053   4.468   0.863 -0.0680  0.0507  0.5110
 4398TIP3   OH234608   2.136   0.465  16.756 -0.9239  0.6500 -0.0136
 4398TIP3    H134609   2.208   0.404  16.739 -0.7538  1.6550 -3.2764
 4398TIP3    H234610   2.065   0.435  16.699 -1.6592  2.0833  0.1200
 4399TIP3   OH234611   1.832   1.491   3.234 -0.2317 -0.0784  0.1224
 4399TIP3    H134612   1.755   1.536   3.268  0.2870  1.1478 -0.2798
 4399TIP3    H234613   1.852   1.424   3.300 -1.3554 -0.0974  0.4483
 4400TIP3   OH234614   6.640   0.554  13.233  0.7731  0.4001  0.7474
 4400TIP3    H134615   6.563   0.504  13.260  0.4122  0.0296 -0.9598
 4400TIP3    H234616   6.655   0.615  13.306 -0.1969 -0.5661  1.7771
 4401TIP3   OH234617   6.208   0.274  13.330  0.1327  0.5684  0.1281
 4401TIP3    H134618   6.170   0.281  13.418 -1.7467  2.2612 -0.8112
 4401TIP3    H234619   6.245   0.185  13.328 -0.3650  0.2695  2.3819
 4402TIP3   OH234620   1.224   2.702  11.133  0.2012 -0.1455  0.4642
 4402TIP3    H134621   1.278   2.652  11.194  3.1685  0.5635 -1.4875
 4402TIP3    H234622   1.176   2.636  11.083 -0.0459 -0.8278  1.5915
 4403TIP3   OH234623   6.664   0.072   4.115  0.2261  0.0257 -0.7010
 4403TIP3    H134624   6.727   0.144   4.120  0.3011 -0.1549  1.5983
 4403TIP3    H234625   6.618   0.087   4.033  2.3410  0.9239 -1.7737
 4404TIP3   OH234626   2.963   2.151  15.631  0.2489 -0.0744  0.4029
 4404TIP3    H134627   2.876   2.142  15.670  0.3370 -0.7977  0.4406
 4404TIP3    H234628   2.965   2.086  15.560  1.5909 -1.7626  1.9212
 4405TIP3   OH234629   3.545   1.272  15.041 -0.0673 -0.0399 -0.0310
 4405TIP3    H134630   3.471   1.263  14.981  0.1109 -0.2810 -0.2195
 4405TIP3    H234631   3.567   1.365  15.039 -0.5740  0.0885  0.2825
 4406TIP3   OH234632   3.236   0.550   6.001 -0.0583 -0.2666  0.0956
 4406TIP3    H134633   3.172   0.526   5.934 -0.1352  1.0452 -0.3253
 4406TIP3    H234634   3.288   0.620   5.960  1.5637 -1.2379  0.4843
 4407TIP3   OH234635   3.933   6.604  16.759 -0.5483  0.0305 -0.0721
 4407TIP3    H134636   3.938   6.698  16.777 -1.3957  0.4602 -1.9403
 4407TIP3    H234637   3.951   6.562  16.843 -3.1143  1.9272  1.5177
 4408TIP3   OH234638   5.997   5.559   4.479  0.1072  0.0475 -0.3364
 4408TIP3    H134639   6.067   5.604   4.430  0.3523  0.6950  0.5950
 4408TIP3    H234640   5.927   5.624   4.485 -0.1405 -0.2220 -0.3067
 4409TIP3   OH234641   1.961   1.683  10.621 -0.2892 -0.6589 -0.1170
 4409TIP3    H134642   1.888   1.640  10.667 -0.5896 -0.2860 -0.2468
 4409TIP3    H234643   1.932   1.773  10.608  0.6736 -0.2047  0.8635
 4410TIP3   OH234644   6.645   4.121   3.305  0.1902  0.0024 -0.2153
 4410TIP3    H134645   6.558   4.139   3.342  0.0537  0.8767 -0.9457
 4410TIP3    H234646   6.666   4.199   3.253  1.5099 -0.1118  0.1282
 4411TIP3   OH234647   0.926   0.092   4.674 -0.0646  0.3439  0.1833
 4411TIP3    H134648   1.020   0.083   4.686 -0.2837  0.5097  2.3296
 4411TIP3    H234649   0.914   0.104   4.580  2.3345  3.5019  0.2186
 4412TIP3   OH234650   2.151   3.612   5.651 -0.1907 -0.6070 -0.5208
 4412TIP3    H134651   2.160   3.519   5.668 -0.1207 -0.7393 -1.2465
 4412TIP3    H234652   2.239   3.648   5.666 -0.1991 -0.6708 -0.3217
 4413TIP3   OH234653   2.888   0.679  16.670  0.4823 -0.0633 -0.1503
 4413TIP3    H134654   2.943   0.636  16.735  0.6716 -0.4756 -0.5904
 4413TIP3    H234655   2.870   0.612  16.605 -1.5091 -0.2839  0.5874
 4414TIP3   OH234656   2.446   5.735  11.399 -0.4530 -0.0907 -0.0974
 4414TIP3    H134657   2.380   5.802  11.378 -0.7676  0.3481  2.1082
 4414TIP3    H234658   2.517   5.784  11.441  0.1038 -0.9075 -0.0726
 4415TIP3   OH234659   0.690   0.941   5.158  0.4740 -0.0871 -0.1626
 4415TIP3    H134660   0.598   0.954   5.179 -0.4766 -1.8031 -2.9643
 4415TIP3    H234661   0.703   0.846   5.161  1.7029  0.0149 -1.4009
 4416TIP3   OH234662   6.077   5.878   1.094 -0.7427 -0.2600 -0.0240
 4416TIP3    H134663   6.052   5.788   1.116 -1.6135 -0.2244 -0.8473
 4416TIP3    H234664   6.008   5.908   1.035  0.4240  0.3706 -1.0924
 4417TIP3   OH234665   2.351   1.607   5.029  0.2564 -0.2987 -0.1481
 4417TIP3    H134666   2.269   1.568   4.999  0.1048 -0.1969  0.1393
 4417TIP3    H234667   2.398   1.628   4.948 -0.6628  1.0774 -0.3273
 4418TIP3   OH234668   3.298   4.011  16.292  0.1734 -0.2608 -0.5740
 4418TIP3    H134669   3.265   4.021  16.381 -1.2062 -0.1701 -1.0770
 4418TIP3    H234670   3.229   3.964  16.246  0.0867  1.2573 -2.0381
 4419TIP3   OH234671   2.666   1.855  12.700 -0.2722  0.5108  0.0939
 4419TIP3    H134672   2.702   1.939  12.672  0.6595  0.0780 -0.0211
 4419TIP3    H234673   2.603   1.832  12.632 -0.8302  1.3202  0.3392
 4420TIP3   OH234674   0.720   0.213   1.694 -0.0045 -0.2589  0.0299
 4420TIP3    H134675   0.746   0.282   1.755  0.6793  0.2768 -0.8629
 4420TIP3    H234676   0.690   0.260   1.616 -0.8786 -0.9400 -0.0525
 4421TIP3   OH234677   0.718   2.666   5.422 -0.3373  0.2753 -0.0886
 4421TIP3    H134678   0.678   2.750   5.399  0.8175  0.4992 -1.3532
 4421TIP3    H234679   0.685   2.604   5.357  0.0731  0.1004 -0.1358
 4422TIP3   OH234680   0.548   5.300   1.239  0.2314 -0.4314 -0.4411
 4422TIP3    H134681   0.525   5.286   1.331  0.7022 -0.3200 -0.3044
 4422TIP3    H234682   0.471   5.343   1.201  0.4287  0.4590  0.1442
 4423TIP3   OH234683   5.190   4.118  15.875  0.2428 -0.0719  0.2760
 4423TIP3    H134684   5.129   4.057  15.834 -1.5280  0.5893  1.8401
 4423TIP3    H234685   5.234   4.162  15.802 -1.6070 -0.1088 -0.8843
 4424TIP3   OH234686   1.646   0.388  13.092  0.0300 -0.0390  0.1603
 4424TIP3    H134687   1.690   0.361  13.011  0.0251  0.7445 -0.1126
 4424TIP3    H234688   1.576   0.323  13.103  0.7425 -0.8209  0.1621
 4425TIP3   OH234689   0.201   4.635  13.981 -0.4735 -0.6908  0.3699
 4425TIP3    H134690   0.143   4.559  13.974  1.1110 -2.0282  1.5173
 4425TIP3    H234691   0.166   4.685  14.055 -0.6659 -1.0598  0.5295
 4426TIP3   OH234692   4.861   1.075   2.848  0.6019 -0.0715  0.4954
 4426TIP3    H134693   4.769   1.062   2.826  0.4841 -0.4102  1.1630
 4426TIP3    H234694   4.908   1.005   2.803  0.5972  0.4305 -0.2925
 4427TIP3   OH234695   6.098   2.464   3.371 -0.2834  0.1649 -0.0175
 4427TIP3    H134696   6.038   2.474   3.297 -1.9327 -0.5705  1.1931
 4427TIP3    H234697   6.110   2.369   3.379  1.7588  0.3217 -0.7770
 4428TIP3   OH234698   4.278   0.425  13.112 -0.1428 -0.5615  0.0793
 4428TIP3    H134699   4.185   0.425  13.135 -0.9638 -0.6118 -2.9518
 4428TIP3    H234700   4.285   0.492  13.044  1.9902 -0.8253  0.0116
 4429TIP3   OH234701   5.344   2.367   2.363 -0.2719  0.4687  0.1923
 4429TIP3    H134702   5.344   2.411   2.448 -1.2395 -0.3134  0.6065
 4429TIP3    H234703   5.258   2.387   2.326  0.1567  0.8284 -0.6139
 4430TIP3   OH234704   0.320   5.106  17.064 -0.3835  0.6683  0.3220
 4430TIP3    H134705   0.290   5.161  17.136 -1.1954 -0.2455  0.6942
 4430TIP3    H234706   0.312   5.161  16.987 -1.8955  0.8489  0.5889
 4431TIP3   OH234707   5.344   3.136   1.044 -0.0830  0.0135 -0.2801
 4431TIP3    H134708   5.356   3.084   0.965 -0.0324  0.8688 -0.8435
 4431TIP3    H234709   5.321   3.072   1.112 -2.6681 -0.4595 -1.5405
 4432TIP3   OH234710   4.405   1.207  14.276  0.3166  0.1738 -0.4627
 4432TIP3    H134711   4.486   1.166  14.305  1.4206  1.7755 -1.1504
 4432TIP3    H234712   4.403   1.291  14.322 -0.2960  0.7024 -1.4354
 4433TIP3   OH234713   6.149   3.982   0.141 -0.2368 -0.4275  0.2433
 4433TIP3    H134714   6.059   3.955   0.127 -0.7552  1.8088 -0.9468
 4433TIP3    H234715   6.184   3.918   0.203 -2.8134 -0.9608  1.1965
 4434TIP3   OH234716   5.983   4.746   2.718 -0.2459 -0.2821  0.1680
 4434TIP3    H134717   5.957   4.658   2.747  0.4348 -0.0861  1.4465
 4434TIP3    H234718   6.064   4.732   2.669  1.5961 -0.1103  2.9908
 4435TIP3   OH234719   4.904   3.484   1.967  0.0886 -0.0412  0.2791
 4435TIP3    H134720   4.948   3.536   1.900 -1.6658  1.4650  0.2387
 4435TIP3    H234721   4.932   3.394   1.950  2.5689  0.7673 -0.1368
 4436TIP3   OH234722   5.887   0.601   3.095  0.7446 -0.3094 -0.0878
 4436TIP3    H134723   5.850   0.564   3.015 -1.0764 -2.3403  1.6187
 4436TIP3    H234724   5.948   0.534   3.127  1.6482  0.5902  0.0941
 4437TIP3   OH234725   2.183   0.463  11.963  0.9781 -0.3448  0.1696
 4437TIP3    H134726   2.235   0.542  11.979 -0.7663  0.7622  0.5107
 4437TIP3    H234727   2.208   0.403  12.033 -0.3943  1.3104  2.1296
 4438TIP3   OH234728   3.079   2.709   4.334  0.3401 -0.5755 -0.2597
 4438TIP3    H134729   2.985   2.725   4.322  0.1178 -1.1574  0.6696
 4438TIP3    H234730   3.083   2.633   4.392  1.3870  0.3845  0.9577
 4439TIP3   OH234731   2.900   3.876   6.457  0.3328  0.0595  0.4216
 4439TIP3    H134732   2.891   3.968   6.483  0.4393  0.1452  0.1612
 4439TIP3    H234733   2.986   3.871   6.415  0.5388 -0.2699  0.8856
 4440TIP3   OH234734   0.140   2.944  15.780  0.1467 -0.5630  0.4061
 4440TIP3    H134735   0.143   2.895  15.862 -0.4544  0.3225  0.9639
 4440TIP3    H234736   0.232   2.953  15.755  0.3957 -0.0920  1.4372
 4441TIP3   OH234737   0.065   0.188  15.435 -0.1060 -0.0930 -0.2407
 4441TIP3    H134738   0.111   0.124  15.381 -0.7812  0.0631 -1.0251
 4441TIP3    H234739   0.132   0.225  15.492  0.5100 -0.6720 -0.5879
 4442TIP3   OH234740   3.337   3.472   3.074  0.2193  0.1429 -0.1078
 4442TIP3    H134741   3.316   3.464   2.981 -0.2511  1.9809 -0.1941
 4442TIP3    H234742   3.267   3.424   3.118 -1.0802  1.5250 -0.6199
 4443TIP3   OH234743   1.229   0.156  11.561 -0.6242 -0.1405 -0.2058
 4443TIP3    H134744   1.144   0.114  11.567  0.5047 -2.4357  0.4097
 4443TIP3    H234745   1.247   0.161  11.467 -0.6778 -1.3309 -0.2950
 4444TIP3   OH234746   5.937   4.007  13.492 -0.3298 -0.0800 -0.0894
 4444TIP3    H134747   5.981   4.092  13.491 -0.2643 -0.0527  2.5570
 4444TIP3    H234748   6.004   3.945  13.463  0.2613  0.4675  0.0984
 4445TIP3   OH234749   6.244   3.485   1.906 -1.0748  0.2365  0.1648
 4445TIP3    H134750   6.176   3.506   1.843  0.4880  1.2098 -1.2362
 4445TIP3    H234751   6.269   3.570   1.944 -2.0890 -0.3443  2.2235
 4446TIP3   OH234752   2.226   4.472   2.520 -0.2299 -0.0919  0.2494
 4446TIP3    H134753   2.161   4.510   2.461 -0.0875  0.1426  0.2454
 4446TIP3    H234754   2.246   4.542   2.582 -1.3962 -0.7624  1.4182
 4447TIP3   OH234755   5.741   4.943  17.175 -0.3067  0.0035 -0.3720
 4447TIP3    H134756   5.651   4.959  17.148 -0.5555 -1.0984 -0.2131
 4447TIP3    H234757   5.782   5.030  17.172 -1.4202  0.5532 -0.2319
 4448TIP3   OH234758   4.969   4.157   5.005  0.3640 -0.5944 -0.1703
 4448TIP3    H134759   5.024   4.217   5.055 -1.9777  0.1436  1.6079
 4448TIP3    H234760   4.940   4.209   4.929 -1.3281  0.4649  1.1513
 4449TIP3   OH234761   4.652   3.310  12.052  0.6106 -0.4686  0.3018
 4449TIP3    H134762   4.567   3.351  12.034 -0.5953 -2.3648  1.4727
 4449TIP3    H234763   4.658   3.308  12.147  1.6903 -0.9218  0.2332
 4450TIP3   OH234764   0.615   5.484  11.767  1.2742 -0.1730 -0.1056
 4450TIP3    H134765   0.579   5.503  11.854 -0.6229  0.0960 -0.9210
 4450TIP3    H234766   0.710   5.491  11.778  1.0552  0.0161  1.9001
 4451TIP3   OH234767   6.715   4.325   3.124 -0.3247 -0.6660  0.2127
 4451TIP3    H134768   6.688   4.327   3.032  0.4971  1.0745 -0.0111
 4451TIP3    H234769   6.803   4.287   3.123 -0.7946 -1.7969  0.4320
 4452TIP3   OH234770   1.292   1.300  14.908 -0.6714 -0.1081 -0.2552
 4452TIP3    H134771   1.294   1.385  14.863  1.4706 -0.7281 -1.4197
 4452TIP3    H234772   1.312   1.321  15.000  0.5943  0.5912 -0.6753
 4453TIP3   OH234773   0.486   4.989  10.973 -0.3823  0.2528  0.1914
 4453TIP3    H134774   0.517   5.080  10.971 -1.0024  0.5146  1.8386
 4453TIP3    H234775   0.392   4.996  10.955 -0.3893 -0.0930  0.0921
 4454TIP3   OH234776   3.040   4.353  15.190 -0.2104  0.0322  0.2966
 4454TIP3    H134777   3.052   4.312  15.275 -1.1080  0.1073  0.4654
 4454TIP3    H234778   3.114   4.414  15.181 -0.9700  1.1955  1.7166
 4455TIP3   OH234779   0.733   2.916   2.665  0.1876  0.3839  0.1024
 4455TIP3    H134780   0.685   2.890   2.744 -1.3290  0.9486 -0.6216
 4455TIP3    H234781   0.822   2.932   2.695 -0.3597  0.4957  1.6836
 4456TIP3   OH234782   5.217   1.150   1.300 -0.2597 -0.6530 -0.0677
 4456TIP3    H134783   5.178   1.167   1.386  0.4203  2.1454 -0.2615
 4456TIP3    H234784   5.143   1.155   1.239 -0.6101 -1.8242  0.2477
 4457TIP3   OH234785   3.757   3.047  13.379 -0.2530 -0.3646  0.0989
 4457TIP3    H134786   3.719   3.005  13.302  1.1549 -1.1094 -0.1871
 4457TIP3    H234787   3.851   3.045  13.364 -0.0191  0.2455  1.4499
 4458TIP3   OH234788   1.529   3.592   1.825 -0.0248 -0.1671 -0.4700
 4458TIP3    H134789   1.482   3.541   1.892  0.5777  0.9735  0.8464
 4458TIP3    H234790   1.586   3.529   1.782 -1.0752 -1.1003 -0.5264
 4459TIP3   OH234791   1.711   3.964   3.047  0.6583 -0.0766  0.2594
 4459TIP3    H134792   1.743   3.916   3.123  1.8883  2.2313  1.2672
 4459TIP3    H234793   1.774   3.944   2.978  0.5252 -0.7972  0.3433
 4460TIP3   OH234794   6.192   1.081  16.609  0.1477  0.1234 -0.0366
 4460TIP3    H134795   6.105   1.041  16.614  0.3480 -0.4536 -1.0229
 4460TIP3    H234796   6.176   1.168  16.573 -0.0423  0.0668 -0.0920
 4461TIP3   OH234797   2.340   6.476   3.693  0.0463 -0.4089 -0.3772
 4461TIP3    H134798   2.374   6.565   3.682 -0.4933 -0.2615 -0.8248
 4461TIP3    H234799   2.279   6.482   3.766  0.2707 -0.4849 -0.1819
 4462TIP3   OH234800   2.770   0.565  16.450  0.4549 -0.4309  0.2502
 4462TIP3    H134801   2.688   0.517  16.462  0.3396 -0.3780 -0.3450
 4462TIP3    H234802   2.837   0.497  16.441  0.4488 -0.4739  0.5192
 4463TIP3   OH234803   1.364   3.903  12.670  0.0990  0.0235 -0.1459
 4463TIP3    H134804   1.298   3.972  12.661 -0.5955 -0.2818  2.3702
 4463TIP3    H234805   1.344   3.842  12.599 -1.6612  0.4615 -0.0508
 4464TIP3   OH234806   3.169   0.645  16.796 -0.2460  0.0918  0.4895
 4464TIP3    H134807   3.192   0.734  16.822  1.8756 -0.3274  0.1067
 4464TIP3    H234808   3.181   0.593  16.876  4.1874 -0.8224 -0.6714
 4465TIP3   OH234809   0.963   0.685  13.791  0.2444  0.4639  0.5918
 4465TIP3    H134810   1.058   0.678  13.797  0.0862 -0.8788  1.9204
 4465TIP3    H234811   0.932   0.673  13.881 -1.2986 -1.2794 -0.1230
 4466TIP3   OH234812   1.450   2.581   0.679  0.5082  0.2542  0.3431
 4466TIP3    H134813   1.455   2.561   0.772 -0.5818 -1.0686  0.1347
 4466TIP3    H234814   1.356   2.583   0.660  0.7284 -0.2955 -0.8847
 4467TIP3   OH234815   4.190   1.857  15.121 -0.1833  0.3634 -0.5265
 4467TIP3    H134816   4.096   1.875  15.125 -0.1678 -0.0365  2.4765
 4467TIP3    H234817   4.196   1.762  15.112 -0.0464  0.4819 -1.8540
 4468TIP3   OH234818   0.646   6.377  14.303 -0.3503 -0.1852  0.6257
 4468TIP3    H134819   0.578   6.346  14.363 -1.3016 -0.9350 -0.8052
 4468TIP3    H234820   0.633   6.325  14.224 -0.5375  2.2907 -1.0292
 4469TIP3   OH234821   5.248   2.038  16.509 -0.5142  0.1637 -0.0242
 4469TIP3    H134822   5.217   2.034  16.600 -0.3322  0.7342  0.0610
 4469TIP3    H234823   5.233   2.128  16.482  0.7976  0.3707 -0.0839
 4470TIP3   OH234824   2.079   0.192   3.169 -1.1445  0.4762  0.2020
 4470TIP3    H134825   2.150   0.251   3.145  1.1043 -1.3926  2.0300
 4470TIP3    H234826   2.039   0.168   3.086  1.7486 -0.1138 -1.0804
 4471TIP3   OH234827   1.262   2.550  15.852 -0.1215 -0.0876 -0.5512
 4471TIP3    H134828   1.333   2.520  15.909  1.0215  0.6599 -1.5618
 4471TIP3    H234829   1.203   2.597  15.911  1.9701  2.2601 -0.2527
 4472TIP3   OH234830   6.584   1.980  13.575 -0.0850 -0.3349 -0.0206
 4472TIP3    H134831   6.618   2.054  13.624 -0.7965 -0.4808  0.7068
 4472TIP3    H234832   6.653   1.959  13.513  1.2125 -0.6929  1.4945
 4473TIP3   OH234833   0.090   1.299  12.018  0.2413 -0.4501  0.2112
 4473TIP3    H134834   0.065   1.286  12.109  2.1495 -0.3415  0.7897
 4473TIP3    H234835   0.091   1.211  11.980  1.3685 -0.7306  0.8510
 4474TIP3   OH234836   5.300   2.593  16.201 -0.3036 -0.9203 -0.2163
 4474TIP3    H134837   5.369   2.535  16.234  0.8834  1.2769  1.3063
 4474TIP3    H234838   5.298   2.576  16.107  1.2764 -2.1306 -0.0582
 4475TIP3   OH234839   0.657   2.933   4.706 -0.4158  0.6164 -0.8790
 4475TIP3    H134840   0.594   2.985   4.656 -1.5273 -1.9924 -2.3090
 4475TIP3    H234841   0.645   2.844   4.674  2.3943 -0.3250  0.5146
 4476TIP3   OH234842   0.195   5.266   0.047  0.1453  0.1807 -0.2581
 4476TIP3    H134843   0.178   5.316   0.127  0.5706 -1.3846  0.8524
 4476TIP3    H234844   0.216   5.332  -0.019 -0.3591  1.5102  0.8868
 4477TIP3   OH234845   4.384   4.156  14.723  0.2292 -0.2716  0.0969
 4477TIP3    H134846   4.335   4.096  14.779  0.0117 -0.3650 -0.1929
 4477TIP3    H234847   4.321   4.224  14.699  0.2420 -0.3890 -0.2718
 4478TIP3   OH234848   2.688   6.688   2.456  0.3278  0.2998  0.8855
 4478TIP3    H134849   2.694   6.724   2.544 -0.1742  1.5542  0.4157
 4478TIP3    H234850   2.674   6.764   2.400  1.7541 -0.3625 -0.4087
 4479TIP3   OH234851   4.950   6.006   5.687  0.5777 -0.1321 -0.0170
 4479TIP3    H134852   5.045   5.994   5.698  0.7438 -0.0515 -1.2614
 4479TIP3    H234853   4.923   6.056   5.764  1.5345 -0.2036  0.3782
 4480TIP3   OH234854   2.509   6.123  15.547  0.3132 -0.4226  0.2909
 4480TIP3    H134855   2.461   6.100  15.627 -0.2825  2.4338  0.8184
 4480TIP3    H234856   2.560   6.200  15.572  2.0052 -0.9669 -1.4266
 4481TIP3   OH234857   2.190   5.113  11.613 -0.3461  0.4894 -0.4380
 4481TIP3    H134858   2.221   5.041  11.667 -0.0737  0.2469 -0.9174
 4481TIP3    H234859   2.123   5.156  11.666  1.1043  1.2967  0.7928
 4482TIP3   OH234860   4.365   3.889  17.137 -1.0922 -0.2072  0.1651
 4482TIP3    H134861   4.428   3.817  17.135 -2.0763 -1.0742 -0.4644
 4482TIP3    H234862   4.289   3.853  17.184 -1.5371  0.4629 -0.0281
 4483TIP3   OH234863   6.053   2.118  14.717  1.0232 -0.0665  0.1870
 4483TIP3    H134864   6.090   2.114  14.805  1.2110  1.0488  0.1739
 4483TIP3    H234865   6.034   2.027  14.695  0.9239 -0.3599  1.3990
 4484TIP3   OH234866   3.883   6.156  15.411 -0.0918  0.1383 -0.0059
 4484TIP3    H134867   3.866   6.219  15.481 -0.9696 -0.4632  0.3298
 4484TIP3    H234868   3.804   6.159  15.357  0.6684  0.7627 -1.1099
 4485TIP3   OH234869   5.337   1.395   1.520  0.0559 -0.1747  0.0279
 4485TIP3    H134870   5.425   1.406   1.556 -0.1497  0.2872  0.4138
 4485TIP3    H234871   5.324   1.472   1.465 -0.8810  0.8753  1.6415
 4486TIP3   OH234872   4.740   2.321   0.894 -0.1742 -0.2082  0.1027
 4486TIP3    H134873   4.664   2.322   0.952  1.0543 -0.7688  1.7631
 4486TIP3    H234874   4.804   2.266   0.939  0.4848 -1.4135 -2.2417
 4487TIP3   OH234875   4.041   1.122   5.460  0.5132  0.5424  0.2847
 4487TIP3    H134876   4.012   1.205   5.498 -0.9461  0.6818 -1.1152
 4487TIP3    H234877   4.127   1.142   5.422  0.9107  0.9821  1.3907
 4488TIP3   OH234878   4.493   1.512   0.355 -0.2153  0.2839  0.3708
 4488TIP3    H134879   4.434   1.518   0.280  1.2847 -0.6027 -0.9071
 4488TIP3    H234880   4.443   1.464   0.422  0.1662 -3.4205 -1.8694
 4489TIP3   OH234881   6.571   3.096  14.336 -0.4770  0.4901 -0.1407
 4489TIP3    H134882   6.631   3.171  14.335  0.5504 -0.2989  1.2555
 4489TIP3    H234883   6.604   3.039  14.267  0.1917  0.2184  0.3945
 4490TIP3   OH234884   6.060   1.096   6.489  0.5288  0.5201  0.5080
 4490TIP3    H134885   6.078   1.015   6.443  0.6195 -0.7657  2.7164
 4490TIP3    H234886   6.140   1.148   6.478  0.7575  0.0014 -0.2826
 4491TIP3   OH234887   6.701   4.210   3.621  0.3657  0.1884 -0.2689
 4491TIP3    H134888   6.722   4.216   3.528 -1.2067 -1.2141 -0.7210
 4491TIP3    H234889   6.767   4.150   3.657 -0.9081 -1.7379 -1.0899
 4492TIP3   OH234890   5.118   5.520   6.253  0.7568  0.2146  0.1864
 4492TIP3    H134891   5.173   5.480   6.185  0.5302  0.1812  0.0226
 4492TIP3    H234892   5.029   5.490   6.232  0.8173 -0.6190  1.0765
 4493TIP3   OH234893   1.147   2.077  12.250 -0.9220 -0.3524 -0.0241
 4493TIP3    H134894   1.178   2.125  12.327  0.8173  1.7143 -1.9235
 4493TIP3    H234895   1.187   1.990  12.259  1.5115  0.7365  0.0524
 4494TIP3   OH234896   1.754   1.621  11.903  0.1726 -0.1252  0.8503
 4494TIP3    H134897   1.807   1.545  11.879 -0.5353  0.3253 -2.3210
 4494TIP3    H234898   1.682   1.585  11.954 -0.0388 -1.5897 -0.4526
 4495TIP3   OH234899   1.275   2.791  10.679 -0.6957 -0.1432  0.5544
 4495TIP3    H134900   1.207   2.831  10.735 -1.0651 -0.0016  0.0108
 4495TIP3    H234901   1.334   2.863  10.659 -0.7991 -0.0968  0.4143
 4496TIP3   OH234902   4.057   1.927  16.348  0.6837 -0.6271  0.1389
 4496TIP3    H134903   4.112   2.005  16.352 -1.0544  0.6880 -0.8807
 4496TIP3    H234904   4.118   1.854  16.362  2.5447  0.8219 -0.1734
 4497TIP3   OH234905   6.226   4.965   2.824  0.3295 -0.0374  0.1905
 4497TIP3    H134906   6.257   4.930   2.740  0.8671  0.8210  0.0185
 4497TIP3    H234907   6.135   4.936   2.830  0.8407 -1.6603  0.1746
 4498TIP3   OH234908   6.300   2.955   2.096 -0.0297  0.2869  0.2595
 4498TIP3    H134909   6.242   2.951   2.171 -0.4970 -2.3100 -0.1826
 4498TIP3    H234910   6.273   3.033   2.047 -0.2636  1.5172  2.3085
 4499TIP3   OH234911   0.431   1.649   1.215  0.2336  0.9059 -0.4036
 4499TIP3    H134912   0.453   1.741   1.223 -1.3117  1.3140 -0.6981
 4499TIP3    H234913   0.343   1.641   1.252  0.6010 -0.5678  0.2162
 4500TIP3   OH234914   5.725   5.759  14.528  0.0829 -0.0647  0.5131
 4500TIP3    H134915   5.702   5.666  14.527  1.4940 -0.4150 -0.2265
 4500TIP3    H234916   5.750   5.779  14.438  1.5962  0.5523  1.0456
 4501TIP3   OH234917   2.725   3.900  14.051 -0.7827  0.1222  0.4339
 4501TIP3    H134918   2.728   3.825  13.992 -0.0308 -0.7366  1.5553
 4501TIP3    H234919   2.677   3.869  14.127  0.3101  0.5083  1.2865
 4502TIP3   OH234920   1.485   1.699   0.736  0.4460 -0.0595  0.2524
 4502TIP3    H134921   1.424   1.717   0.807  1.8233 -0.0591  1.4637
 4502TIP3    H234922   1.508   1.786   0.702  0.2689 -0.0264  0.2158
 4503TIP3   OH234923   1.930   3.950  14.831  0.3499  0.0612  0.2412
 4503TIP3    H134924   1.854   3.990  14.873 -0.3897  1.1178 -2.0102
 4503TIP3    H234925   1.976   3.904  14.902 -1.3708  0.9507  1.9693
 4504TIP3   OH234926   5.792   0.098   0.507 -0.0660 -0.1004  0.3278
 4504TIP3    H134927   5.857   0.083   0.577 -1.3251 -3.4632  0.8950
 4504TIP3    H234928   5.840   0.078   0.426 -0.2403 -2.3384  0.7275
 4505TIP3   OH234929   4.480   2.592  11.321  0.2859  0.0848  0.3316
 4505TIP3    H134930   4.475   2.686  11.303 -1.2496 -0.0196  0.1258
 4505TIP3    H234931   4.452   2.551  11.239 -0.3563 -0.5219  0.8469
 4506TIP3   OH234932   0.792   4.615   4.491  0.3269 -0.2913  0.5747
 4506TIP3    H134933   0.841   4.611   4.573  0.5481 -0.5461  0.4343
 4506TIP3    H234934   0.709   4.656   4.513  0.0249 -1.1733  1.1076
 4507TIP3   OH234935   1.889   2.467  15.904  0.2588 -0.2217  0.2332
 4507TIP3    H134936   1.806   2.500  15.938  0.1268 -0.5327  0.2169
 4507TIP3    H234937   1.901   2.513  15.821 -0.2647 -0.7181 -0.1231
 4508TIP3   OH234938   0.142   3.009   2.098  0.2779  0.2561  0.1176
 4508TIP3    H134939   0.090   2.960   2.034 -2.1070  1.1512  1.2980
 4508TIP3    H234940   0.178   3.082   2.048 -1.2384  0.7242 -0.3460
 4509TIP3   OH234941   5.136   2.099   1.058 -0.4735 -0.3778 -0.5192
 4509TIP3    H134942   5.059   2.096   1.115 -0.8637 -1.1795 -1.0750
 4509TIP3    H234943   5.100   2.096   0.969  0.1259  1.0002 -0.8122
 4510TIP3   OH234944   6.121   4.611   5.687  0.3674 -0.0334  0.1662
 4510TIP3    H134945   6.101   4.547   5.618 -1.0228 -0.7163  1.1762
 4510TIP3    H234946   6.068   4.687   5.664  0.6397  0.1000 -0.0314
 4511TIP3   OH234947   1.175   1.212  11.738  0.1542 -0.3846  0.0055
 4511TIP3    H134948   1.259   1.243  11.772 -0.0015 -1.9055  1.8424
 4511TIP3    H234949   1.134   1.290  11.700  1.3453  0.8819  1.2747
 4512TIP3   OH234950   6.779   6.340  10.152  0.2542 -0.1491 -0.4620
 4512TIP3    H134951   6.801   6.383  10.235  1.3147 -0.3424 -0.6403
 4512TIP3    H234952   6.725   6.404  10.106 -0.2711 -0.0047  0.3399
 4513TIP3   OH234953   2.905   4.371   3.988  0.4706  0.0967 -0.4879
 4513TIP3    H134954   2.962   4.303   4.024  1.3219  1.4536  0.7869
 4513TIP3    H234955   2.825   4.366   4.041  1.4345  1.5979  1.1759
 4514TIP3   OH234956   3.290   5.619  14.395  0.1377 -0.4178  0.8370
 4514TIP3    H134957   3.254   5.704  14.369 -0.4464 -0.8459  0.2364
 4514TIP3    H234958   3.379   5.639  14.423 -0.6512  0.6907  2.6507
 4515TIP3   OH234959   0.419   2.317  16.643  0.3818  0.2433 -0.6871
 4515TIP3    H134960   0.459   2.250  16.699  1.0700  0.6659 -0.6635
 4515TIP3    H234961   0.416   2.395  16.698 -0.9669  0.0862 -0.5085
 4516TIP3   OH234962   6.361   0.008   3.111 -0.1924 -0.2017 -1.1095
 4516TIP3    H134963   6.317  -0.041   3.181  0.0228 -1.2765 -1.7182
 4516TIP3    H234964   6.308   0.086   3.100  0.6573  0.7848  1.3626
 4517TIP3   OH234965   0.623   4.288  11.557 -0.3231  0.7761  0.0011
 4517TIP3    H134966   0.589   4.208  11.597 -2.7061  1.4622 -0.5541
 4517TIP3    H234967   0.715   4.270  11.541 -1.0429 -2.2651 -1.0833
 4518TIP3   OH234968   6.342   1.840  14.477  0.1047  0.5620  0.1910
 4518TIP3    H134969   6.355   1.847  14.571 -0.1629  1.3520  0.1725
 4518TIP3    H234970   6.417   1.886  14.439  0.5406 -0.2881  0.0054
 4519TIP3   OH234971   1.368   3.986  13.937  0.0508 -0.2405  0.0774
 4519TIP3    H134972   1.369   3.907  13.993  1.2209  0.2524  0.7800
 4519TIP3    H234973   1.446   4.034  13.964 -1.8366  2.2599  1.1967
 4520TIP3   OH234974   4.265   4.480   4.518 -0.3436  0.3495 -0.6450
 4520TIP3    H134975   4.342   4.507   4.568 -0.9794  0.5426  0.2598
 4520TIP3    H234976   4.299   4.423   4.449  0.6348  0.6984 -0.4572
 4521TIP3   OH234977   0.284   0.195  14.785 -0.3617  0.4375 -0.1020
 4521TIP3    H134978   0.278   0.100  14.770  0.2904  0.0580  1.8414
 4521TIP3    H234979   0.342   0.203  14.861 -0.9892  2.3611  0.1927
 4522TIP3   OH234980   5.874   2.757   2.104  0.9999 -0.2661  0.5589
 4522TIP3    H134981   5.800   2.707   2.139  1.4631 -0.7936  0.7926
 4522TIP3    H234982   5.951   2.714   2.140  1.4410 -0.0323 -0.0873
 4523TIP3   OH234983   3.434   2.938  13.338 -0.0911  0.5002  0.4952
 4523TIP3    H134984   3.502   2.884  13.298 -0.4852 -0.0273  0.5289
 4523TIP3    H234985   3.459   3.028  13.317 -0.5185  0.2214 -1.3238
 4524TIP3   OH234986   5.593   3.383   0.437 -0.2531  0.3428  0.3614
 4524TIP3    H134987   5.627   3.462   0.479 -1.1646 -0.4243  2.5991
 4524TIP3    H234988   5.534   3.345   0.502 -0.6268 -1.6254 -1.0987
 4525TIP3   OH234989   3.566   4.891   4.613  0.0026 -0.2278  0.1318
 4525TIP3    H134990   3.520   4.810   4.632 -1.0681  0.2685 -0.2455
 4525TIP3    H234991   3.587   4.886   4.520  2.0023 -1.0786  0.6219
 4526TIP3   OH234992   1.571   6.569   3.168  0.4619  0.2758  0.0752
 4526TIP3    H134993   1.603   6.585   3.257  1.0400  0.9950 -0.2585
 4526TIP3    H234994   1.535   6.653   3.140 -2.0181 -0.5704  0.5437
 4527TIP3   OH234995   4.403   6.117   3.911  0.3574  0.0453 -0.0379
 4527TIP3    H134996   4.375   6.198   3.870 -2.3724 -0.7082  0.2685
 4527TIP3    H234997   4.340   6.051   3.881  1.7008 -1.6914  0.8177
 4528TIP3   OH234998   1.511   4.939  15.421 -0.1758  0.9333  0.4256
 4528TIP3    H134999   1.586   4.883  15.442 -2.2462 -1.3397  2.1366
 4528TIP3    H235000   1.545   5.028  15.425  1.6899  0.1732  4.8724
 4529TIP3   OH235001   4.340   0.792   4.962  0.0658 -0.2327 -0.1629
 4529TIP3    H135002   4.423   0.815   4.919  1.0793  0.0691  1.8845
 4529TIP3    H235003   4.273   0.815   4.898  1.4664  1.2100 -1.1682
 4530TIP3   OH235004   3.690   6.481  12.596  0.0928  0.3667 -0.3355
 4530TIP3    H135005   3.695   6.458  12.689  0.1691  0.6595 -0.2703
 4530TIP3    H235006   3.599   6.507  12.582 -0.7123 -2.5841 -0.9997
 4531TIP3   OH235007   4.887   2.474  13.091  0.1825 -0.0650 -0.0058
 4531TIP3    H135008   4.952   2.447  13.027 -0.3698  0.5752 -0.8421
 4531TIP3    H235009   4.817   2.515  13.040 -0.8522 -0.6826  0.8859
 4532TIP3   OH235010   4.386   5.148  15.359  0.0972  0.2638 -0.6130
 4532TIP3    H135011   4.368   5.227  15.409  1.8300 -0.6996  1.5910
 4532TIP3    H235012   4.431   5.090  15.420  2.1519 -1.0102 -3.2226
 4533TIP3   OH235013   5.082   3.367   2.420 -0.1839 -0.3268 -0.0576
 4533TIP3    H135014   5.009   3.334   2.471 -0.2328  1.2632  0.9624
 4533TIP3    H235015   5.043   3.429   2.359  0.1986 -0.1643 -0.1428
 4534TIP3   OH235016   6.759   0.634  16.972  0.1938  0.2176 -0.0067
 4534TIP3    H135017   6.723   0.556  17.014  0.5333 -0.1167 -0.3392
 4534TIP3    H235018   6.794   0.686  17.045 -0.7647  0.4419  0.2963
 4535TIP3   OH235019   3.776   4.612   2.573 -0.0307 -0.0258 -0.8500
 4535TIP3    H135020   3.730   4.571   2.646  1.0779  2.8798  1.6454
 4535TIP3    H235021   3.790   4.542   2.510 -0.9305 -2.6844  1.7939
 4536TIP3   OH235022   4.707   0.496   5.724 -0.0513 -0.0061  0.0118
 4536TIP3    H135023   4.768   0.548   5.672 -0.2954 -0.9436 -1.2479
 4536TIP3    H235024   4.656   0.560   5.773 -1.2389  1.0478 -2.4899
 4537TIP3   OH235025   3.707   1.074   0.561 -0.1882 -0.2431 -0.0699
 4537TIP3    H135026   3.665   1.157   0.580 -0.5443  0.0133 -1.8994
 4537TIP3    H235027   3.638   1.019   0.526 -0.0679 -1.5016  1.6304
 4538TIP3   OH235028   0.354   4.234  16.741  0.2904  0.2042  0.0827
 4538TIP3    H135029   0.379   4.298  16.807 -1.7459  2.2295 -1.0298
 4538TIP3    H235030   0.418   4.246  16.670  0.1838  0.7109  0.0682
 4539TIP3   OH235031   5.993   1.174  16.805  0.3189 -0.3454  0.2924
 4539TIP3    H135032   5.913   1.127  16.781  0.7058 -2.0406  2.1487
 4539TIP3    H235033   5.965   1.235  16.873  0.7841 -1.8424  1.8738
 4540TIP3   OH235034   1.023   2.923  15.943  0.1205  0.5489 -0.0961
 4540TIP3    H135035   0.971   2.994  15.904 -0.4356 -0.5951 -1.4692
 4540TIP3    H235036   0.960   2.874  15.996 -0.0565 -0.4287 -1.2066
 4541TIP3   OH235037   3.490   3.586  14.385  0.4874 -0.4800 -0.1548
 4541TIP3    H135038   3.543   3.513  14.417 -2.0825 -2.1490  0.3828
 4541TIP3    H235039   3.486   3.646  14.459 -1.3222 -2.0331  1.0558
 4542TIP3   OH235040   0.647   2.055   4.007 -0.3101 -0.1150 -0.1760
 4542TIP3    H135041   0.651   1.961   3.991  0.2145  0.0564 -1.0824
 4542TIP3    H235042   0.729   2.075   4.053 -1.5407 -0.5041  2.2941
 4543TIP3   OH235043   5.799   4.755  16.943  0.2818 -0.1118 -0.2790
 4543TIP3    H135044   5.731   4.820  16.927  0.5851  0.2743 -0.0142
 4543TIP3    H235045   5.807   4.752  17.039 -0.9982 -1.8533 -0.1899
 4544TIP3   OH235046   3.270   1.358   4.578 -0.1426 -0.4480  0.1278
 4544TIP3    H135047   3.194   1.383   4.526  0.7227  2.4337  0.1611
 4544TIP3    H235048   3.324   1.307   4.518 -0.5679  0.2890 -0.9015
 4545TIP3   OH235049   5.259   1.211  10.913 -0.5704 -0.3908  0.0519
 4545TIP3    H135050   5.305   1.162  10.982 -0.9051  0.0470  0.5877
 4545TIP3    H235051   5.313   1.199  10.835  0.1855 -0.3005  0.5597
 4546TIP3   OH235052   1.618   5.196   5.596 -0.2875 -0.1172  0.4291
 4546TIP3    H135053   1.568   5.136   5.651 -0.2310  0.2349  0.8629
 4546TIP3    H235054   1.658   5.139   5.529 -0.6215 -0.4977  0.5523
 4547TIP3   OH235055   2.663   4.780   2.531 -0.2346 -0.0569 -0.6695
 4547TIP3    H135056   2.691   4.780   2.440 -0.5889 -2.0969 -0.8099
 4547TIP3    H235057   2.743   4.795   2.581  0.1115  0.1490 -1.2851
 4548TIP3   OH235058   0.813   1.326   4.444  0.0428  0.3002 -0.4221
 4548TIP3    H135059   0.845   1.377   4.369 -1.0473  1.2320 -0.2663
 4548TIP3    H235060   0.721   1.350   4.452 -0.0562 -0.4216  0.7169
 4549TIP3   OH235061   6.142   3.172  15.107 -0.2370  0.7002 -0.2418
 4549TIP3    H135062   6.066   3.199  15.057 -2.2338  0.0844  2.3262
 4549TIP3    H235063   6.175   3.095  15.061 -3.3226 -1.1598  0.5070
 4550TIP3   OH235064   2.981   3.178   3.837 -0.2030  0.3568 -0.0349
 4550TIP3    H135065   3.064   3.149   3.877 -0.0531  0.4618 -0.2686
 4550TIP3    H235066   2.991   3.272   3.828  0.4350  0.1234 -1.8604
 4551TIP3   OH235067   6.750   1.231   2.770 -0.3188  0.1813  0.0385
 4551TIP3    H135068   6.681   1.261   2.829  2.0989  1.2916  2.3878
 4551TIP3    H235069   6.775   1.309   2.720 -1.2163 -0.3812 -1.3330
 4552TIP3   OH235070   4.570   0.790   0.083 -0.0323 -0.4593 -0.1466
 4552TIP3    H135071   4.592   0.840   0.162  0.7826  0.8207 -1.1752
 4552TIP3    H235072   4.549   0.856   0.017 -1.5122 -1.5456 -0.7912
 4553TIP3   OH235073   1.008   0.317   1.447  0.3934  0.9357 -0.0998
 4553TIP3    H135074   1.090   0.344   1.406 -0.5558  0.9188 -2.0390
 4553TIP3    H235075   0.941   0.331   1.380 -1.4351  2.4255  1.9674
 4554TIP3   OH235076   2.054   0.020   3.946  0.0523 -0.2108  0.2330
 4554TIP3    H135077   2.067  -0.032   3.866 -1.6979  0.4795 -0.5190
 4554TIP3    H235078   1.980  -0.023   3.989 -0.3330  0.6670  0.4370
 4555TIP3   OH235079   5.778   1.343   3.633 -0.2198  0.1343 -0.2214
 4555TIP3    H135080   5.740   1.290   3.703  1.2552  0.9967  1.2950
 4555TIP3    H235081   5.728   1.424   3.634  0.0134  0.2776  0.0820
 4556TIP3   OH235082   1.068   5.155   0.989 -0.2717 -0.0187 -0.2790
 4556TIP3    H135083   1.127   5.173   1.062 -0.8234 -1.6046  0.6002
 4556TIP3    H235084   1.070   5.234   0.935  0.7394  0.8777  1.0501
 4557TIP3   OH235085   0.531   6.558   1.602  0.1728  0.1537  0.6062
 4557TIP3    H135086   0.502   6.490   1.662 -1.1341 -0.5006 -0.7273
 4557TIP3    H235087   0.553   6.632   1.658  0.0115 -0.8101  1.9514
 4558TIP3   OH235088   2.589   2.010   1.720  0.0598 -0.6116 -0.0651
 4558TIP3    H135089   2.527   1.944   1.690 -1.6459 -0.0466  2.0792
 4558TIP3    H235090   2.539   2.092   1.720  1.2983  0.1576  0.0754
 4559TIP3   OH235091   1.059   4.146  16.266  0.0037  0.3438 -0.2386
 4559TIP3    H135092   1.055   4.089  16.343  0.6546  0.0350 -0.4233
 4559TIP3    H235093   1.009   4.223  16.290 -0.0650  0.1087  0.3794
 4560TIP3   OH235094   2.911   1.131   0.411  0.2194 -0.4552  0.5613
 4560TIP3    H135095   2.849   1.070   0.449  2.7519 -2.1904  2.0204
 4560TIP3    H235096   2.922   1.199   0.477  0.2081 -0.3847  0.4910
 4561TIP3   OH235097   3.767   6.391   3.250 -0.0689  0.1507  0.0911
 4561TIP3    H135098   3.691   6.359   3.201  1.2227  1.0131 -2.5596
 4561TIP3    H235099   3.732   6.459   3.307 -1.6717 -1.1402  0.6917
 4562TIP3   OH235100   0.077   0.493   3.408  0.4515  0.1045 -0.0051
 4562TIP3    H135101   0.022   0.481   3.485  2.1213 -0.6402  1.0673
 4562TIP3    H235102   0.128   0.572   3.427  0.1173  0.5198 -0.7984
 4563TIP3   OH235103   4.141   0.277  16.705 -0.1955  0.1119  0.5965
 4563TIP3    H135104   4.134   0.272  16.610  0.0511 -0.7516  0.6132
 4563TIP3    H235105   4.223   0.232  16.726  0.5085  1.6037  1.1085
 4564TIP3   OH235106   4.015   5.510   1.801  0.0339 -0.2885  0.3049
 4564TIP3    H135107   3.930   5.499   1.757  0.1326 -1.7245  0.4430
 4564TIP3    H235108   4.068   5.438   1.768  1.2858  0.7394  0.0641
 4565TIP3   OH235109   6.708   1.459   1.196  0.9458 -0.0461  0.2215
 4565TIP3    H135110   6.643   1.525   1.222 -0.4984 -1.2007 -0.3715
 4565TIP3    H235111   6.741   1.425   1.279  2.6830  2.3078  0.5626
 4566TIP3   OH235112   1.013   6.776   0.872 -0.0817 -0.6235 -0.3428
 4566TIP3    H135113   1.021   6.821   0.788 -0.6121 -0.7145 -0.4397
 4566TIP3    H235114   1.087   6.809   0.923  1.5837 -2.2571 -1.6224
 4567TIP3   OH235115   4.724   2.563   4.536 -0.9951  0.1308  0.3095
 4567TIP3    H135116   4.717   2.467   4.534  0.1109  0.0454 -0.3333
 4567TIP3    H235117   4.647   2.592   4.585 -0.0268 -1.2254  2.7235
 4568TIP3   OH235118   3.030   6.138  15.746 -0.1123 -0.5305  0.1918
 4568TIP3    H135119   2.957   6.077  15.739 -0.0984 -0.4885 -0.3434
 4568TIP3    H235120   3.088   6.099  15.811 -0.1074 -1.0795 -0.1444
 4569TIP3   OH235121   6.659   4.007  15.883 -0.4320 -0.2490 -0.6895
 4569TIP3    H135122   6.583   4.001  15.941  0.4385  0.8041  0.5895
 4569TIP3    H235123   6.638   3.948  15.810 -1.4231 -1.8104  0.8212
 4570TIP3   OH235124   4.202   6.069  13.453  0.2685  0.0768 -0.3371
 4570TIP3    H135125   4.296   6.071  13.438  0.5059 -1.2952  0.9247
 4570TIP3    H235126   4.171   6.155  13.423  1.8315  0.3302 -1.2498
 4571TIP3   OH235127   0.094   6.568  11.875  0.2260  0.2368 -0.4786
 4571TIP3    H135128   0.189   6.580  11.888  0.4925 -0.3643 -1.8207
 4571TIP3    H235129   0.058   6.573  11.964  1.8750 -2.7971  0.4310
 4572TIP3   OH235130   4.930   1.097   1.193 -0.1707  0.3065 -0.1222
 4572TIP3    H135131   4.867   1.119   1.261 -0.6581  0.8493 -0.7364
 4572TIP3    H235132   4.881   1.108   1.111 -0.3290 -2.6683 -0.4860
 4573TIP3   OH235133   2.688   0.300  13.199 -0.1018 -0.1372 -0.8138
 4573TIP3    H135134   2.727   0.218  13.227  2.6434  1.3542 -0.1053
 4573TIP3    H235135   2.692   0.357  13.276 -1.2444  0.9258 -1.5157
 4574TIP3   OH235136   5.139   6.106  11.493  1.0694 -0.0719  0.9988
 4574TIP3    H135137   5.057   6.058  11.481  1.3631 -1.1244  2.9819
 4574TIP3    H235138   5.156   6.147  11.408  0.3000 -2.7084 -0.4645
 4575TIP3   OH235139   1.908   5.863   5.416  0.2958 -0.3470  0.7139
 4575TIP3    H135140   1.902   5.828   5.505 -0.7734 -0.5579  0.5707
 4575TIP3    H235141   1.819   5.893   5.396  0.8167  0.8727  0.1910
 4576TIP3   OH235142   0.202   4.988  16.284  0.7125  0.2476 -0.3757
 4576TIP3    H135143   0.243   4.923  16.226  0.0936 -0.2778 -0.2353
 4576TIP3    H235144   0.244   4.974  16.369 -0.3755 -0.9143 -0.0031
 4577TIP3   OH235145   5.645   3.065   4.101 -0.0628  0.1538  0.2112
 4577TIP3    H135146   5.571   3.116   4.133  0.3010  0.5310  0.4497
 4577TIP3    H235147   5.642   2.983   4.151 -0.8007 -0.1713 -0.3604
 4578TIP3   OH235148   0.958   6.188   3.285 -0.2333  0.1928 -0.6731
 4578TIP3    H135149   0.945   6.249   3.358  0.0412  0.4985 -0.8746
 4578TIP3    H235150   1.043   6.214   3.248  0.3779 -0.9843 -0.1138
 4579TIP3   OH235151   0.019   6.441   1.158  0.4758  0.3191  0.1232
 4579TIP3    H135152  -0.043   6.507   1.190 -0.5947 -0.8635  0.5364
 4579TIP3    H235153   0.040   6.469   1.069 -1.1953  0.3912 -0.2722
 4580TIP3   OH235154   6.200   5.110  14.972 -0.5796  0.1886 -0.0247
 4580TIP3    H135155   6.265   5.074  15.032 -0.8360 -1.4862 -0.7067
 4580TIP3    H235156   6.123   5.126  15.026 -0.0908  0.7701  0.5005
 4581TIP3   OH235157   1.730   4.046   4.724 -0.3185  0.0752  0.2142
 4581TIP3    H135158   1.638   4.019   4.717 -0.7307  1.5631 -0.1987
 4581TIP3    H235159   1.765   4.033   4.636 -0.0092 -0.8995  0.4741
 4582TIP3   OH235160   1.165   2.828  15.222  0.3339  0.3578  0.0998
 4582TIP3    H135161   1.239   2.861  15.273  0.6407 -0.9579  0.5320
 4582TIP3    H235162   1.194   2.838  15.131 -0.0334  2.2850  0.1734
 4583TIP3   OH235163   5.095   0.758  12.351  0.7107 -0.1118 -0.6113
 4583TIP3    H135164   5.174   0.787  12.307 -0.0494  2.5143 -0.3093
 4583TIP3    H235165   5.080   0.823  12.420 -0.6549 -1.6107  0.5681
 4584TIP3   OH235166   6.186   0.969  12.510 -0.1940 -0.2764 -0.3752
 4584TIP3    H135167   6.179   1.033  12.580  2.4064  1.5375 -1.7244
 4584TIP3    H235168   6.114   0.991  12.450  0.9911  1.7186 -1.0871
 4585TIP3   OH235169   0.012   4.333  14.363 -0.3521 -0.8300  0.0426
 4585TIP3    H135170   0.058   4.251  14.349  0.1968 -0.8232  1.6534
 4585TIP3    H235171  -0.077   4.307  14.388 -0.0205 -0.9718  1.1181
 4586TIP3   OH235172   3.863   6.600  15.487  0.0445  0.4007 -0.2916
 4586TIP3    H135173   3.948   6.565  15.460 -0.6246 -0.5443 -1.2137
 4586TIP3    H235174   3.799   6.547  15.439 -1.1373 -0.3183  2.0011
 4587TIP3   OH235175   2.802   4.483  16.307 -0.5303 -0.0579  0.4447
 4587TIP3    H135176   2.859   4.406  16.314 -0.8442 -0.2304  1.2235
 4587TIP3    H235177   2.729   4.463  16.365  0.1230  1.4890  1.8270
 4588TIP3   OH235178   1.682   6.343  13.218 -0.2817 -0.3000 -0.2666
 4588TIP3    H135179   1.710   6.390  13.297  0.2619  0.0879 -0.6873
 4588TIP3    H235180   1.665   6.254  13.248  1.5631 -0.5876 -0.0351
 4589TIP3   OH235181   1.905   4.966  11.625 -0.1600  0.2177  0.1175
 4589TIP3    H135182   1.957   4.974  11.705 -0.2961  0.7377  0.1627
 4589TIP3    H235183   1.860   4.882  11.633  0.2277  0.0348  0.3469
 4590TIP3   OH235184   5.074   3.581   5.088 -0.0157  1.1559  0.8814
 4590TIP3    H135185   5.012   3.596   5.159 -0.2070 -0.6373  1.1040
 4590TIP3    H235186   5.152   3.545   5.132 -0.1881 -0.0880  0.1678
 4591TIP3   OH235187   6.692   2.315   1.539 -0.1770 -0.3220 -0.5607
 4591TIP3    H135188   6.734   2.300   1.454  2.5434 -1.1206  0.8945
 4591TIP3    H235189   6.759   2.356   1.593 -2.1309  0.9298  0.9871
 4592TIP3   OH235190   0.440   1.120  17.230  0.0097 -0.0229  0.2048
 4592TIP3    H135191   0.501   1.063  17.183  0.1264  0.3545 -0.1000
 4592TIP3    H235192   0.459   1.103  17.323 -0.2136 -0.7519  0.1173
 4593TIP3   OH235193   4.018   1.738   2.572  0.8296  0.1294 -0.3032
 4593TIP3    H135194   4.073   1.816   2.567 -0.7688  1.2000 -2.4049
 4593TIP3    H235195   3.932   1.772   2.596  0.3341 -1.0889 -0.3549
 4594TIP3   OH235196   2.064   1.734  11.383 -0.0634  0.0467 -0.7818
 4594TIP3    H135197   2.110   1.653  11.406 -1.3766 -0.7420 -0.8765
 4594TIP3    H235198   2.117   1.803  11.423  1.7489 -0.7463 -1.7205
 4595TIP3   OH235199   1.053   1.319   6.814 -0.3626  0.4891  0.6828
 4595TIP3    H135200   1.123   1.256   6.795 -1.3398 -0.9373  1.7190
 4595TIP3    H235201   0.987   1.303   6.747 -1.0496 -0.2866  1.5318
 4596TIP3   OH235202   3.624   4.781  12.209  0.3872  0.3225 -0.1077
 4596TIP3    H135203   3.548   4.818  12.165  0.0968  0.0212  0.1411
 4596TIP3    H235204   3.692   4.780  12.142  0.2400  0.8029 -0.2677
 4597TIP3   OH235205   5.985   3.997  16.763  0.7021 -0.1175 -0.1369
 4597TIP3    H135206   6.072   4.013  16.799  0.2993 -0.1715  0.8684
 4597TIP3    H235207   5.932   4.071  16.793 -0.1036 -1.1256  0.9720
 4598TIP3   OH235208   5.380   0.819  13.075  0.1057 -0.1906 -0.3868
 4598TIP3    H135209   5.422   0.820  12.989 -0.2725  0.1194 -0.5719
 4598TIP3    H235210   5.353   0.910  13.089 -1.7281 -0.6303 -0.8902
 4599TIP3   OH235211   3.702   1.431   5.445  0.3709 -0.7571  0.0575
 4599TIP3    H135212   3.763   1.410   5.515  1.9101  2.2668 -0.2893
 4599TIP3    H235213   3.748   1.407   5.364  0.2214 -0.5192 -0.1019
 4600TIP3   OH235214   1.935   5.932  13.741  0.1525 -0.8539  0.1220
 4600TIP3    H135215   1.995   5.874  13.695 -0.5126 -1.4398 -0.0197
 4600TIP3    H235216   1.866   5.951  13.676  0.1320 -0.2718  0.3099
 4601TIP3   OH235217   6.134   0.467   2.872 -0.3688 -0.1879  0.4227
 4601TIP3    H135218   6.183   0.433   2.947 -2.0905  1.1689  2.2215
 4601TIP3    H235219   6.069   0.399   2.854 -0.3201 -0.2669  0.5422
 4602TIP3   OH235220   6.603   2.682  11.928 -0.4818 -0.0174 -0.1632
 4602TIP3    H135221   6.638   2.715  11.845  0.6744  0.5179  0.5240
 4602TIP3    H235222   6.529   2.740  11.947  0.5100  1.1594  0.1976
 4603TIP3   OH235223   1.891   2.673   1.023 -0.2141 -0.0114  0.2303
 4603TIP3    H135224   1.892   2.762   1.060  0.2387 -0.2129  0.7075
 4603TIP3    H235225   1.920   2.617   1.094 -3.5749 -0.9646  0.9172
 4604TIP3   OH235226   0.035   3.714   4.844 -0.1948 -0.5088  0.2051
 4604TIP3    H135227  -0.051   3.705   4.885 -1.5265 -0.2680 -2.4720
 4604TIP3    H235228   0.024   3.679   4.756  1.6782  2.1128 -1.1437
 4605TIP3   OH235229   6.546   4.133  17.105  0.2445  0.0398 -0.2414
 4605TIP3    H135230   6.492   4.137  17.026  0.4222  0.0577 -0.3612
 4605TIP3    H235231   6.603   4.057  17.092  0.9995  0.6667 -0.5849
 4606TIP3   OH235232   0.279   0.727  12.796  0.0749  0.0039 -0.5137
 4606TIP3    H135233   0.285   0.675  12.877  1.1111  2.2781  0.9249
 4606TIP3    H235234   0.339   0.683  12.736  1.0635 -0.4080  0.7305
 4607TIP3   OH235235   1.808   3.854  12.681  0.1554 -0.1018  0.3088
 4607TIP3    H135236   1.792   3.784  12.744 -0.8108  0.2569  0.4791
 4607TIP3    H235237   1.876   3.820  12.623  0.9981 -0.4695  1.4910
 4608TIP3   OH235238   0.343   3.936  13.258 -1.0708  0.4090  0.1335
 4608TIP3    H135239   0.420   3.906  13.210 -0.6387 -0.2355  1.2176
 4608TIP3    H235240   0.343   4.031  13.248 -1.3203  0.2355 -1.6353
 4609TIP3   OH235241   4.652   4.434  13.552 -0.4504  0.4911  0.3125
 4609TIP3    H135242   4.682   4.344  13.538 -0.0502  0.7705 -0.6447
 4609TIP3    H235243   4.562   4.424  13.584 -0.5152 -0.2341 -0.0813
 4610TIP3   OH235244   6.448   0.337   5.547  0.4060  0.0492  0.2942
 4610TIP3    H135245   6.439   0.388   5.467 -0.3666 -0.5326  0.0032
 4610TIP3    H235246   6.364   0.293   5.558  1.1682 -1.4507  0.3345
 4611TIP3   OH235247   6.235   5.294   5.246  0.2720  0.1998  0.0774
 4611TIP3    H135248   6.195   5.323   5.328 -4.1009 -2.5739 -0.8989
 4611TIP3    H235249   6.178   5.330   5.178  1.7748 -0.5103 -1.5977
 4612TIP3   OH235250   3.597   0.815  17.096 -0.1000 -0.3455  0.6836
 4612TIP3    H135251   3.692   0.806  17.094 -0.0820 -0.0420 -0.0601
 4612TIP3    H235252   3.564   0.728  17.119  0.2394 -1.1502 -1.8160
 4613TIP3   OH235253   3.783   3.462  15.212 -0.0973  0.3569 -0.5425
 4613TIP3    H135254   3.695   3.500  15.215  0.3408  1.5216 -1.6719
 4613TIP3    H235255   3.769   3.368  15.209 -1.2399  0.4340  1.5863
 4614TIP3   OH235256   6.731   4.731  11.577  0.2316 -0.2695  0.2664
 4614TIP3    H135257   6.763   4.731  11.667  0.9394  0.1022  0.0174
 4614TIP3    H235258   6.788   4.793  11.531 -0.2324 -0.3309 -0.3973
 4615TIP3   OH235259   1.921   0.255   0.525 -0.4445 -0.1018  0.2163
 4615TIP3    H135260   1.976   0.284   0.452 -2.2048  3.3756  0.1941
 4615TIP3    H235261   1.842   0.221   0.484 -0.1638 -0.9740  0.3979
 4616TIP3   OH235262   1.203   0.169   4.846 -0.5432  0.2994  0.3085
 4616TIP3    H135263   1.205   0.081   4.807  3.7343 -0.3001  1.6400
 4616TIP3    H235264   1.204   0.228   4.771  1.1292 -0.8221 -0.5937
 4617TIP3   OH235265   5.354   1.296   1.097  0.5824 -0.5427 -0.0409
 4617TIP3    H135266   5.422   1.360   1.118  1.1453 -0.7124 -1.3571
 4617TIP3    H235267   5.320   1.269   1.183  3.4518 -1.8715  0.7132
 4618TIP3   OH235268   2.460   3.268  16.195  0.6561  0.0787  0.3377
 4618TIP3    H135269   2.396   3.333  16.168 -0.6692 -2.1188 -2.1189
 4618TIP3    H235270   2.538   3.289  16.143  0.6898  0.5189  0.5645
 4619TIP3   OH235271   0.978   2.647   4.313 -0.0934  0.4239 -0.7501
 4619TIP3    H135272   1.048   2.612   4.369 -2.0138  1.6431  2.5706
 4619TIP3    H235273   0.908   2.582   4.320 -0.7528  1.1234 -0.8435
 4620TIP3   OH235274   5.633   2.067  14.031  0.1178  0.3163  0.0524
 4620TIP3    H135275   5.701   2.076  13.964  0.6722  2.0077  0.7934
 4620TIP3    H235276   5.682   2.055  14.113 -0.5286 -0.5923  0.3084
 4621TIP3   OH235277   0.444   3.367  13.159  0.3970 -0.6247  0.1901
 4621TIP3    H135278   0.436   3.436  13.225  1.3222  0.2547 -0.6013
 4621TIP3    H235279   0.384   3.394  13.089 -3.0933 -3.2064  1.9986
 4622TIP3   OH235280   5.224   4.907   3.590 -0.3098  0.0131  0.0377
 4622TIP3    H135281   5.284   4.832   3.594 -0.0807  0.2508  1.6385
 4622TIP3    H235282   5.152   4.882   3.648 -0.7497  0.5771 -0.2693
 4623TIP3   OH235283   6.330   2.878   4.233 -0.0323  0.1048 -0.4386
 4623TIP3    H135284   6.272   2.831   4.173 -1.9033 -0.0833  1.4652
 4623TIP3    H235285   6.320   2.970   4.210  0.2281 -0.0575 -1.2221
 4624TIP3   OH235286   5.487   5.167   3.280  0.1857  0.1532  0.2890
 4624TIP3    H135287   5.490   5.251   3.234  2.5221 -0.6787 -1.1476
 4624TIP3    H235288   5.459   5.105   3.213 -0.5334 -0.3937  1.0919
 4625TIP3   OH235289   5.274   5.732   2.630  0.3287  0.0531 -0.0684
 4625TIP3    H135290   5.363   5.705   2.607  0.6165  0.1227  0.9414
 4625TIP3    H235291   5.226   5.729   2.547  1.3947  0.5025 -0.7249
 4626TIP3   OH235292   5.618   3.494  17.109  0.2008 -0.1229  0.0716
 4626TIP3    H135293   5.618   3.579  17.064  0.2798  0.0806  0.4500
 4626TIP3    H235294   5.704   3.456  17.088  0.8432  0.6239  1.2428
 4627TIP3   OH235295   6.471   4.330   5.389 -0.0542 -0.0390 -0.1831
 4627TIP3    H135296   6.506   4.403   5.441  1.5347 -0.6018 -0.4566
 4627TIP3    H235297   6.543   4.303   5.333 -1.4048 -0.1741 -1.9119
 4628TIP3   OH235298   3.325   0.271   5.843  0.0065 -0.2644 -0.8658
 4628TIP3    H135299   3.255   0.206   5.847 -0.9208  0.7150 -0.6506
 4628TIP3    H235300   3.366   0.259   5.757 -1.2241 -0.0609 -1.4931
 4629TIP3   OH235301   2.184   0.437  11.693  0.3718 -0.1423  0.2389
 4629TIP3    H135302   2.240   0.513  11.675  0.2622 -0.2739 -0.6847
 4629TIP3    H235303   2.198   0.419  11.786  1.6735 -0.0223  0.0768
 4630TIP3   OH235304   4.931   0.679   1.139  0.5987  0.1511  0.1814
 4630TIP3    H135305   4.857   0.726   1.177 -0.2780 -1.4129  0.4025
 4630TIP3    H235306   4.907   0.587   1.142  1.9840 -0.2803 -0.9865
 4631TIP3   OH235307   1.353   5.734  11.976 -0.5527 -0.0136  0.1538
 4631TIP3    H135308   1.305   5.654  11.997 -0.8542 -0.5031 -2.3192
 4631TIP3    H235309   1.442   5.704  11.955 -0.2463  0.4801  0.7032
 4632TIP3   OH235310   6.015   5.041  15.647 -0.1993 -0.2029  0.0961
 4632TIP3    H135311   6.104   5.036  15.683 -0.4989 -1.2278  0.7018
 4632TIP3    H235312   6.025   5.016  15.555  0.5127  2.0929 -0.5017
 4633TIP3   OH235313   2.783   2.393   0.944 -0.1455  0.4884 -0.0980
 4633TIP3    H135314   2.850   2.453   0.914 -1.0042  0.3191 -2.4771
 4633TIP3    H235315   2.819   2.306   0.926  0.3576  0.3096  1.6950
 4634TIP3   OH235316   2.035   4.481   1.831  0.3316 -0.1034 -0.5341
 4634TIP3    H135317   2.047   4.457   1.739  0.0413  0.1397 -0.6380
 4634TIP3    H235318   2.090   4.420   1.880  0.1998 -0.4713 -0.8492
 4635TIP3   OH235319   3.257   4.410   4.401  0.4032  0.8099  0.0423
 4635TIP3    H135320   3.236   4.387   4.491 -0.7196 -0.8478 -0.6131
 4635TIP3    H235321   3.229   4.501   4.392 -1.6793  0.2543  0.7040
 4636TIP3   OH235322   1.604   1.005  17.018  0.2703 -0.0871 -0.3995
 4636TIP3    H135323   1.623   0.963  17.102 -0.3283  0.5167  0.0506
 4636TIP3    H235324   1.610   0.934  16.954 -0.1502 -0.7443  0.2730
 4637TIP3   OH235325   1.880   4.701  16.772  0.5878  0.3028 -1.0680
 4637TIP3    H135326   1.892   4.634  16.704  0.1824 -0.3950 -0.4585
 4637TIP3    H235327   1.953   4.688  16.832 -0.8748 -1.3136  0.4542
 4638TIP3   OH235328   5.990   1.428  16.401 -0.1373 -0.2249 -0.5024
 4638TIP3    H135329   6.008   1.363  16.334  0.4586 -0.0981 -0.4708
 4638TIP3    H235330   5.913   1.395  16.447 -0.6941 -0.1921 -1.4013
 4639TIP3   OH235331   0.463   3.080  14.396  1.0496 -0.1140  1.0143
 4639TIP3    H135332   0.375   3.057  14.427  1.5110 -0.6844  1.9212
 4639TIP3    H235333   0.452   3.165  14.354 -0.0745 -0.5110  0.4630
 4640TIP3   OH235334   2.523   3.730   5.365 -0.3388 -0.7315 -0.3742
 4640TIP3    H135335   2.464   3.656   5.382 -0.9011  0.0612  1.2596
 4640TIP3    H235336   2.565   3.747   5.450  1.5431 -0.6687 -1.2852
 4641TIP3   OH235337   2.806   3.560   0.254  0.4882 -1.0200 -0.5057
 4641TIP3    H135338   2.757   3.520   0.183  0.6446 -0.7377 -0.7720
 4641TIP3    H235339   2.740   3.583   0.319  0.1950 -0.0618 -1.1386
 4642TIP3   OH235340   3.816   6.614   4.347 -0.1212 -0.0702 -0.1133
 4642TIP3    H135341   3.759   6.638   4.420 -0.3326  0.1134 -0.3408
 4642TIP3    H235342   3.896   6.664   4.362 -0.0652 -0.2312  0.1354
 4643TIP3   OH235343   5.536   1.283   6.046 -0.0319 -0.0341 -0.1982
 4643TIP3    H135344   5.524   1.315   5.957  2.1990 -1.4113 -1.0320
 4643TIP3    H235345   5.623   1.315   6.072  0.8767 -2.6370  0.1249
 4644TIP3   OH235346   0.586   2.142  16.433  0.3797  0.0945  0.0078
 4644TIP3    H135347   0.564   2.207  16.500  0.5640  0.2520 -0.0833
 4644TIP3    H235348   0.509   2.139  16.376  0.6156  0.6832 -0.3427
 4645TIP3   OH235349   2.594   2.572  12.530 -0.1101 -0.6501  0.1233
 4645TIP3    H135350   2.533   2.569  12.603 -1.1117 -0.3150 -0.6932
 4645TIP3    H235351   2.572   2.651  12.482  2.7072  0.9273  1.2836
 4646TIP3   OH235352   6.203   4.733  15.113  0.3308  0.1006  0.8141
 4646TIP3    H135353   6.125   4.680  15.097  0.2273  0.6041 -0.3942
 4646TIP3    H235354   6.169   4.812  15.155  0.2001  0.2621  0.4100
 4647TIP3   OH235355   1.840   5.242  14.567 -0.5073 -0.3610  0.4528
 4647TIP3    H135356   1.781   5.199  14.628 -0.7894  0.9419  1.1183
 4647TIP3    H235357   1.841   5.334  14.594  2.5504 -0.5106  1.0462
 4648TIP3   OH235358   6.083   2.840  12.497 -0.2089 -0.1219  0.0340
 4648TIP3    H135359   6.077   2.920  12.549  0.5847  0.1483 -0.2955
 4648TIP3    H235360   6.013   2.784  12.532 -1.3130  1.0260 -0.2988
 4649TIP3   OH235361   1.889   4.378  15.563  0.0454  0.0748 -0.0042
 4649TIP3    H135362   1.834   4.430  15.504 -0.7327 -0.4942  0.2207
 4649TIP3    H235363   1.828   4.337  15.623  0.6369 -1.2589 -0.2968
 4650TIP3   OH235364   2.140   4.129  11.700  0.8670 -0.1998 -0.1520
 4650TIP3    H135365   2.159   4.205  11.646  0.2949  0.1272  0.1078
 4650TIP3    H235366   2.154   4.054  11.641 -0.3916  0.1759 -0.9400
 4651TIP3   OH235367   4.967   3.592   5.653  0.3893 -0.2632 -0.3812
 4651TIP3    H135368   4.916   3.530   5.706  0.9198  0.1715  0.6599
 4651TIP3    H235369   5.057   3.559   5.659  0.9281  1.4618  1.4672
 4652TIP3   OH235370   6.544   5.960   0.211 -0.1520  0.0825  0.3367
 4652TIP3    H135371   6.529   6.031   0.149  1.3662  1.0458  1.0426
 4652TIP3    H235372   6.458   5.940   0.246 -0.6894  1.1162 -0.3688
 4653TIP3   OH235373   5.051   3.006   5.662  0.0078 -0.1948  0.6957
 4653TIP3    H135374   5.134   3.050   5.682  0.1760  0.1436 -0.7460
 4653TIP3    H235375   4.987   3.050   5.717  0.0739  2.2255 -1.1368
 4654TIP3   OH235376   5.023   4.101  16.232 -0.2569  0.0501 -0.0281
 4654TIP3    H135377   5.110   4.091  16.192 -0.6514 -0.6727 -0.7006
 4654TIP3    H235378   4.980   4.168  16.180 -0.3972 -0.1700 -0.1979
 4655TIP3   OH235379   3.159   4.983   5.542  0.1666  0.2788 -0.0002
 4655TIP3    H135380   3.195   4.972   5.629  1.0264 -0.1874 -0.4112
 4655TIP3    H235381   3.070   4.948   5.548 -0.2670  1.5389  1.0378
 4656TIP3   OH235382   3.620   4.070  11.965 -0.0044  0.3002  0.6296
 4656TIP3    H135383   3.705   4.026  11.970 -0.6391 -0.9629  0.5006
 4656TIP3    H235384   3.558   4.009  12.006 -0.8727  1.1599  0.6348
 4657TIP3   OH235385   0.794   1.561  13.793  0.4547 -0.3079  0.1526
 4657TIP3    H135386   0.846   1.580  13.715  1.1467  0.6064  0.8399
 4657TIP3    H235387   0.703   1.574  13.764  0.5579 -2.1402 -1.1140
 4658TIP3   OH235388   1.680   4.966  12.934  0.3616  0.5271  0.3073
 4658TIP3    H135389   1.750   4.937  12.992 -0.1306 -0.1517  0.5653
 4658TIP3    H235390   1.723   5.025  12.873  2.0098 -2.8189 -1.9757
 4659TIP3   OH235391   5.053   4.109   0.153  0.0853  0.2654 -0.0453
 4659TIP3    H135392   5.041   4.042   0.084 -1.5288  0.7739 -0.2905
 4659TIP3    H235393   5.011   4.187   0.117 -0.4484  0.6416  1.3753
 4660TIP3   OH235394   5.868   2.262   2.932 -0.2725 -0.6114  0.4269
 4660TIP3    H135395   5.939   2.324   2.945 -2.4772  2.4227 -1.2208
 4660TIP3    H235396   5.788   2.313   2.950 -2.2109 -2.6748 -1.8790
 4661TIP3   OH235397   1.595   1.455  14.097  0.0626 -0.6056 -0.0462
 4661TIP3    H135398   1.635   1.484  14.178 -1.1074 -1.0548  0.7057
 4661TIP3    H235399   1.594   1.359  14.103  0.4487 -0.6685 -0.8265
 4662TIP3   OH235400   2.990   1.557   2.224 -0.3083 -0.1338  0.6409
 4662TIP3    H135401   2.895   1.562   2.210 -0.4463 -0.2343  1.5121
 4662TIP3    H235402   3.005   1.466   2.250  0.0678 -0.1946  0.1985
 4663TIP3   OH235403   3.457   1.471   4.791 -0.0815  0.1860 -0.9931
 4663TIP3    H135404   3.527   1.461   4.728 -0.1799 -0.9564 -0.9360
 4663TIP3    H235405   3.383   1.424   4.753  0.2354 -1.6207  0.5276
 4664TIP3   OH235406   3.868   2.497  11.190 -0.1992  0.2140 -0.1396
 4664TIP3    H135407   3.921   2.476  11.266 -2.1639  0.7028  1.4272
 4664TIP3    H235408   3.907   2.577  11.154  1.6934 -0.9140 -0.6011
 4665TIP3   OH235409   0.139   0.184   5.406 -0.2332 -0.1090 -0.5299
 4665TIP3    H135410   0.046   0.166   5.420 -0.1914 -0.1055 -0.2552
 4665TIP3    H235411   0.165   0.124   5.336 -0.1661 -0.8991  0.1712
 4666TIP3   OH235412   0.996   5.386   1.846 -0.2905 -0.0025 -0.3559
 4666TIP3    H135413   1.028   5.303   1.808  0.7860  1.3192 -2.4591
 4666TIP3    H235414   1.049   5.398   1.924  0.4679 -0.6627 -0.7553
 4667TIP3   OH235415   2.604   5.634  14.447  0.1281 -0.3611 -0.3956
 4667TIP3    H135416   2.557   5.646  14.529 -1.0841 -2.2992 -0.7635
 4667TIP3    H235417   2.665   5.707  14.443 -0.4296  0.2585  1.7845
 4668TIP3   OH235418   4.806   1.023  13.758 -0.2098 -0.5655 -0.1583
 4668TIP3    H135419   4.745   1.050  13.690  0.3962 -1.9929 -1.2929
 4668TIP3    H235420   4.770   0.941  13.792 -0.8096  0.4320  1.6422
 4669TIP3   OH235421   3.347   5.141   4.363 -0.4698 -0.3378  0.4821
 4669TIP3    H135422   3.341   5.205   4.292 -1.5831 -1.4483 -0.4388
 4669TIP3    H235423   3.401   5.185   4.429 -2.3354  2.1018  0.4751
 4670TIP3   OH235424   4.432   3.865  11.595 -0.2131  0.0053 -0.3289
 4670TIP3    H135425   4.417   3.958  11.578 -2.3517 -0.4336 -1.0226
 4670TIP3    H235426   4.505   3.864  11.657 -0.5286  2.1629  0.1375
 4671TIP3   OH235427   4.577   0.914  15.903  0.0424 -0.1729  1.0059
 4671TIP3    H135428   4.664   0.893  15.869 -0.0099 -0.5931  1.1253
 4671TIP3    H235429   4.584   1.005  15.932 -0.0074  0.2877 -0.4268
 4672TIP3   OH235430   6.421   5.921  15.727 -0.1613 -0.0722 -0.1244
 4672TIP3    H135431   6.417   5.933  15.822  0.9059 -3.8894  0.4883
 4672TIP3    H235432   6.504   5.962  15.702  0.3926 -0.5767  0.8485
 4673TIP3   OH235433   6.430   4.237   5.061  0.1188  0.3118 -1.0999
 4673TIP3    H135434   6.480   4.174   5.112 -0.5637  0.2709 -0.4766
 4673TIP3    H235435   6.353   4.189   5.032 -0.0859  0.6782 -1.1603
 4674TIP3   OH235436   4.509   5.666   0.827 -0.6331 -0.2559 -0.3699
 4674TIP3    H135437   4.450   5.666   0.751 -0.0681 -0.2898 -0.8151
 4674TIP3    H235438   4.597   5.671   0.789 -0.3937  0.9030  0.3250
 4675TIP3   OH235439   1.758   0.658  12.600 -0.3248 -0.2195  0.1315
 4675TIP3    H135440   1.667   0.686  12.605 -0.7268 -1.5861  0.4916
 4675TIP3    H235441   1.803   0.709  12.667 -0.3182  2.2949 -1.7002
 4676TIP3   OH235442   2.512   0.309  15.703 -0.0993  0.2923  0.2420
 4676TIP3    H135443   2.461   0.230  15.721 -1.4242  1.2427  0.7590
 4676TIP3    H235444   2.542   0.297  15.613 -1.9369  0.0616 -0.3746
 4677TIP3   OH235445   4.341   4.103  14.105 -0.3413 -0.5599 -0.6483
 4677TIP3    H135446   4.263   4.064  14.145 -0.3797  0.1214 -0.0575
 4677TIP3    H235447   4.412   4.045  14.129 -0.7087 -1.3755 -1.4762
 4678TIP3   OH235448   3.483   2.971  17.153 -0.2410  0.9700  0.1161
 4678TIP3    H135449   3.519   3.026  17.084  2.6156  0.8908  1.4789
 4678TIP3    H235450   3.556   2.915  17.180 -1.4301  0.6601  2.8482
 4679TIP3   OH235451   0.167   5.850   1.682  0.6308  0.7164 -0.6476
 4679TIP3    H135452   0.163   5.926   1.740  0.2486 -0.0430  0.3250
 4679TIP3    H235453   0.150   5.886   1.594 -0.6217  1.6014 -0.0639
 4680TIP3   OH235454   1.650   5.744   3.139 -0.1225 -0.0450  0.0103
 4680TIP3    H135455   1.602   5.664   3.116 -0.8961 -0.1456  1.9299
 4680TIP3    H235456   1.740   5.714   3.156 -0.6365 -0.6790  1.7101
 4681TIP3   OH235457   6.585   4.841  14.607  0.6137 -0.2612  0.4201
 4681TIP3    H135458   6.552   4.787  14.534 -0.6749  1.0642 -0.0049
 4681TIP3    H235459   6.658   4.890  14.569  0.4294 -0.1369  0.2250
 4682TIP3   OH235460   6.381   6.708  17.126  0.5558 -0.0527  0.4860
 4682TIP3    H135461   6.371   6.798  17.093 -0.9594 -0.6584 -0.7772
 4682TIP3    H235462   6.337   6.709  17.211 -3.0765 -0.5371 -1.2714
 4683TIP3   OH235463   3.487   5.583   2.126  0.1238 -0.2158 -0.0800
 4683TIP3    H135464   3.443   5.667   2.119  0.0774  0.0591  2.6722
 4683TIP3    H235465   3.424   5.527   2.172  0.2441 -1.6789 -1.6690
 4684TIP3   OH235466   3.558   3.310   1.902 -0.6849 -0.0910 -0.4721
 4684TIP3    H135467   3.638   3.297   1.952 -1.8321  1.0342  1.7013
 4684TIP3    H235468   3.555   3.235   1.842  0.8018 -1.3684  1.0147
 4685TIP3   OH235469   0.097   5.506  16.189  0.0070 -0.0416 -0.1234
 4685TIP3    H135470   0.100   5.410  16.188 -0.5106 -0.0814  1.4176
 4685TIP3    H235471   0.017   5.527  16.139  0.7893 -0.3504 -1.5524
 4686TIP3   OH235472   4.885   4.567  15.826  0.0753 -0.3507  0.4194
 4686TIP3    H135473   4.861   4.649  15.869 -1.6893  0.8836 -2.7546
 4686TIP3    H235474   4.802   4.530  15.796  1.0118 -2.5020  0.4052
 4687TIP3   OH235475   5.476   4.539  11.070  0.0855  0.2816  0.1155
 4687TIP3    H135476   5.454   4.633  11.071 -0.5480  0.1407  2.3409
 4687TIP3    H235477   5.395   4.496  11.097  0.5276 -0.8720 -0.4104
 4688TIP3   OH235478   0.076   6.466  14.452 -0.4855 -0.3786  0.4445
 4688TIP3    H135479   0.081   6.449  14.546  1.6529  0.1789  0.4695
 4688TIP3    H235480   0.140   6.405  14.414 -0.6784  0.0350 -0.5530
 4689TIP3   OH235481   2.725   4.835   5.322 -0.3733 -0.6883  0.6246
 4689TIP3    H135482   2.638   4.809   5.352 -1.1029  0.5342 -0.3707
 4689TIP3    H235483   2.761   4.885   5.395 -1.1630  0.1979  0.4132
 4690TIP3   OH235484   4.731   4.242   5.758 -0.0422 -0.1155 -0.2322
 4690TIP3    H135485   4.713   4.310   5.823 -1.3656 -0.1360 -0.5557
 4690TIP3    H235486   4.790   4.181   5.803  1.1262  1.2134  0.0735
 4691TIP3   OH235487   3.174   3.942  15.690  0.2235 -0.0006 -0.8484
 4691TIP3    H135488   3.193   3.854  15.722  1.2972  0.5714  0.1043
 4691TIP3    H235489   3.158   3.994  15.769  0.0744  0.7749 -1.3838
 4692TIP3   OH235490   2.198   0.753  15.099  0.0705  0.0783 -0.1149
 4692TIP3    H135491   2.207   0.771  15.006 -0.1613 -0.4090 -0.2312
 4692TIP3    H235492   2.164   0.664  15.104  1.5091 -0.4645  0.4564
 4693TIP3   OH235493   1.334   3.254   6.440  0.1099  0.1183 -0.5790
 4693TIP3    H135494   1.282   3.265   6.360  1.6008 -0.3869 -1.6235
 4693TIP3    H235495   1.353   3.160   6.443  1.8058  0.4454 -0.7384
 4694TIP3   OH235496   5.397   6.029   2.665 -0.1671 -0.1884 -1.1285
 4694TIP3    H135497   5.310   6.057   2.636  0.6130  1.6951 -1.7071
 4694TIP3    H235498   5.383   6.002   2.756 -1.7104 -1.6547 -1.7751
 4695TIP3   OH235499   6.116   6.623  16.021 -0.1924  0.0245  0.1031
 4695TIP3    H135500   6.212   6.612  16.023 -0.1627  0.0787 -0.8459
 4695TIP3    H235501   6.088   6.572  15.945 -0.8303  0.7040 -0.1156
 4696TIP3   OH235502   2.366   6.611   5.723 -0.3141  0.2586 -0.0594
 4696TIP3    H135503   2.318   6.632   5.643  0.7892 -2.5016 -1.5186
 4696TIP3    H235504   2.301   6.618   5.793 -1.1786  3.2042 -1.0864
 4697TIP3   OH235505   0.747   6.035  14.905 -0.1953 -0.1550 -0.3095
 4697TIP3    H135506   0.758   5.949  14.946 -0.0997  0.6342  1.3242
 4697TIP3    H235507   0.831   6.052  14.862 -0.8944 -1.8054 -2.4977
 4698TIP3   OH235508   3.457   4.754  11.194  0.0442  0.0590  0.0658
 4698TIP3    H135509   3.368   4.779  11.172  0.1327  0.7223  0.4409
 4698TIP3    H235510   3.494   4.722  11.111 -1.0459 -1.7804  0.2710
 4699TIP3   OH235511   3.205   3.480   1.374  0.2098  0.1692 -0.1913
 4699TIP3    H135512   3.221   3.389   1.398  0.3941  0.2984  0.1695
 4699TIP3    H235513   3.136   3.509   1.434  1.2861  0.7562  0.7804
 4700TIP3   OH235514   4.322   2.434   0.712  0.1499 -0.1704  0.2040
 4700TIP3    H135515   4.387   2.373   0.678  1.0407 -0.0242  1.6201
 4700TIP3    H235516   4.372   2.513   0.732 -1.0197  1.1341 -1.8263
 4701TIP3   OH235517   1.306   5.125  11.731 -0.1940  0.8468 -0.3166
 4701TIP3    H135518   1.223   5.141  11.776 -1.0494 -1.1093 -1.1512
 4701TIP3    H235519   1.327   5.208  11.688 -1.4575  1.5019  0.3264
 4702TIP3   OH235520   4.047   5.451   3.653  0.6326  0.2891  0.0048
 4702TIP3    H135521   4.032   5.371   3.704  1.6606  0.3746  0.4537
 4702TIP3    H235522   4.034   5.522   3.717  1.9859  0.3951  0.1725
 4703TIP3   OH235523   3.255   1.295  12.262 -0.2796  0.0710  0.0021
 4703TIP3    H135524   3.312   1.224  12.231 -0.1001 -0.5178  1.6161
 4703TIP3    H235525   3.311   1.347  12.320 -1.1363 -0.0133  0.9214
 4704TIP3   OH235526   0.359   3.519   4.966  0.8318 -0.5158 -0.3018
 4704TIP3    H135527   0.329   3.608   4.981  0.4903 -0.6649 -0.0935
 4704TIP3    H235528   0.289   3.477   4.917  0.6974 -0.8604  0.1725
 4705TIP3   OH235529   2.694   1.936   1.445  0.2430 -0.5254 -0.2374
 4705TIP3    H135530   2.652   1.973   1.522  0.4829 -0.3920 -0.1701
 4705TIP3    H235531   2.632   1.952   1.373  0.5139  0.3363 -0.2758
 4706TIP3   OH235532   1.904   2.677   0.233 -0.3396 -0.3233 -0.2407
 4706TIP3    H135533   1.962   2.606   0.204 -0.2083 -0.3600  0.1031
 4706TIP3    H235534   1.921   2.684   0.327 -1.0350 -0.4649 -0.0970
 4707TIP3   OH235535   1.152   2.082   4.292 -0.8165  0.1812  0.5828
 4707TIP3    H135536   1.150   2.011   4.228  0.2693  1.3561 -0.8104
 4707TIP3    H235537   1.181   2.041   4.373  2.4220 -0.5332 -0.8566
 4708TIP3   OH235538   0.569   4.630   1.784  0.2996 -0.1892  0.0678
 4708TIP3    H135539   0.519   4.696   1.736 -1.4055  0.4694  2.6364
 4708TIP3    H235540   0.567   4.660   1.875 -0.1580 -3.5744  1.2394
 4709TIP3   OH235541   0.662   6.586   3.320 -0.3270 -0.4532  0.3530
 4709TIP3    H135542   0.714   6.524   3.269 -0.0860 -0.9856  1.2505
 4709TIP3    H235543   0.726   6.647   3.357 -0.6604  1.1245 -1.5702
 4710TIP3   OH235544   0.965   0.523  16.952 -0.2087 -0.1295 -0.1193
 4710TIP3    H135545   0.888   0.473  16.980  0.1402 -0.7174 -0.2084
 4710TIP3    H235546   0.990   0.483  16.868 -0.4262  0.7318 -0.6010
 4711TIP3   OH235547   4.235   5.802   3.072 -0.0153  0.0877  0.5004
 4711TIP3    H135548   4.228   5.747   3.150  0.9047 -2.3153 -1.0881
 4711TIP3    H235549   4.167   5.869   3.085 -0.0891 -0.4459  3.1986
 4712TIP3   OH235550   4.310   5.085   4.943  0.1353 -1.0913  0.1904
 4712TIP3    H135551   4.289   5.152   5.008  3.1891 -1.4570  1.6632
 4712TIP3    H235552   4.289   5.002   4.986 -1.8594 -1.1795 -0.9214
 4713TIP3   OH235553   2.795   6.087   5.035 -0.6159  0.3131  0.6310
 4713TIP3    H135554   2.889   6.099   5.022 -0.9431  2.2576  0.0375
 4713TIP3    H235555   2.790   6.019   5.103  1.2052  0.6213  1.1173
 4714TIP3   OH235556   0.492   0.713   3.382  0.2899 -0.1097  0.0268
 4714TIP3    H135557   0.540   0.757   3.452  0.7404 -0.0101 -0.3416
 4714TIP3    H235558   0.483   0.780   3.313 -2.0725  0.4913  0.8576
 4715TIP3   OH235559   2.306   5.546   2.014 -0.3671  0.0778 -0.8993
 4715TIP3    H135560   2.366   5.553   2.088  0.3918 -0.8249 -1.4090
 4715TIP3    H235561   2.340   5.607   1.949 -1.0889  0.9424 -0.4760
 4716TIP3   OH235562   6.156   0.141  14.444  0.1689  0.4360 -0.5526
 4716TIP3    H135563   6.186   0.144  14.353  0.1387  0.0799 -0.5723
 4716TIP3    H235564   6.188   0.223  14.482  0.1235  0.6151 -0.9008
 4717TIP3   OH235565   1.432   5.792   0.933 -0.1306 -0.4609  0.4034
 4717TIP3    H135566   1.393   5.876   0.909 -0.5064 -0.5322  0.7540
 4717TIP3    H235567   1.358   5.737   0.959  0.1018 -0.9297  0.0976
 4718TIP3   OH235568   2.092   5.427   2.178  0.6300  0.9902 -0.6052
 4718TIP3    H135569   2.030   5.370   2.132  2.2263 -1.1031 -0.2634
 4718TIP3    H235570   2.119   5.491   2.113 -0.2389  0.5660 -1.3932
 4719TIP3   OH235571   3.311   2.003   0.704  0.1023  0.3003 -0.3248
 4719TIP3    H135572   3.261   2.079   0.676  0.0441  0.6857  0.8068
 4719TIP3    H235573   3.245   1.935   0.719  0.1342  0.0929 -1.1205
 4720TIP3   OH235574   1.373   5.227  13.438  0.3575 -0.2639  0.2204
 4720TIP3    H135575   1.305   5.189  13.382 -0.3381 -0.0076  0.8881
 4720TIP3    H235576   1.455   5.193  13.402 -0.0899 -0.1977 -0.8823
 4721TIP3   OH235577   4.058   6.316  14.037 -0.3578 -0.6239  0.6041
 4721TIP3    H135578   4.111   6.261  14.094 -1.0526 -0.0282  1.8245
 4721TIP3    H235579   3.977   6.330  14.085 -0.6296  0.5408 -0.1792
 4722TIP3   OH235580   0.779   3.829   0.367  0.2079 -0.3335  0.4822
 4722TIP3    H135581   0.814   3.767   0.431  0.0511 -1.9222 -0.9636
 4722TIP3    H235582   0.815   3.914   0.395  2.2653 -1.3867  1.1402
 4723TIP3   OH235583   3.071   2.298   4.349 -0.0187 -0.0469 -0.3051
 4723TIP3    H135584   2.978   2.274   4.355 -0.7792  2.1447 -2.4837
 4723TIP3    H235585   3.078   2.381   4.396  0.8941 -0.3341  0.0736
 4724TIP3   OH235586   4.901   5.204   1.435  0.3576 -0.1851 -0.0688
 4724TIP3    H135587   4.807   5.187   1.443  0.4575 -0.6216  0.1834
 4724TIP3    H235588   4.922   5.260   1.509 -0.2649  2.3035 -1.7230
 4725TIP3   OH235589   5.416   4.492   4.498  0.6770  0.3741  0.0302
 4725TIP3    H135590   5.385   4.422   4.440  0.5396  1.0634 -0.7265
 4725TIP3    H235591   5.398   4.573   4.450 -0.2718  1.0065  1.4213
 4726TIP3   OH235592   2.078   6.215  11.057  0.6765 -0.1520 -0.3212
 4726TIP3    H135593   2.029   6.248  10.981  1.6140  3.0831  0.3884
 4726TIP3    H235594   2.063   6.121  11.056 -1.1884  0.1022 -3.2035
 4727TIP3   OH235595   0.462   4.226   2.797  0.3946  0.1589  1.1603
 4727TIP3    H135596   0.527   4.215   2.866  1.7722  0.7753  0.0023
 4727TIP3    H235597   0.504   4.286   2.735 -0.7528 -0.5010 -0.2684
 4728TIP3   OH235598   0.550   3.242  11.915  0.2989  0.1202  0.0865
 4728TIP3    H135599   0.543   3.324  11.964  0.0350 -0.4182  0.9694
 4728TIP3    H235600   0.503   3.179  11.969 -0.6278 -0.3281 -1.2214
 4729TIP3   OH235601   3.834   3.161   6.049  0.0062 -0.1024 -0.3554
 4729TIP3    H135602   3.862   3.070   6.049 -1.4085 -0.5415  0.0659
 4729TIP3    H235603   3.769   3.166   5.979 -1.1044  0.2130  0.6883
 4730TIP3   OH235604   0.272   1.084  16.151  0.5111 -0.1983  0.2963
 4730TIP3    H135605   0.203   1.063  16.215 -1.0075 -0.0463 -1.2787
 4730TIP3    H235606   0.232   1.148  16.092  0.8883 -2.4948 -2.5669
 4731TIP3   OH235607   6.615   6.430  14.310 -0.3726 -0.0507  0.0820
 4731TIP3    H135608   6.694   6.437  14.364 -0.3793  0.8138 -0.0078
 4731TIP3    H235609   6.581   6.520  14.306 -0.0206  0.0113 -1.8863
 4732TIP3   OH235610   4.945   6.351   0.239  0.2068 -0.2308 -0.2171
 4732TIP3    H135611   4.944   6.389   0.327  0.0631 -1.7667  0.4626
 4732TIP3    H235612   4.861   6.377   0.201  0.0227 -0.0472  0.3067
 4733TIP3   OH235613   6.509   5.448  15.015 -0.2440 -0.1695  0.9869
 4733TIP3    H135614   6.514   5.364  14.970  0.3949  1.3849 -1.9716
 4733TIP3    H235615   6.426   5.485  14.986 -0.0290  0.6713  1.4494
 4734TIP3   OH235616   4.759   5.501   0.082  0.2636 -0.0305 -0.6246
 4734TIP3    H135617   4.717   5.445   0.016  0.5210  1.3668 -1.9696
 4734TIP3    H235618   4.686   5.531   0.136  0.3573 -3.6544  1.7015
 4735TIP3   OH235619   2.472   4.015  12.157  0.2366  0.4248 -0.3881
 4735TIP3    H135620   2.431   4.031  12.072  0.1902  1.2598 -0.2040
 4735TIP3    H235621   2.479   4.101  12.197  0.6610  0.0810  0.2750
 4736TIP3   OH235622   5.641   2.091  11.100  0.0082  0.3051 -0.7282
 4736TIP3    H135623   5.617   2.165  11.043 -0.8891  1.0197  0.5462
 4736TIP3    H235624   5.575   2.024  11.080 -0.4043  0.6153 -0.4239
 4737TIP3   OH235625   5.062   2.518  13.316  0.4961  0.4781 -0.1852
 4737TIP3    H135626   5.033   2.580  13.382  1.1718  0.7516 -0.1444
 4737TIP3    H235627   4.984   2.498  13.265  0.5283  2.3021 -0.9817
 4738TIP3   OH235628   3.411   5.157  11.292 -0.0357  0.1104  0.1745
 4738TIP3    H135629   3.383   5.152  11.383 -0.8579  0.4828 -0.0470
 4738TIP3    H235630   3.345   5.213  11.250  2.2266  2.8394  0.1080
 4739TIP3   OH235631   5.710   6.328  12.402  0.1312 -0.2909 -0.2768
 4739TIP3    H135632   5.793   6.358  12.366  0.7755 -0.4936  1.0414
 4739TIP3    H235633   5.683   6.397  12.462 -0.1935 -0.6652  0.0076
 4740TIP3   OH235634   6.766   0.807  17.202  0.2384  0.3250  0.1758
 4740TIP3    H135635   6.847   0.856  17.217 -1.1559  3.0389 -0.8511
 4740TIP3    H235636   6.698   0.861  17.242 -1.4921 -0.2787 -1.8922
 4741TIP3   OH235637   1.475   5.691  14.566 -0.5545 -0.4469  0.0797
 4741TIP3    H135638   1.385   5.659  14.575 -1.3707  1.6296 -0.3683
 4741TIP3    H235639   1.484   5.755  14.637  0.3720 -0.1926 -0.2656
 4742TIP3   OH235640   6.663   5.183   2.875 -0.0668  0.3264 -0.2210
 4742TIP3    H135641   6.692   5.095   2.900 -0.9386  0.2392  0.5297
 4742TIP3    H235642   6.743   5.229   2.851  0.3478 -0.8243 -1.1071
 4743TIP3   OH235643   4.631   3.869   0.606 -0.3875 -0.0803 -0.7708
 4743TIP3    H135644   4.644   3.951   0.558 -0.5370  1.0199  1.0259
 4743TIP3    H235645   4.655   3.890   0.696 -1.9603 -1.6018  0.0202
 4744TIP3   OH235646   6.137   6.214   3.888  0.5474 -0.1307 -0.8699
 4744TIP3    H135647   6.175   6.230   3.974  0.6025  1.8803 -1.2545
 4744TIP3    H235648   6.057   6.164   3.905  0.1825  0.8814  0.3844
 4745TIP3   OH235649   6.161   1.870  15.984 -0.3280 -0.3259  0.1589
 4745TIP3    H135650   6.179   1.879  16.078  0.0938 -0.8897  0.1409
 4745TIP3    H235651   6.223   1.802  15.955  1.2557  1.5790 -1.0162
 4746TIP3   OH235652   3.052   6.211   1.575  0.4897 -0.3119 -0.1302
 4746TIP3    H135653   3.051   6.143   1.508 -0.8972  0.9731 -1.4546
 4746TIP3    H235654   3.118   6.273   1.546  0.1754  0.0384 -0.1044
 4747TIP3   OH235655   4.623   5.712   5.610  0.0345  0.2632 -0.3097
 4747TIP3    H135656   4.669   5.795   5.622  0.2666  0.0219  0.4790
 4747TIP3    H235657   4.619   5.674   5.697 -2.5787  0.7616 -0.1661
 4748TIP3   OH235658   5.942   1.037   5.665  0.3037  0.2967  0.1983
 4748TIP3    H135659   5.893   1.116   5.689  1.7647  0.7754  1.6531
 4748TIP3    H235660   5.985   1.010   5.746  1.9583 -0.4573 -0.9188
 4749TIP3   OH235661   2.168   4.511  12.129  0.0900  0.2778 -0.6359
 4749TIP3    H135662   2.087   4.537  12.173 -0.0524  1.5166 -1.6211
 4749TIP3    H235663   2.152   4.423  12.098 -1.8681  1.5139 -3.2163
 4750TIP3   OH235664   2.268   2.146  15.981 -0.0733 -0.9803 -0.1968
 4750TIP3    H135665   2.358   2.150  15.949 -0.1191  1.3671 -0.1329
 4750TIP3    H235666   2.219   2.107  15.909  0.9671 -2.1469 -0.2887
 4751TIP3   OH235667   5.666   0.724  13.070 -0.3175  0.3571  0.0098
 4751TIP3    H135668   5.675   0.634  13.036 -0.5747  0.2144  0.3184
 4751TIP3    H235669   5.596   0.762  13.018 -1.4133 -0.1909  1.0543
 4752TIP3   OH235670   0.750   2.637  13.040  0.3217  0.2015 -0.3218
 4752TIP3    H135671   0.700   2.567  13.082  0.2330  0.0404 -0.6968
 4752TIP3    H235672   0.780   2.692  13.112  2.9980 -1.9197  0.2372
 4753TIP3   OH235673   1.474   6.520  17.040  0.2391 -0.0756  0.1945
 4753TIP3    H135674   1.479   6.454  17.109  0.1756  0.5577  0.8074
 4753TIP3    H235675   1.411   6.584  17.072  1.0773  0.8231  0.0658
 4754TIP3   OH235676   5.730   5.088  14.238 -0.0594 -0.2500 -0.0178
 4754TIP3    H135677   5.728   5.122  14.327 -1.1544 -1.0330  0.2648
 4754TIP3    H235678   5.758   4.997  14.247  1.1681  0.0537 -0.6096
 4755TIP3   OH235679   2.629   4.316   4.834 -0.1569 -0.1140 -0.3764
 4755TIP3    H135680   2.633   4.412   4.837 -2.0340 -0.0013 -0.7039
 4755TIP3    H235681   2.698   4.292   4.772  0.4326  1.0139 -0.1800
 4756TIP3   OH235682   5.530   2.976   1.529  0.2596 -0.0421 -0.2800
 4756TIP3    H135683   5.615   2.997   1.567 -0.1684  1.0671  0.0747
 4756TIP3    H235684   5.549   2.956   1.437  0.5628  2.9554 -0.8995
 4757TIP3   OH235685   4.588   0.855  16.221  0.0568  0.2820 -0.0746
 4757TIP3    H135686   4.557   0.940  16.252  0.6150  0.4734 -0.0205
 4757TIP3    H235687   4.660   0.877  16.161  0.6471 -0.1730  0.4574
 4758TIP3   OH235688   1.270   6.357  16.690 -0.1557 -0.1172  0.3983
 4758TIP3    H135689   1.327   6.298  16.738 -0.4184 -0.6309  0.0761
 4758TIP3    H235690   1.253   6.313  16.607 -0.6266  0.2478  0.2968
 4759TIP3   OH235691   2.311   1.946  14.710 -0.2491 -0.4006  0.0344
 4759TIP3    H135692   2.244   1.927  14.645  0.9328 -0.1487 -1.2875
 4759TIP3    H235693   2.352   2.028  14.679 -1.7776  1.4887  2.7977
 4760TIP3   OH235694   6.092   5.212   0.156  0.0676  0.1451 -0.1229
 4760TIP3    H135695   6.102   5.265   0.235  0.3747  1.5085 -1.0594
 4760TIP3    H235696   6.138   5.261   0.088  0.2237 -1.2441 -1.0557
 4761TIP3   OH235697   0.358   1.364   3.760 -1.1631  0.5395  0.6272
 4761TIP3    H135698   0.266   1.390   3.762 -0.9725  1.2596 -0.0276
 4761TIP3    H235699   0.393   1.402   3.680 -0.1384  0.7833  1.1796
 4762TIP3   OH235700   0.505   5.719  11.410 -0.5661 -0.0129  0.1271
 4762TIP3    H135701   0.521   5.741  11.318  2.6598  1.9368  1.0550
 4762TIP3    H235702   0.546   5.633  11.422 -0.7327 -0.1369 -0.1794
 4763TIP3   OH235703   2.990   2.887   3.582 -0.0776 -0.4362  0.1101
 4763TIP3    H135704   2.964   2.979   3.581 -2.3229 -1.0473  0.1246
 4763TIP3    H235705   2.913   2.839   3.550  1.3656 -2.2364 -0.7745
 4764TIP3   OH235706   3.787   5.356  13.522  0.9855 -0.9449 -0.8046
 4764TIP3    H135707   3.850   5.392  13.584  0.0263 -0.8607  0.1463
 4764TIP3    H235708   3.742   5.432  13.487  0.9674 -1.0422 -0.9921
 4765TIP3   OH235709   6.120   0.044   1.700  0.1946  0.3215  0.0111
 4765TIP3    H135710   6.084   0.086   1.622  0.4236  3.0555  1.3105
 4765TIP3    H235711   6.162  -0.035   1.667 -2.7362 -0.4367 -2.1636
 4766TIP3   OH235712   1.911   0.632  14.171  0.4042 -0.2310 -0.0456
 4766TIP3    H135713   1.949   0.686  14.102  0.0737  0.1514  0.0730
 4766TIP3    H235714   1.986   0.591  14.213  0.7398  1.1004  0.6710
 4767TIP3   OH235715   4.837   0.284  16.326  0.2113 -0.1838  0.1289
 4767TIP3    H135716   4.846   0.260  16.418 -1.4251 -2.4412 -0.2325
 4767TIP3    H235717   4.874   0.372  16.319 -2.5475  1.3405  3.5716
 4768TIP3   OH235718   0.149   2.917   0.550 -0.2198  0.5051  0.0612
 4768TIP3    H135719   0.090   2.960   0.611 -0.1259 -0.5589  0.9204
 4768TIP3    H235720   0.162   2.981   0.480 -1.0894  1.3672  0.6731
 4769TIP3   OH235721   0.772   5.986   2.091 -0.3047 -0.0833 -0.0022
 4769TIP3    H135722   0.750   5.994   2.184 -0.0908  0.6056 -0.0108
 4769TIP3    H235723   0.718   6.051   2.047 -0.9050 -0.8673 -0.4461
 4770TIP3   OH235724   5.268   3.359  13.285 -0.1745  0.0843  0.4046
 4770TIP3    H135725   5.257   3.454  13.283  0.6955  0.1716 -1.0229
 4770TIP3    H235726   5.214   3.327  13.213  0.0066 -0.4507  0.5031
 4771TIP3   OH235727   1.688   5.720   2.282 -0.5346  0.0125  0.2888
 4771TIP3    H135728   1.642   5.791   2.328 -0.9813 -1.3813  2.0299
 4771TIP3    H235729   1.652   5.640   2.319 -0.3221 -1.1498 -1.9742
 4772TIP3   OH235730   4.746   2.429  15.930 -0.1329 -0.0244  0.0422
 4772TIP3    H135731   4.790   2.439  15.845  0.1317  1.1522  0.3042
 4772TIP3    H235732   4.654   2.446  15.912 -0.1325 -0.1474 -0.0786
 4773TIP3   OH235733   4.179   2.409   5.970  0.6143 -0.3968 -0.0638
 4773TIP3    H135734   4.267   2.381   5.947 -0.1168 -2.2437 -0.6891
 4773TIP3    H235735   4.129   2.403   5.889 -1.0168 -3.1546  1.0826
 4774TIP3   OH235736   5.205   2.146  15.216 -0.3568  0.1253  0.0011
 4774TIP3    H135737   5.185   2.056  15.191 -0.2041 -0.2851  1.3210
 4774TIP3    H235738   5.138   2.169  15.281  0.2218  0.5903  0.4458
 4775TIP3   OH235739   3.790   6.017   0.201 -0.9868 -0.0044  0.0790
 4775TIP3    H135740   3.735   5.986   0.272 -0.3057  0.0320  0.6305
 4775TIP3    H235741   3.764   6.108   0.187 -1.8876 -0.3439 -0.4704
 4776TIP3   OH235742   6.709   5.292   4.783  0.0836  0.3686 -0.0990
 4776TIP3    H135743   6.797   5.257   4.797  1.4450  2.6508 -2.3729
 4776TIP3    H235744   6.679   5.319   4.869  0.3703 -3.0937  1.1656
 4777TIP3   OH235745   1.392   6.048  16.774 -0.3877 -0.1983  0.0870
 4777TIP3    H135746   1.348   6.104  16.839  2.6464  0.9855  1.2465
 4777TIP3    H235747   1.456   6.107  16.732  1.2233 -2.2085 -0.3456
 4778TIP3   OH235748   2.276   0.388   4.109  0.0673 -0.2117  0.3986
 4778TIP3    H135749   2.294   0.481   4.121  0.0448 -0.3777  1.7640
 4778TIP3    H235750   2.337   0.361   4.041  0.2498  0.7421  0.1731
 4779TIP3   OH235751   2.785   5.175   5.051  0.1040 -0.0105  0.7799
 4779TIP3    H135752   2.841   5.190   4.974  0.0410  1.5763  1.0305
 4779TIP3    H235753   2.766   5.081   5.049  2.0323 -0.4121  0.1680
 4780TIP3   OH235754   1.404   0.017  17.176 -0.2151  0.0615 -0.1128
 4780TIP3    H135755   1.377   0.086  17.116 -0.4057  0.2651  0.2045
 4780TIP3    H235756   1.323  -0.013  17.217 -0.0667  0.0342  0.1636
 4781TIP3   OH235757   2.640   1.909   3.951  0.3549 -0.6023 -0.1040
 4781TIP3    H135758   2.679   1.858   3.879  0.2533 -0.6337 -0.1371
 4781TIP3    H235759   2.600   1.844   4.008 -3.4320 -0.3771 -2.2742
 4782TIP3   OH235760   1.582   5.720   1.166 -0.1443  0.7448 -0.8683
 4782TIP3    H135761   1.631   5.789   1.209 -0.1766  0.6010 -0.6024
 4782TIP3    H235762   1.518   5.766   1.111 -1.2480  0.9124  0.5420
 4783TIP3   OH235763   1.495   0.272   3.444  0.0050 -0.6987  0.4651
 4783TIP3    H135764   1.579   0.281   3.399 -0.0327 -1.1243  0.3103
 4783TIP3    H235765   1.512   0.303   3.533  0.0277  0.3303  0.1101
 4784TIP3   OH235766   1.337   1.861  14.100 -0.0702  0.0248 -0.3864
 4784TIP3    H135767   1.428   1.839  14.121 -0.4590 -1.3843 -0.1460
 4784TIP3    H235768   1.288   1.841  14.180 -0.6583  0.4298 -0.6365
 4785TIP3   OH235769   2.333   3.261  16.489  0.3217  0.1255 -0.1111
 4785TIP3    H135770   2.295   3.264  16.577  0.2000 -1.6846 -0.1029
 4785TIP3    H235771   2.390   3.338  16.486 -0.9379  1.1385  0.9592
 4786TIP3   OH235772   4.134   2.175  13.023 -0.0687  0.3160 -0.2299
 4786TIP3    H135773   4.111   2.244  12.960 -1.2736  2.6605  2.6579
 4786TIP3    H235774   4.057   2.165  13.078  0.8075 -1.9811  0.6574
 4787TIP3   OH235775   1.577   6.376   5.256  0.2661  0.1603 -0.1267
 4787TIP3    H135776   1.654   6.319   5.258 -1.0877 -1.7828 -1.4819
 4787TIP3    H235777   1.611   6.464   5.271  2.7434 -0.6661 -0.7777
 4788TIP3   OH235778   1.983   4.844   3.117  0.2505 -0.0728 -0.4085
 4788TIP3    H135779   2.078   4.828   3.114  0.5197  1.2386  0.2985
 4788TIP3    H235780   1.943   4.758   3.106  1.5149 -0.5233 -1.6587
 4789TIP3   OH235781   1.161   1.338  16.232 -0.4450  0.1120  0.1721
 4789TIP3    H135782   1.234   1.362  16.174 -0.4730 -0.2062  0.0069
 4789TIP3    H235783   1.093   1.305  16.173  0.3739 -2.3508  0.5607
 4790TIP3   OH235784   2.155   1.889   0.253 -0.0658 -0.4419 -0.3239
 4790TIP3    H135785   2.192   1.947   0.320  0.3652  1.1414 -1.8811
 4790TIP3    H235786   2.231   1.849   0.211 -0.3229 -1.2030 -0.0737
 4791TIP3   OH235787   4.211   4.941  16.870  0.1139  0.2930 -0.1132
 4791TIP3    H135788   4.207   4.899  16.956 -0.3841  0.8173  0.1158
 4791TIP3    H235789   4.156   4.886  16.814  1.2141 -0.6167 -0.3491
 4792TIP3   OH235790   2.484   4.064  12.942 -0.2325  0.3063 -0.5092
 4792TIP3    H135791   2.568   4.058  12.896  0.6718  0.0518  1.1504
 4792TIP3    H235792   2.497   4.134  13.006 -0.8885 -0.5392  0.5665
 4793TIP3   OH235793   4.714   5.348   0.579 -0.2890  0.8219  0.4404
 4793TIP3    H135794   4.744   5.344   0.670  1.1142  0.9325 -0.0030
 4793TIP3    H235795   4.769   5.415   0.539 -0.1781  0.0343 -0.7506
 4794TIP3   OH235796   6.460   2.142   1.785  0.4926 -0.8111  0.0100
 4794TIP3    H135797   6.465   2.067   1.727  0.1951 -0.7644 -0.0787
 4794TIP3    H235798   6.549   2.176   1.789  0.2526  0.0481 -1.5603
 4795TIP3   OH235799   2.509   4.705   0.699  0.4523  0.0003  0.0173
 4795TIP3    H135800   2.492   4.646   0.772 -0.2762 -0.0228 -0.1722
 4795TIP3    H235801   2.423   4.727   0.665  0.7504  0.6964 -0.2933
 4796TIP3   OH235802   4.950   5.327  13.661 -0.2938 -0.0751  0.0993
 4796TIP3    H135803   4.876   5.387  13.649  0.6026  1.3514  1.5136
 4796TIP3    H235804   5.027   5.382  13.651  0.5585 -1.0249  1.3024
 4797TIP3   OH235805   3.824   6.310  13.389  0.1758  0.9419 -0.5509
 4797TIP3    H135806   3.847   6.397  13.424  0.4401  0.6832 -0.0774
 4797TIP3    H235807   3.730   6.302  13.406 -0.1119  1.6642 -1.7546
 4798TIP3   OH235808   0.478   3.166  11.622 -0.1316  0.4731 -0.0518
 4798TIP3    H135809   0.398   3.143  11.575 -0.1264 -0.3964  0.3578
 4798TIP3    H235810   0.451   3.174  11.713  0.3515 -0.3781  0.1743
 4799TIP3   OH235811   5.377   5.584   0.836  0.2088 -0.6041  0.3185
 4799TIP3    H135812   5.319   5.596   0.760  1.2397 -1.6737 -0.6641
 4799TIP3    H235813   5.319   5.589   0.912 -0.8825  0.2507 -0.5580
 4800TIP3   OH235814   0.869   3.070   4.405  0.1359 -0.6291 -0.1550
 4800TIP3    H135815   0.895   3.003   4.469 -1.4269 -0.8090  0.3150
 4800TIP3    H235816   0.793   3.113   4.444 -0.2728 -0.1142 -1.4763
 4801TIP3   OH235817   6.734   6.630  13.256 -1.1475 -0.4705  0.2861
 4801TIP3    H135818   6.744   6.550  13.204  0.0254  0.9263 -1.6733
 4801TIP3    H235819   6.821   6.668  13.260 -2.1942  2.2630 -1.3731
 4802TIP3   OH235820   0.834   6.082  15.740  0.0695 -0.0387 -0.4646
 4802TIP3    H135821   0.848   6.130  15.659 -4.0988 -1.4507 -2.1423
 4802TIP3    H235822   0.791   6.146  15.798 -0.5164 -0.1437 -0.7774
 4803TIP3   OH235823   2.051   1.449  16.005  0.2508 -0.2801 -0.7473
 4803TIP3    H135824   2.135   1.430  16.047 -0.5537 -0.9351  0.6245
 4803TIP3    H235825   1.991   1.461  16.079 -1.5305 -2.8820 -1.6952
 4804TIP3   OH235826   5.919   6.781  15.946 -0.4319  0.2538 -0.0565
 4804TIP3    H135827   5.998   6.736  15.974 -0.2510  0.4494 -0.2582
 4804TIP3    H235828   5.849   6.742  16.000  0.0399  1.2346  1.3135
 4805TIP3   OH235829   5.511   3.279   0.698  0.3788  0.1071  0.4571
 4805TIP3    H135830   5.512   3.351   0.761  0.1438  0.2057  0.3449
 4805TIP3    H235831   5.421   3.273   0.668  0.6158  0.4544 -0.3359
 4806TIP3   OH235832   3.810   0.216  12.376 -0.0561 -0.1301  0.3689
 4806TIP3    H135833   3.851   0.287  12.426 -0.3229 -0.1284  0.5925
 4806TIP3    H235834   3.827   0.138  12.429 -1.4902  0.0668  1.1596
 4807TIP3   OH235835   0.288   3.807   4.839  0.2622  0.1645 -0.1330
 4807TIP3    H135836   0.264   3.899   4.850  0.6353  0.0949  1.2609
 4807TIP3    H235837   0.207   3.759   4.857  0.4440  0.1419  0.6320
 4808TIP3   OH235838   0.802   0.084  14.364  0.0152  0.3139 -0.1157
 4808TIP3    H135839   0.885   0.105  14.321 -0.7349  1.4755 -0.9983
 4808TIP3    H235840   0.774   0.002  14.323  1.9155 -1.3990  1.8901
 4809TIP3   OH235841   4.800   2.714   5.401 -0.0382  0.1944  0.2877
 4809TIP3    H135842   4.716   2.750   5.372 -0.1459 -0.8067 -0.6895
 4809TIP3    H235843   4.783   2.680   5.489 -0.1790  1.6538  0.8264
 4810TIP3   OH235844   0.007   4.229   5.031  0.0293  0.0649  0.0690
 4810TIP3    H135845   0.036   4.255   5.118 -2.4209  0.2918  0.8590
 4810TIP3    H235846  -0.086   4.208   5.042 -0.0200 -1.1067 -2.2377
 4811TIP3   OH235847   3.151   3.067  10.871  0.1817 -0.5509  0.3261
 4811TIP3    H135848   3.183   3.157  10.881  1.6106 -1.2246  2.0910
 4811TIP3    H235849   3.056   3.075  10.872  0.2886  0.8487  1.5444
 4812TIP3   OH235850   6.759   3.255   1.971 -0.2708 -0.7180 -0.3768
 4812TIP3    H135851   6.736   3.300   1.890 -0.4917  0.9674  0.5917
 4812TIP3    H235852   6.854   3.264   1.978 -0.2985 -0.5202 -0.2527
 4813TIP3   OH235853   3.773   3.315   2.073  0.1394  0.2048 -0.0753
 4813TIP3    H135854   3.841   3.327   2.139  1.0300  0.7134 -1.0728
 4813TIP3    H235855   3.693   3.348   2.114  0.3647 -0.9824  1.3372
 4814TIP3   OH235856   3.215   5.999  11.645  0.5654  0.0606  0.0448
 4814TIP3    H135857   3.310   5.995  11.633  0.6263  1.1716  0.0268
 4814TIP3    H235858   3.183   6.041  11.565  0.1440  0.3754  0.3751
 4815TIP3   OH235859   6.726   0.422  15.420  0.7719 -0.0701  0.1907
 4815TIP3    H135860   6.636   0.404  15.392  0.2904 -1.4184  2.4811
 4815TIP3    H235861   6.764   0.335  15.432  1.5391  0.4777  1.8161
 4816TIP3   OH235862   0.106   5.148   3.282 -0.1917  0.1121  0.2541
 4816TIP3    H135863   0.049   5.078   3.314 -0.8443  1.5254  2.2709
 4816TIP3    H235864   0.161   5.171   3.357  1.7873  0.0290 -1.1343
 4817TIP3   OH235865   6.573   5.130  13.035  0.1114  0.0474 -0.4560
 4817TIP3    H135866   6.609   5.201  13.088 -2.3457  1.3078 -0.4088
 4817TIP3    H235867   6.629   5.128  12.957  0.5227  1.6699 -0.2161
 4818TIP3   OH235868   3.480   4.989   2.462 -0.5592 -0.6145 -0.6206
 4818TIP3    H135869   3.558   5.032   2.497 -1.5223 -1.3515  2.6051
 4818TIP3    H235870   3.411   5.056   2.466 -0.8119 -0.8704 -0.6450
 4819TIP3   OH235871   6.544   4.716   4.055  0.3136  0.2000 -0.0013
 4819TIP3    H135872   6.624   4.709   4.003  1.6581  3.6553  1.4645
 4819TIP3    H235873   6.476   4.742   3.992  0.8965 -0.2389 -0.8139
 4820TIP3   OH235874   4.033   6.659   4.684 -0.2635  0.7899  0.0584
 4820TIP3    H135875   4.029   6.577   4.635 -0.5032  0.1261  1.1746
 4820TIP3    H235876   3.949   6.664   4.729  0.0347  1.2906  0.5630
 4821TIP3   OH235877   3.913   6.709   2.800 -0.7672 -0.0649 -0.2129
 4821TIP3    H135878   3.906   6.648   2.873  0.1015 -0.0617 -0.1206
 4821TIP3    H235879   3.843   6.772   2.815 -2.1668 -1.4657 -0.7341
 4822TIP3   OH235880   0.127   5.681   4.763 -0.2486  0.3622 -0.1679
 4822TIP3    H135881   0.217   5.676   4.796  0.1724 -0.2954 -1.3440
 4822TIP3    H235882   0.128   5.625   4.685 -1.8764 -0.2562  0.2383
 4823TIP3   OH235883   5.181   0.153  11.749 -0.9342  0.5532  0.0805
 4823TIP3    H135884   5.264   0.107  11.743 -1.1572  0.0351  0.8703
 4823TIP3    H235885   5.119   0.087  11.779 -1.0060  1.6430  2.4418
 4824TIP3   OH235886   1.047   5.182   5.717  0.0273  0.0762 -0.9847
 4824TIP3    H135887   1.138   5.208   5.732 -0.4395  1.2895 -0.1703
 4824TIP3    H235888   1.043   5.091   5.747  0.0590  1.2383  2.7766
 4825TIP3   OH235889   5.458   3.418   1.217 -0.4113 -0.1000  0.2498
 4825TIP3    H135890   5.526   3.351   1.229  1.4512  1.1081 -2.6906
 4825TIP3    H235891   5.501   3.500   1.243 -1.5727  0.3514  0.7450
 4826TIP3   OH235892   4.410   0.825  10.355 -0.5278  0.0887 -0.0157
 4826TIP3    H135893   4.466   0.886  10.308 -0.3950 -1.2379 -1.6565
 4826TIP3    H235894   4.470   0.770  10.405 -0.5190  0.1594  0.0492
 4827TIP3   OH235895   6.454   4.346   4.119  0.1690  0.0177  0.0482
 4827TIP3    H135896   6.514   4.394   4.176  1.7072  0.9358 -2.2655
 4827TIP3    H235897   6.474   4.379   4.031 -1.3488 -2.1722 -1.1447
 4828TIP3   OH235898   1.272   0.561   6.261  0.2063 -0.0171 -0.0938
 4828TIP3    H135899   1.268   0.654   6.242  0.1324 -0.6752 -3.7859
 4828TIP3    H235900   1.186   0.539   6.296  0.7123  1.5347  2.1806
 4829TIP3   OH235901   0.562   1.500  11.727  0.0766 -0.3172  0.8139
 4829TIP3    H135902   0.509   1.424  11.750  0.8484 -0.5809  1.7718
 4829TIP3    H235903   0.528   1.571  11.781 -3.5588  1.1957 -3.2132
 4830TIP3   OH235904   1.112   3.503   3.594 -0.0696 -0.1734 -0.5246
 4830TIP3    H135905   1.104   3.423   3.646  1.0342 -0.0298 -0.1277
 4830TIP3    H235906   1.027   3.512   3.551 -1.5611  0.6076  2.5104
 4831TIP3   OH235907   6.164   0.696   1.564  0.0715  0.2647 -0.0092
 4831TIP3    H135908   6.155   0.634   1.637  1.5395  0.8538  0.6825
 4831TIP3    H235909   6.099   0.666   1.500 -1.6006  0.0145  1.7272
 4832TIP3   OH235910   1.537   6.113   3.264 -0.2167  0.0059 -0.7127
 4832TIP3    H135911   1.540   6.102   3.169  1.0676  0.5023 -0.7316
 4832TIP3    H235912   1.505   6.029   3.296  0.3948 -0.5413 -1.5123
 4833TIP3   OH235913   4.001   2.015  13.822 -0.3462 -0.0597 -0.2161
 4833TIP3    H135914   4.065   1.976  13.762 -0.1565 -2.4175  1.4566
 4833TIP3    H235915   3.920   2.019  13.770  0.4979  0.5902 -1.5273
 4834TIP3   OH235916   0.092   5.409  11.604 -0.2006 -0.8966  0.0727
 4834TIP3    H135917   0.177   5.446  11.583 -0.8371  0.6302  0.1190
 4834TIP3    H235918   0.099   5.317  11.579  0.7666 -0.3075 -1.9357
 4835TIP3   OH235919   2.160   0.870   6.547  0.2041  0.7125 -0.3136
 4835TIP3    H135920   2.236   0.814   6.563  0.0187  0.8838  1.1935
 4835TIP3    H235921   2.169   0.942   6.610 -1.6512  0.2791  0.4601
 4836TIP3   OH235922   2.889   3.090  16.298  0.1528 -0.0262 -0.0173
 4836TIP3    H135923   2.838   3.123  16.224  0.4689 -1.4785 -0.9030
 4836TIP3    H235924   2.957   3.156  16.312  0.0590  0.2794 -0.9951
 4837TIP3   OH235925   2.165   0.379  14.517 -0.6194  0.1297 -0.1193
 4837TIP3    H135926   2.106   0.333  14.576 -1.2365  1.8227  0.6123
 4837TIP3    H235927   2.203   0.449  14.570  0.3016  0.4699 -1.2040
 4838TIP3   OH235928   6.487   2.664  13.443  0.1347  0.1280  0.3062
 4838TIP3    H135929   6.480   2.701  13.355  1.6129  2.8350  1.2670
 4838TIP3    H235930   6.577   2.631  13.448 -0.4102 -1.4077  0.3130
 4839TIP3   OH235931   0.401   6.171  14.812 -0.1315  0.2955 -0.0678
 4839TIP3    H135932   0.391   6.263  14.835 -1.4250 -0.1245  1.1087
 4839TIP3    H235933   0.325   6.128  14.851 -0.3662 -1.0364 -1.9390
 4840TIP3   OH235934   0.272   0.170   2.687 -0.3778 -0.3404 -0.1020
 4840TIP3    H135935   0.316   0.166   2.602 -1.8490 -1.9998 -0.8038
 4840TIP3    H235936   0.180   0.183   2.666 -0.8211 -1.2888  1.2306
 4841TIP3   OH235937   5.064   3.917  13.688  0.0356 -0.0688 -0.3913
 4841TIP3    H135938   5.135   3.901  13.626 -0.8769 -0.6221 -1.3135
 4841TIP3    H235939   5.059   4.013  13.694  2.3460 -0.0236  1.4507
 4842TIP3   OH235940   2.937   1.423  15.482 -0.7766 -0.2462 -0.0465
 4842TIP3    H135941   2.867   1.475  15.442 -0.0893  1.5841  1.0742
 4842TIP3    H235942   2.904   1.403  15.570  0.5454  1.5863  0.8954
 4843TIP3   OH235943   4.518   0.629   2.891 -0.1757 -0.6014  0.5230
 4843TIP3    H135944   4.586   0.651   2.828 -2.4851  1.1156 -1.4275
 4843TIP3    H235945   4.519   0.534   2.895  1.4092 -0.6442 -0.5122
 4844TIP3   OH235946   2.445   5.080  16.007 -0.4305 -0.6110 -0.0852
 4844TIP3    H135947   2.471   5.058  16.096  0.7971 -0.9576 -0.5147
 4844TIP3    H235948   2.351   5.060  16.003 -0.9141  1.2388  1.6710
 4845TIP3   OH235949   5.640   6.454   3.620  0.0884 -0.3142 -0.5176
 4845TIP3    H135950   5.599   6.541   3.616  1.3097  0.2468 -1.2127
 4845TIP3    H235951   5.596   6.404   3.551  0.4881  0.2516 -1.1938
 4846TIP3   OH235952   1.567   0.225   4.693 -0.3163 -0.2079 -1.0906
 4846TIP3    H135953   1.546   0.304   4.643 -1.6276 -0.3360 -0.7608
 4846TIP3    H235954   1.587   0.256   4.781  2.2942  0.0487 -1.7163
 4847TIP3   OH235955   5.917   5.203  13.963 -0.2351  0.3357 -0.1077
 4847TIP3    H135956   6.008   5.209  13.936  0.5801 -1.6904  2.0223
 4847TIP3    H235957   5.899   5.109  13.966 -2.6024  0.7157 -1.1434
 4848TIP3   OH235958   1.134   3.583   6.220 -0.3504 -0.2582  0.5424
 4848TIP3    H135959   1.142   3.609   6.312 -2.7959 -0.8896  0.9718
 4848TIP3    H235960   1.122   3.488   6.223 -2.2019 -0.0751 -0.2898
 4849TIP3   OH235961   6.563   5.629  12.675  0.3946 -0.0228 -0.3052
 4849TIP3    H135962   6.652   5.646  12.707  0.2358 -1.4847  0.9977
 4849TIP3    H235963   6.576   5.589  12.589  1.0021 -0.4686 -0.0101
 4850TIP3   OH235964   5.622   4.948  16.865  0.0175  0.3532 -0.2175
 4850TIP3    H135965   5.652   5.036  16.886 -0.1265 -0.0514  1.7493
 4850TIP3    H235966   5.539   4.938  16.912 -0.1029 -0.7445 -0.6410
 4851TIP3   OH235967   4.911   3.032  15.278 -0.1915 -0.0569  0.2488
 4851TIP3    H135968   4.900   2.979  15.357 -1.1291  1.4325  1.1431
 4851TIP3    H235969   4.855   2.989  15.213  0.4127 -1.1600  0.4443
 4852TIP3   OH235970   5.606   6.135   3.660  0.5927  0.1146  0.5230
 4852TIP3    H135971   5.627   6.129   3.567 -0.4703 -1.6544  0.3798
 4852TIP3    H235972   5.569   6.223   3.671 -0.6446 -0.2017 -1.0147
 4853TIP3   OH235973   2.147   6.215   6.237  0.1366 -0.2231  0.0421
 4853TIP3    H135974   2.072   6.179   6.190  0.6872 -0.5490 -0.5888
 4853TIP3    H235975   2.143   6.309   6.219  1.0676 -0.4991 -1.7065
 4854TIP3   OH235976   6.135   6.784   1.992  0.1448  0.3191 -0.1285
 4854TIP3    H135977   6.137   6.809   1.900  1.6177  1.4746  0.1990
 4854TIP3    H235978   6.110   6.864   2.039  1.0026  0.1667  0.6020
 4855TIP3   OH235979   2.820   3.546  13.723 -0.8003  0.4340 -0.4842
 4855TIP3    H135980   2.825   3.511  13.812  0.0262 -2.2698 -1.5378
 4855TIP3    H235981   2.857   3.634  13.730 -0.6212  0.2162  1.8188
 4856TIP3   OH235982   2.827   1.450   0.815  0.3976 -0.1802 -0.6092
 4856TIP3    H135983   2.862   1.402   0.740 -0.1656  1.0170 -1.6697
 4856TIP3    H235984   2.839   1.542   0.791  2.7977  0.2371  2.0156
 4857TIP3   OH235985   0.465   4.619   2.698 -0.6718 -0.1776  0.0373
 4857TIP3    H135986   0.399   4.674   2.656  0.4004  1.3759  0.3532
 4857TIP3    H235987   0.503   4.568   2.627 -0.3268  0.9023 -0.5627
 4858TIP3   OH235988   3.928   5.200   0.334  0.4723 -0.4447 -0.1379
 4858TIP3    H135989   3.958   5.182   0.244  0.7811 -0.0003 -0.1233
 4858TIP3    H235990   4.009   5.208   0.384  0.2918 -1.0832  0.2576
 4859TIP3   OH235991   1.746   5.200   0.940 -0.3889  0.0242  0.6555
 4859TIP3    H135992   1.659   5.162   0.956 -0.9572  0.4005 -1.4764
 4859TIP3    H235993   1.742   5.286   0.981 -0.5469 -0.4866  1.7410
 4860TIP3   OH235994   1.183   1.290   2.442  0.1223  0.0194 -0.5537
 4860TIP3    H135995   1.147   1.221   2.498 -0.4069  0.2600 -0.5875
 4860TIP3    H235996   1.274   1.265   2.427  0.3218  0.0669  0.5833
 4861TIP3   OH235997   0.773   4.882   5.396 -0.4106  0.1367  0.4675
 4861TIP3    H135998   0.801   4.967   5.361 -0.9683  1.1221  2.3419
 4861TIP3    H235999   0.750   4.831   5.319  0.2899  1.5684 -0.7184
 4862TIP3   OH236000   3.886   4.658  14.185 -0.3969  0.6894 -0.5059
 4862TIP3    H136001   3.939   4.710  14.125  0.1141  1.0923  0.2770
 4862TIP3    H236002   3.829   4.605  14.129  0.4648  0.6488 -1.3436
 4863TIP3   OH236003   4.195   3.818  12.525  0.4510  0.4673  0.5487
 4863TIP3    H136004   4.105   3.830  12.554  0.3822  0.1554  0.4730
 4863TIP3    H236005   4.216   3.728  12.550  0.8553  0.6457  0.8627
 4864TIP3   OH236006   0.615   4.800  13.212  0.3069  0.4051 -0.0541
 4864TIP3    H136007   0.702   4.761  13.200 -0.2463 -0.3742 -1.7024
 4864TIP3    H236008   0.596   4.843  13.128 -0.4215  1.5566  0.6834
 4865TIP3   OH236009   5.697   0.754   0.367 -0.4558 -0.0017  0.0627
 4865TIP3    H136010   5.747   0.759   0.448  1.4326 -0.9971 -1.0137
 4865TIP3    H236011   5.738   0.819   0.309 -1.0049 -0.1598 -0.5150
 4866TIP3   OH236012   4.606   2.872   3.126  0.4203 -0.0821  0.4797
 4866TIP3    H136013   4.626   2.852   3.035  1.4456  0.1690  0.6461
 4866TIP3    H236014   4.599   2.786   3.169 -0.1168 -0.2007  0.1637
 4867TIP3   OH236015   2.343   2.204   5.366  0.1698  0.6092  0.2569
 4867TIP3    H136016   2.274   2.221   5.430 -0.5714 -0.6366 -0.1764
 4867TIP3    H236017   2.424   2.199   5.417 -0.0936  1.8264  0.8010
 4868TIP3   OH236018   6.421   2.075  13.907 -0.7768  0.2912  0.3910
 4868TIP3    H136019   6.374   1.994  13.890 -1.0371  0.6192 -0.4998
 4868TIP3    H236020   6.355   2.144  13.899 -0.6309  0.5606  1.4894
 4869TIP3   OH236021   6.532   2.112  16.742 -0.1157 -0.5118  0.4226
 4869TIP3    H136022   6.527   2.142  16.651 -0.3070  0.7655  0.8443
 4869TIP3    H236023   6.624   2.089  16.754  0.1801  0.5673  0.2817
 4870TIP3   OH236024   6.527   0.379  12.563 -0.0626  0.0907  0.1120
 4870TIP3    H136025   6.616   0.393  12.532 -0.4988 -0.6466 -1.5052
 4870TIP3    H236026   6.510   0.453  12.622  2.2406 -0.7372  1.8682
 4871TIP3   OH236027   2.100   3.181  13.883  0.3520  0.0472 -0.1978
 4871TIP3    H136028   2.111   3.198  13.790 -1.5993 -0.9818 -0.6287
 4871TIP3    H236029   2.101   3.268  13.924  1.6866  0.4713 -1.0986
 4872TIP3   OH236030   6.522   5.740   5.459 -0.1967  0.2744 -0.4294
 4872TIP3    H136031   6.474   5.806   5.409 -0.5316 -0.3555 -0.9632
 4872TIP3    H236032   6.522   5.663   5.401 -1.2404 -0.7057  0.8468
 4873TIP3   OH236033   4.556   1.047   1.922  0.4720  0.8226  0.1013
 4873TIP3    H136034   4.595   1.134   1.913  1.9288 -0.0399 -2.5192
 4873TIP3    H236035   4.629   0.987   1.907 -0.4968 -0.8934  1.9613
 4874TIP3   OH236036   2.034   4.552  17.228  0.1828 -0.1405  0.6286
 4874TIP3    H136037   1.963   4.562  17.291  0.0906  1.8855  0.2424
 4874TIP3    H236038   2.004   4.600  17.150 -0.0480 -3.2059 -1.2905
 4875TIP3   OH236039   1.409   0.974  13.635 -0.1548 -0.4236  0.1342
 4875TIP3    H136040   1.387   0.977  13.542  2.0316  0.2132 -0.3947
 4875TIP3    H236041   1.469   1.048  13.648 -0.6158 -0.3628  2.1072
 4876TIP3   OH236042   4.701   0.998   6.551 -0.0498 -0.0162  0.0696
 4876TIP3    H136043   4.792   1.028   6.552  0.0740 -0.3517 -0.5608
 4876TIP3    H236044   4.676   0.998   6.458  0.0093 -1.9729  0.0138
 4877TIP3   OH236045   6.311   3.133   1.225  0.0965 -0.3106  0.6254
 4877TIP3    H136046   6.301   3.207   1.285  1.8233 -0.3632  1.0133
 4877TIP3    H236047   6.224   3.095   1.218 -1.1307  2.5843 -0.6553
 4878TIP3   OH236048   5.813   2.767  11.453  0.4018  0.0471 -0.0936
 4878TIP3    H136049   5.730   2.759  11.500  0.5176  0.7679  0.2424
 4878TIP3    H236050   5.804   2.709  11.378 -0.6779  0.6454 -0.4352
 4879TIP3   OH236051   1.530   6.660  13.593  0.0209  0.0727  0.0713
 4879TIP3    H136052   1.595   6.682  13.660 -0.1515  0.1639  0.2070
 4879TIP3    H236053   1.447   6.661  13.639 -0.0068 -0.6816  0.0439
 4880TIP3   OH236054   2.046   0.128   4.300 -0.5248 -0.2529  0.0068
 4880TIP3    H136055   2.118   0.107   4.241 -0.3518 -1.8902  0.7819
 4880TIP3    H236056   2.021   0.217   4.276  0.9547 -0.1104 -1.0792
 4881TIP3   OH236057   0.383   1.420   2.561  0.2469  0.4780 -0.2724
 4881TIP3    H136058   0.357   1.479   2.632 -0.6662  1.2413 -1.2295
 4881TIP3    H236059   0.319   1.349   2.565  1.9367 -1.0507  1.5318
 4882TIP3   OH236060   0.392   3.226   3.105  0.0832 -0.3091 -0.4288
 4882TIP3    H136061   0.347   3.194   3.026  0.5979  0.5999 -1.0955
 4882TIP3    H236062   0.384   3.321   3.101 -1.0878 -0.3165  1.3482
 4883TIP3   OH236063   0.230   1.286  13.208 -0.5495  0.0448 -0.2115
 4883TIP3    H136064   0.305   1.256  13.260  0.0010  0.9731 -0.4622
 4883TIP3    H236065   0.181   1.343  13.267  0.0842  1.1100 -0.7125
 4884TIP3   OH236066   0.511   3.094  14.899  0.5399  0.1355 -0.4846
 4884TIP3    H136067   0.418   3.091  14.880  0.7556  0.5152 -1.6430
 4884TIP3    H236068   0.554   3.083  14.814  1.5815 -2.1462  0.2958
 4885TIP3   OH236069   2.798   1.226   3.194  1.1268 -0.2815 -0.2516
 4885TIP3    H136070   2.769   1.317   3.201 -2.0726 -1.0474 -2.6422
 4885TIP3    H236071   2.884   1.231   3.152  0.8332  1.5850 -0.6670
 4886TIP3   OH236072   5.535   5.850  15.761  0.1339 -0.1892  0.1953
 4886TIP3    H136073   5.568   5.769  15.801 -0.1949 -0.4171  0.0101
 4886TIP3    H236074   5.483   5.891  15.830 -2.8144 -2.0003 -0.8548
 4887TIP3   OH236075   0.864   1.469  17.022  0.1090  0.0845  0.0215
 4887TIP3    H136076   0.890   1.473  17.114  1.0544  1.4550 -0.2941
 4887TIP3    H236077   0.876   1.558  16.990  1.0909 -0.6730 -1.7753
 4888TIP3   OH236078   4.188   4.886  15.138 -0.0914 -0.3469  0.4666
 4888TIP3    H136079   4.200   4.923  15.051  0.9062 -1.4723  0.1127
 4888TIP3    H236080   4.095   4.863  15.142 -0.4488  0.9848  0.2313
 4889TIP3   OH236081   6.762   2.768  11.671 -0.1239 -0.3007 -0.0828
 4889TIP3    H136082   6.805   2.850  11.649 -1.6465  0.3310 -0.7732
 4889TIP3    H236083   6.670   2.781  11.646 -0.6018 -1.8254  0.7925
 4890TIP3   OH236084   6.404   5.299   4.099  0.3951 -0.0002  0.2171
 4890TIP3    H136085   6.445   5.379   4.132  1.7452 -0.9662  0.9203
 4890TIP3    H236086   6.427   5.233   4.164 -1.0984 -0.8678 -0.1214
 4891TIP3   OH236087   6.503   2.720   5.391  0.3264  0.0333 -0.1505
 4891TIP3    H136088   6.525   2.652   5.455  0.2780  0.4213  0.2890
 4891TIP3    H236089   6.508   2.801   5.441 -0.4311  0.2819 -0.4660
 4892TIP3   OH236090   1.908   4.701   3.922 -0.2563 -0.6790 -0.4185
 4892TIP3    H136091   1.916   4.795   3.938  0.6668 -0.9696  0.9470
 4892TIP3    H236092   1.899   4.693   3.827  1.0846  0.7022 -0.6751
 4893TIP3   OH236093   1.683   4.373   5.485  0.2657  0.1536 -0.6522
 4893TIP3    H136094   1.704   4.460   5.520  0.7215 -0.7645  1.4001
 4893TIP3    H236095   1.592   4.379   5.457  0.6527  1.6409 -1.6821
 4894TIP3   OH236096   3.690   2.597   4.641  0.8761 -0.2018 -0.0888
 4894TIP3    H136097   3.760   2.533   4.632 -0.0887 -1.4033  0.8577
 4894TIP3    H236098   3.609   2.548   4.627  0.0950  0.6817  1.1993
 4895TIP3   OH236099   0.968   4.511  15.537  0.2104  0.0784 -0.0617
 4895TIP3    H136100   0.951   4.441  15.474 -0.0776  0.1600 -0.0731
 4895TIP3    H236101   1.059   4.536  15.521  0.5725 -0.8336  0.4649
 4896TIP3   OH236102   0.813   5.971   1.168  0.3991  0.0378  0.1485
 4896TIP3    H136103   0.747   6.032   1.202 -1.0334 -1.2838 -0.1879
 4896TIP3    H236104   0.768   5.887   1.165  2.2761 -1.0019  0.3842
 4897TIP3   OH236105   2.003   6.204   5.878 -0.1605  0.1617 -0.2430
 4897TIP3    H136106   2.014   6.121   5.831  0.0690  0.1288 -0.1341
 4897TIP3    H236107   2.000   6.178   5.971  2.0475  0.4521 -0.0437
 4898TIP3   OH236108   5.048   0.439   1.765  0.1912  0.0005 -0.2379
 4898TIP3    H136109   5.072   0.378   1.696 -0.1398 -0.3639 -0.0357
 4898TIP3    H236110   4.954   0.425   1.778 -0.1253  1.3299 -0.9481
 4899TIP3   OH236111   6.611   0.940   3.381 -0.2692  0.1129 -0.0218
 4899TIP3    H136112   6.565   0.937   3.298  1.0010  0.8646 -0.7680
 4899TIP3    H236113   6.586   0.859   3.426 -0.2534 -0.7071 -1.4902
 4900TIP3   OH236114   4.654   6.471   2.724 -0.2512  0.5362 -0.5248
 4900TIP3    H136115   4.684   6.554   2.761 -2.0549  0.3056  1.5175
 4900TIP3    H236116   4.645   6.412   2.799 -1.6761 -0.6613 -1.5943
 4901TIP3   OH236117   0.053   2.372   6.275 -0.1573  0.1987 -0.2243
 4901TIP3    H136118   0.066   2.465   6.259  1.7132 -0.1726 -0.9891
 4901TIP3    H236119   0.042   2.334   6.188  0.0313 -0.4202  0.0199
 4902TIP3   OH236120   4.757   0.393   3.207 -0.0969  0.1082 -0.3259
 4902TIP3    H136121   4.717   0.384   3.294  1.8994 -0.7660  0.5490
 4902TIP3    H236122   4.825   0.461   3.219 -0.1350  0.3310 -1.3254
 4903TIP3   OH236123   4.414   3.583  11.775 -0.0977 -0.4248 -0.5060
 4903TIP3    H136124   4.438   3.554  11.687 -1.0214  0.3347 -1.0154
 4903TIP3    H236125   4.497   3.609  11.815  0.7519 -3.4999 -0.1061
 4904TIP3   OH236126   1.850   0.007  13.581 -0.5039 -0.1369 -0.5554
 4904TIP3    H136127   1.920  -0.037  13.533  1.7443  0.2545  2.2250
 4904TIP3    H236128   1.817  -0.059  13.642 -0.1934  0.7066  0.5348
 4905TIP3   OH236129   5.747   0.216   4.868  0.0338 -0.1593  0.6410
 4905TIP3    H136130   5.796   0.295   4.844 -1.5468 -0.2620 -3.2604
 4905TIP3    H236131   5.674   0.249   4.922  0.4652  0.8078  0.6515
 4906TIP3   OH236132   0.891   1.557   6.670 -0.1595 -0.5597  0.4315
 4906TIP3    H136133   0.913   1.535   6.760  0.9913 -1.5875 -0.0913
 4906TIP3    H236134   0.937   1.639   6.653 -0.5802 -0.2352  0.8539
 4907TIP3   OH236135   0.147   3.189  16.223 -0.0914  0.0333 -0.3357
 4907TIP3    H136136   0.216   3.127  16.248 -0.2299 -0.4013 -1.0043
 4907TIP3    H236137   0.195   3.267  16.197  0.1303 -0.0934 -0.3167
 4908TIP3   OH236138   0.016   0.662  13.446  0.1593 -0.2479 -0.0541
 4908TIP3    H136139   0.006   0.569  13.464  0.6817 -0.6598 -1.7599
 4908TIP3    H236140   0.101   0.684  13.483  0.6687 -0.7894 -0.8800
 4909TIP3   OH236141   1.135   2.278   5.380  0.3940  0.5170 -0.1884
 4909TIP3    H136142   1.134   2.287   5.476 -0.1585  0.4154 -0.1837
 4909TIP3    H236143   1.077   2.347   5.349  1.1530  1.0280 -0.4951
 4910TIP3   OH236144   2.822   1.753  11.211 -0.0364  0.0964  0.9625
 4910TIP3    H136145   2.896   1.806  11.181 -0.5182  0.5495  0.5573
 4910TIP3    H236146   2.755   1.817  11.234 -0.9682 -0.3534 -0.4276
 4911TIP3   OH236147   6.478   5.443  15.832 -0.6319  0.0996  0.1603
 4911TIP3    H136148   6.469   5.361  15.880 -2.4563  0.5261  0.6142
 4911TIP3    H236149   6.414   5.436  15.761 -0.1225  0.7314 -0.3699
 4912TIP3   OH236150   6.533   2.180   3.349 -0.1066 -0.1209  0.0089
 4912TIP3    H136151   6.623   2.198   3.377 -0.6269  0.4760  1.3345
 4912TIP3    H236152   6.526   2.084   3.355  0.1016 -0.0829  0.9971
 4913TIP3   OH236153   1.968   0.726   6.337 -0.2628  0.2114 -0.0246
 4913TIP3    H136154   2.033   0.784   6.297 -0.7112  1.2453  0.7025
 4913TIP3    H236155   2.008   0.698   6.419 -0.3737  0.1539  0.0103
 4914TIP3   OH236156   3.463   0.424  14.919  0.3881 -0.0288  0.2406
 4914TIP3    H136157   3.501   0.454  14.836 -0.4495  1.2163  0.2960
 4914TIP3    H236158   3.492   0.333  14.927  0.7322 -0.0689 -1.2753
 4915TIP3   OH236159   1.984   5.100   2.238  0.2542 -0.6181  0.2968
 4915TIP3    H136160   2.011   5.180   2.283 -0.1591 -1.6787  2.5114
 4915TIP3    H236161   2.042   5.032   2.273  0.0524 -1.4382 -0.9387
 4916TIP3   OH236162   2.748   2.452   2.602  0.3055  0.0036  0.4848
 4916TIP3    H136163   2.736   2.372   2.552 -0.8677  0.2080  0.4179
 4916TIP3    H236164   2.755   2.423   2.693  3.2303 -0.4358  0.1750
 4917TIP3   OH236165   2.312   5.507   2.372  0.5850 -0.5577 -0.3945
 4917TIP3    H136166   2.260   5.461   2.306  1.0301 -0.9384 -0.4805
 4917TIP3    H236167   2.338   5.589   2.330 -0.2789 -0.1789 -0.2124
 4918TIP3   OH236168   2.932   4.519   0.378  0.4709  0.4356 -0.1591
 4918TIP3    H136169   2.858   4.569   0.414  0.4416  0.7785 -0.6888
 4918TIP3    H236170   2.890   4.450   0.325  0.5383  0.9050 -0.8214
 4919TIP3   OH236171   5.679   3.527  12.183  0.1853  0.2023 -0.2400
 4919TIP3    H136172   5.622   3.451  12.170  0.8038 -0.2811 -0.1672
 4919TIP3    H236173   5.662   3.555  12.272 -0.0217  0.1302 -0.2559
 4920TIP3   OH236174   6.276   1.854   4.478 -0.0293  0.3090  0.4272
 4920TIP3    H136175   6.357   1.815   4.444  1.3401  0.5960  3.2153
 4920TIP3    H236176   6.305   1.929   4.530 -1.9454 -0.5592  2.8506
 4921TIP3   OH236177   6.524   1.815  15.396 -0.0112 -0.2217  0.3392
 4921TIP3    H136178   6.494   1.729  15.368  0.2265 -0.2880  0.2887
 4921TIP3    H236179   6.451   1.851  15.446 -0.1339 -0.4273  0.3078
 4922TIP3   OH236180   6.312   0.571   0.297 -0.8751 -0.3994  0.5457
 4922TIP3    H136181   6.245   0.503   0.298 -0.8550 -0.4169  2.0220
 4922TIP3    H236182   6.265   0.652   0.280 -1.3887 -0.3023  2.3739
 4923TIP3   OH236183   5.148   0.684   4.609 -0.7068  0.2479 -0.0646
 4923TIP3    H136184   5.175   0.594   4.626 -0.9027 -0.0832 -1.5200
 4923TIP3    H236185   5.068   0.676   4.558  1.1785  1.2159 -3.3213
 4924TIP3   OH236186   4.227   1.895  12.737  0.2827  0.5987 -0.2603
 4924TIP3    H136187   4.271   1.811  12.723 -2.6987 -0.7590 -1.8106
 4924TIP3    H236188   4.186   1.886  12.823  1.9404  1.4211  0.6499
 4925TIP3   OH236189   3.085   0.505   1.078 -0.6286  0.2619 -0.3273
 4925TIP3    H136190   2.991   0.505   1.063 -0.5835 -0.3080 -0.6323
 4925TIP3    H236191   3.109   0.598   1.082 -1.5756  0.4422  2.1702
 4926TIP3   OH236192   0.990   5.815  14.692  0.5324  0.4555 -0.0239
 4926TIP3    H136193   0.912   5.838  14.641 -0.9650 -3.0473  0.5381
 4926TIP3    H236194   1.046   5.893  14.687 -0.3958  0.9595 -5.4006
 4927TIP3   OH236195   4.542   1.987   0.548  0.4798  0.8155  0.0306
 4927TIP3    H136196   4.493   1.930   0.488 -0.2789  0.9492  0.5171
 4927TIP3    H236197   4.617   1.934   0.575  0.1734  0.3099 -0.0984
 4928TIP3   OH236198   6.153   5.781  14.839 -0.6812 -0.2210  0.2823
 4928TIP3    H136199   6.072   5.801  14.791 -0.1435  1.2091 -0.0607
 4928TIP3    H236200   6.187   5.867  14.863  0.9293 -0.8089  0.1108
 4929TIP3   OH236201   1.518   5.495  15.714  0.1351 -0.5518  0.1561
 4929TIP3    H136202   1.548   5.581  15.686 -3.5381  1.3684  1.7252
 4929TIP3    H236203   1.538   5.492  15.807 -1.4046 -0.5626  0.5104
 4930TIP3   OH236204   0.007   0.990   3.110 -0.4345 -0.1363  0.1428
 4930TIP3    H136205   0.067   0.934   3.060 -0.6824 -3.1372  3.0859
 4930TIP3    H236206   0.065   1.038   3.170 -0.4729  0.9591 -0.6876
 4931TIP3   OH236207   0.721   4.290  13.436 -0.8114  0.3743  0.1071
 4931TIP3    H136208   0.791   4.332  13.385  0.1226 -0.3766  0.7471
 4931TIP3    H236209   0.702   4.210  13.387  1.6443 -1.4717  2.0798
 4932TIP3   OH236210   4.911   1.823  15.962 -0.6247 -0.4676 -0.5936
 4932TIP3    H136211   4.978   1.804  15.897 -0.9170 -0.8278 -0.7914
 4932TIP3    H236212   4.860   1.743  15.968 -0.4530 -0.5123  0.2550
 4933TIP3   OH236213   2.890   3.154   1.604  0.1763 -0.9406 -0.1643
 4933TIP3    H136214   2.817   3.093   1.613 -1.8520  1.5164  0.6001
 4933TIP3    H236215   2.960   3.115   1.657 -0.2845 -3.6445 -1.4113
 4934TIP3   OH236216   6.459   0.844   2.479 -0.0693  0.0570 -0.2060
 4934TIP3    H136217   6.469   0.760   2.434 -1.1938 -0.2370  0.0616
 4934TIP3    H236218   6.486   0.910   2.415  2.9667 -0.6227  0.3317
 4935TIP3   OH236219   4.564   3.318  14.567  0.2471  0.2780 -0.1464
 4935TIP3    H136220   4.658   3.302  14.564 -0.1482 -2.5323  1.0327
 4935TIP3    H236221   4.527   3.256  14.503 -0.9643 -0.3842  1.1520
 4936TIP3   OH236222   0.383   6.035  10.054 -0.0721 -0.5203 -0.4019
 4936TIP3    H136223   0.399   6.118  10.100  0.7065 -0.6386 -0.4540
 4936TIP3    H236224   0.291   6.040  10.028  0.0337  0.4424 -0.6284
 4937TIP3   OH236225   5.256   3.029   3.787  0.2721  0.1829  0.0246
 4937TIP3    H136226   5.230   3.121   3.797 -1.0712 -0.0390 -1.2070
 4937TIP3    H236227   5.174   2.981   3.782  0.9693 -1.0694  0.4504
 4938TIP3   OH236228   5.604   4.144  14.962 -0.3515  0.0318  0.0443
 4938TIP3    H136229   5.524   4.126  14.914 -1.3337  1.2012  1.2293
 4938TIP3    H236230   5.609   4.075  15.028  0.0919 -0.5512 -0.5858
 4939TIP3   OH236231   1.697   3.569  15.233  0.5055 -0.1196  0.2522
 4939TIP3    H136232   1.679   3.481  15.199  0.0905  0.1225 -0.1646
 4939TIP3    H236233   1.747   3.554  15.313  0.4327 -0.7366  0.1848
 4940TIP3   OH236234   3.687   1.096  10.943  0.1231  0.1962 -0.1179
 4940TIP3    H136235   3.631   1.173  10.929  0.1789  0.0431 -1.2481
 4940TIP3    H236236   3.711   1.100  11.035 -0.9565  0.8086  0.1422
 4941TIP3   OH236237   3.082   2.523   4.540  0.3919 -0.0178  0.1650
 4941TIP3    H136238   3.036   2.452   4.584 -1.5250  0.2990 -1.2334
 4941TIP3    H236239   3.042   2.603   4.575  0.1038  0.2672 -0.7855
 4942TIP3   OH236240   3.380   6.157   1.348  0.5399 -0.1821  0.0250
 4942TIP3    H136241   3.456   6.102   1.329  1.1011  1.1192 -1.5811
 4942TIP3    H236242   3.314   6.128   1.284 -0.0365 -0.7378  0.8681
 4943TIP3   OH236243   2.248   2.056   4.797 -1.0457  0.2384 -0.0782
 4943TIP3    H136244   2.342   2.041   4.795 -0.9713  0.6240  0.3818
 4943TIP3    H236245   2.235   2.128   4.735 -0.8172  1.3119  1.0995
 4944TIP3   OH236246   1.743   3.150  11.445 -0.7452 -0.4475  0.0863
 4944TIP3    H136247   1.734   3.167  11.352 -1.1943 -2.5493 -0.2694
 4944TIP3    H236248   1.659   3.177  11.483 -0.7823 -0.1653 -0.1975
 4945TIP3   OH236249   0.339   3.810  10.652 -0.1129 -0.0904 -0.4384
 4945TIP3    H136250   0.432   3.787  10.656  0.3350  2.0218  2.4190
 4945TIP3    H236251   0.295   3.726  10.639  2.0535 -1.4089  0.3723
 4946TIP3   OH236252   4.610   2.238  17.026 -0.1314 -0.3748 -0.1066
 4946TIP3    H136253   4.532   2.185  17.044 -0.6723  0.5788  0.3620
 4946TIP3    H236254   4.683   2.179  17.044 -0.7243 -1.0457  0.1552
 4947TIP3   OH236255   2.300   0.710  15.342 -0.5365 -0.3178  0.4892
 4947TIP3    H136256   2.287   0.725  15.248  0.3912  1.0194  0.5746
 4947TIP3    H236257   2.211   0.699  15.377 -0.8676 -1.2465 -0.5996
 4948TIP3   OH236258   3.746   1.842   2.653 -0.4911 -0.2695 -0.3121
 4948TIP3    H136259   3.722   1.910   2.716  0.4809 -0.6947  0.5429
 4948TIP3    H236260   3.688   1.769   2.675  2.2865 -1.7378  2.5622
 4949TIP3   OH236261   5.800   2.885  12.334  0.1319  0.6805 -0.3750
 4949TIP3    H136262   5.789   2.929  12.249 -1.1932  0.3620 -0.3831
 4949TIP3    H236263   5.791   2.956  12.398  0.5170  0.8253 -0.4830
 4950TIP3   OH236264   3.490   1.231   3.341 -0.3479 -0.2021  0.0341
 4950TIP3    H136265   3.534   1.301   3.294  0.5431 -1.5196 -1.1376
 4950TIP3    H236266   3.468   1.167   3.274 -1.9620 -0.6393  0.9513
 4951TIP3   OH236267   0.877   4.918   2.352 -0.3853 -0.4145  0.1257
 4951TIP3    H136268   0.964   4.942   2.381  0.2822 -2.7133  0.1136
 4951TIP3    H236269   0.875   4.941   2.259  0.5102 -1.1406 -0.0763
 4952TIP3   OH236270   4.693   0.570   4.861 -0.2600  0.3524  0.8236
 4952TIP3    H136271   4.656   0.656   4.881  2.5506  1.5777  0.9935
 4952TIP3    H236272   4.784   0.576   4.889  0.3222 -2.2643 -0.3477
 4953TIP3   OH236273   3.028   0.601   1.738 -0.3449 -0.3069 -0.2063
 4953TIP3    H136274   3.080   0.606   1.819 -0.7272  0.0383  0.0199
 4953TIP3    H236275   3.067   0.666   1.680 -2.0417  1.7213  0.8493
 4954TIP3   OH236276   2.855   0.722  15.489  0.8456 -0.5505  0.3196
 4954TIP3    H136277   2.797   0.753  15.420 -0.1485  0.4383  1.5893
 4954TIP3    H236278   2.797   0.686  15.555  1.6434  0.8328  1.7976
 4955TIP3   OH236279   2.513   5.839   5.978 -0.1958  0.0292 -0.1991
 4955TIP3    H136280   2.490   5.781   5.905  0.6932 -0.7471  0.1290
 4955TIP3    H236281   2.487   5.926   5.948 -0.1000 -0.3187 -1.3299
 4956TIP3   OH236282   3.541   3.924  15.893 -0.2179 -0.6973 -0.3943
 4956TIP3    H136283   3.552   4.019  15.900  2.3957 -1.1040  1.9269
 4956TIP3    H236284   3.584   3.902  15.810  0.2110  0.0284 -0.3783
 4957TIP3   OH236285   3.595   4.458  15.645  0.2900 -0.1121  0.7678
 4957TIP3    H136286   3.595   4.543  15.688 -0.0391  0.0475  0.4494
 4957TIP3    H236287   3.550   4.472  15.562 -0.5380 -0.7910  1.0986
 4958TIP3   OH236288   0.639   5.613   3.753  0.3126  0.3605  0.4562
 4958TIP3    H136289   0.617   5.704   3.772 -2.7859 -0.2157 -0.1859
 4958TIP3    H236290   0.626   5.605   3.658  1.3250 -0.5843  0.3824
 4959TIP3   OH236291   6.300   6.561   2.589  0.4683  0.1285 -0.3811
 4959TIP3    H136292   6.219   6.601   2.621 -0.6465 -1.1637 -1.5216
 4959TIP3    H236293   6.321   6.609   2.509  0.1258 -0.4054 -0.7846
 4960TIP3   OH236294   4.432   5.827  13.709  0.2525  0.2997 -0.3088
 4960TIP3    H136295   4.518   5.823  13.752  0.7312  0.3207 -1.2573
 4960TIP3    H236296   4.450   5.808  13.617 -0.7860  0.1566 -0.4880
 4961TIP3   OH236297   2.122   1.047   2.356  0.1304 -0.1361  0.4065
 4961TIP3    H136298   2.166   0.965   2.333  0.3697  0.0678  0.1465
 4961TIP3    H236299   2.154   1.110   2.293 -0.2594  0.0991  0.4450
 4962TIP3   OH236300   3.892   2.910   1.640  0.0944  0.3153  0.3366
 4962TIP3    H136301   3.839   2.831   1.634 -0.8919  0.9095  1.1612
 4962TIP3    H236302   3.955   2.902   1.569 -2.1551  0.4132 -1.7176
 4963TIP3   OH236303   3.713   1.982  11.484 -0.0243  0.1337 -0.2085
 4963TIP3    H136304   3.661   2.029  11.419  1.0488 -0.0311 -1.2117
 4963TIP3    H236305   3.667   1.996  11.567 -0.9612  1.0354 -0.8687
 4964TIP3   OH236306   5.049   0.000   4.904  0.3771 -0.1237  0.0501
 4964TIP3    H136307   4.954  -0.014   4.898  0.3519  0.8927 -2.8348
 4964TIP3    H236308   5.058   0.071   4.967 -0.9081  0.6018 -0.5356
 4965TIP3   OH236309   5.914   3.806   5.508 -0.4247  0.3345  0.8441
 4965TIP3    H136310   5.981   3.876   5.506  0.1811 -0.2486  0.4828
 4965TIP3    H236311   5.846   3.837   5.449  0.2372  0.2442  0.0170
 4966TIP3   OH236312   4.471   6.372   3.553 -0.1157  0.1640  0.0584
 4966TIP3    H136313   4.482   6.291   3.503  2.2485  0.5621 -0.1248
 4966TIP3    H236314   4.441   6.436   3.489 -0.9288 -0.2832 -0.0194
 4967TIP3   OH236315   2.128   4.162   5.382 -0.0671  0.3380  0.1631
 4967TIP3    H136316   2.127   4.248   5.424 -0.3316  1.0918 -1.3293
 4967TIP3    H236317   2.036   4.140   5.370  0.0020  0.0311  0.1854
 4968TIP3   OH236318   0.062   4.641  10.957 -0.0907 -0.0376 -0.1697
 4968TIP3    H136319   0.047   4.553  10.923 -0.2218  0.4832 -1.5049
 4968TIP3    H236320   0.145   4.635  11.005 -1.2229 -1.4041  1.6685
 4969TIP3   OH236321   3.852   5.795  13.136 -0.0292  0.2758 -0.5201
 4969TIP3    H136322   3.922   5.791  13.071  0.4645  0.3005 -0.0033
 4969TIP3    H236323   3.811   5.880  13.123  1.5182  1.2258  0.6664
 4970TIP3   OH236324   6.315   3.616  14.580 -0.1123  0.5047 -0.2448
 4970TIP3    H136325   6.324   3.530  14.539 -0.6755  0.8221 -1.0567
 4970TIP3    H236326   6.386   3.620  14.643  1.1466  0.2412 -1.6230
 4971TIP3   OH236327   6.040   3.494  12.775  0.5335 -0.4389  0.6038
 4971TIP3    H136328   5.964   3.519  12.723 -0.0882  0.4704  1.9474
 4971TIP3    H236329   6.114   3.506  12.715 -0.3733 -1.6609 -0.8205
 4972TIP3   OH236330   1.017   5.622   3.461 -0.7812  0.1757 -0.5371
 4972TIP3    H136331   0.923   5.603   3.470 -0.8508  0.5530 -0.4789
 4972TIP3    H236332   1.032   5.697   3.519  0.3968 -2.4911  2.8209
 4973TIP3   OH236333   4.614   5.540   5.355 -0.0283  0.0314  0.5821
 4973TIP3    H136334   4.597   5.622   5.309 -0.1184 -0.9680 -1.1890
 4973TIP3    H236335   4.590   5.559   5.446 -0.9070  1.6933  0.0299
 4974TIP3   OH236336   4.976   6.203  10.995 -0.0753  0.2246  0.0428
 4974TIP3    H136337   5.043   6.141  11.023  0.1129  0.4409  0.0665
 4974TIP3    H236338   4.902   6.186  11.054 -1.2369 -2.2383 -2.0477
 4975TIP3   OH236339   6.310   3.976  17.172 -0.5039 -0.0569 -0.1651
 4975TIP3    H136340   6.378   4.042  17.180 -1.3886  1.0488 -1.6098
 4975TIP3    H236341   6.253   3.991  17.248  0.9491 -1.1397  1.1819
 4976TIP3   OH236342   3.654   3.718   6.016  0.0892  0.7801  0.2103
 4976TIP3    H136343   3.642   3.724   5.922 -2.0272  1.4768  0.4920
 4976TIP3    H236344   3.668   3.625   6.033 -0.0210  0.5874 -0.7432
 4977TIP3   OH236345   1.576   5.968   3.720  0.2381  0.5766 -0.6165
 4977TIP3    H136346   1.508   5.901   3.711  0.0173  0.5043  1.4613
 4977TIP3    H236347   1.592   5.998   3.630 -2.1439  0.2120 -1.1900
 4978TIP3   OH236348   1.572   0.242   0.819 -0.2552 -0.1111  0.4562
 4978TIP3    H136349   1.591   0.256   0.912  1.3906  0.1145  0.0955
 4978TIP3    H236350   1.558   0.330   0.784  1.5420  0.0085 -0.0043
 4979TIP3   OH236351   3.233   0.677   5.596  0.1592  0.0763  0.5886
 4979TIP3    H136352   3.297   0.744   5.571  3.3575 -1.3965  4.3256
 4979TIP3    H236353   3.261   0.599   5.547 -0.0791 -0.0074  0.5873
 4980TIP3   OH236354   6.692   4.709   1.548 -0.3055  0.6827  0.0513
 4980TIP3    H136355   6.693   4.744   1.459  1.2018 -0.1373 -0.2874
 4980TIP3    H236356   6.681   4.786   1.604  2.8077  1.7651 -0.6831
 4981TIP3   OH236357   2.847   2.982   1.326 -0.0340 -0.5080  0.8728
 4981TIP3    H136358   2.776   2.987   1.262 -0.5400 -0.6659  1.4207
 4981TIP3    H236359   2.803   2.976   1.410  0.6331  1.2589  1.3572
 4982TIP3   OH236360   3.851   3.334   2.364 -0.3107 -0.0654 -0.3617
 4982TIP3    H136361   3.767   3.380   2.362  0.0417  0.5387 -1.4856
 4982TIP3    H236362   3.912   3.394   2.322  0.3886 -1.1017 -0.8431
 4983TIP3   OH236363   1.007   6.522  14.189 -0.2582  0.9324  0.3006
 4983TIP3    H136364   1.068   6.593  14.167 -0.4315  1.2330  0.8007
 4983TIP3    H236365   1.047   6.444  14.151 -0.6603  1.4862 -1.3129
 4984TIP3   OH236366   4.784   4.806  16.207  0.2458  0.1698 -0.2969
 4984TIP3    H136367   4.759   4.759  16.128  1.5624 -0.1246 -0.5590
 4984TIP3    H236368   4.841   4.745  16.254  0.7914  0.9530  0.0709
 4985TIP3   OH236369   2.939   6.473   1.417 -0.0134  0.3954  0.5474
 4985TIP3    H136370   2.974   6.388   1.391  0.1213  0.5349  0.2665
 4985TIP3    H236371   3.015   6.524   1.444 -0.0826  0.4608  0.6239
 4986TIP3   OH236372   1.941   2.755   1.915  0.4693 -0.0401  0.2484
 4986TIP3    H136373   1.985   2.806   1.847  1.3695  1.4037  1.8821
 4986TIP3    H236374   1.866   2.808   1.940  1.5062  0.5880  2.0799
 4987TIP3   OH236375   6.541   0.773  16.913 -0.1904 -0.6576 -0.3141
 4987TIP3    H136376   6.585   0.858  16.921  0.0613 -0.9219  1.1810
 4987TIP3    H236377   6.610   0.709  16.929 -0.4059 -1.1509 -1.3198
 4988TIP3   OH236378   2.530   4.836   5.589  0.2315 -0.3961 -0.4002
 4988TIP3    H136379   2.598   4.904   5.594 -0.5800  0.4087 -0.2140
 4988TIP3    H236380   2.521   4.805   5.679  1.3452 -1.4974 -0.6580
 4989TIP3   OH236381   1.192   4.147   1.866 -0.1219 -0.4082  0.5437
 4989TIP3    H136382   1.108   4.188   1.885 -0.8677 -1.5092 -0.3383
 4989TIP3    H236383   1.179   4.102   1.783  1.0773 -1.2988  0.8189
 4990TIP3   OH236384   3.476   0.154  14.958  0.8791 -0.6655  0.6390
 4990TIP3    H136385   3.389   0.129  14.991  0.5581  0.1528  0.4510
 4990TIP3    H236386   3.516   0.072  14.931 -0.7424 -0.8136 -1.4279
 4991TIP3   OH236387   5.019   0.137   1.808 -0.3639  0.1293 -0.1144
 4991TIP3    H136388   5.039   0.227   1.834 -0.3968  0.5472 -1.4858
 4991TIP3    H236389   5.047   0.132   1.716 -1.2580 -0.9665 -0.3357
 4992TIP3   OH236390   3.403   3.715  17.238 -0.4510 -0.1678 -0.3081
 4992TIP3    H136391   3.334   3.767  17.280 -1.6259 -2.3328  0.5369
 4992TIP3    H236392   3.456   3.684  17.311 -1.0114 -1.8717 -0.6030
 4993TIP3   OH236393   5.588   2.753  16.503 -0.6295 -0.2759 -0.2997
 4993TIP3    H136394   5.678   2.763  16.473 -0.2035  0.4654  1.1789
 4993TIP3    H236395   5.580   2.660  16.524 -0.3718 -0.4440 -0.9364
 4994TIP3   OH236396   6.572   0.018  16.321 -0.4283  0.0805  0.2038
 4994TIP3    H136397   6.657   0.054  16.344  0.2384 -1.8865  0.9643
 4994TIP3    H236398   6.575  -0.073  16.352 -3.2599  0.3382  1.4174
 4995TIP3   OH236399   1.618   2.406   1.134  0.0371 -0.7394 -0.1254
 4995TIP3    H136400   1.634   2.460   1.211 -0.8416 -1.8326  0.8671
 4995TIP3    H236401   1.702   2.365   1.115  0.3889 -0.0376 -0.0738
 4996TIP3   OH236402   0.952   3.005  15.127  0.6413 -0.1919  0.3498
 4996TIP3    H136403   0.950   2.970  15.038  1.2131  2.0054 -0.5833
 4996TIP3    H236404   0.955   2.928  15.183 -2.3231 -1.6981 -1.4186
 4997TIP3   OH236405   0.782   4.197   4.205 -0.0023  0.9036  0.4568
 4997TIP3    H136406   0.805   4.235   4.120 -0.6279 -0.2052 -0.2126
 4997TIP3    H236407   0.693   4.228   4.222 -0.5556 -0.3343 -0.1409
 4998TIP3   OH236408   5.469   0.387  13.112 -0.3355 -0.1148  0.0183
 4998TIP3    H136409   5.540   0.326  13.136 -0.1831 -0.7361 -1.9236
 4998TIP3    H236410   5.503   0.434  13.036 -0.7301  1.9483  1.0860
 4999TIP3   OH236411   4.513   6.355  12.385  0.2353  0.3629  0.2946
 4999TIP3    H136412   4.537   6.377  12.475  0.5677  2.3503 -0.2571
 4999TIP3    H236413   4.421   6.326  12.391  0.0414  1.1442  1.1711
 5000TIP3   OH236414   2.780   6.667  14.024 -0.4141  0.0090 -0.1054
 5000TIP3    H136415   2.760   6.753  14.060 -0.6941 -0.5985  1.2147
 5000TIP3    H236416   2.707   6.648  13.965 -0.2477  0.7590 -0.5559
 5001TIP3   OH236417   4.861   5.337  10.736  0.4831 -0.7440  0.0105
 5001TIP3    H136418   4.826   5.261  10.782 -0.4874  0.0043  0.5371
 5001TIP3    H236419   4.827   5.331  10.648 -0.1633 -0.5491  0.2470
 5002TIP3   OH236420   6.034   6.615   3.141  0.7389  0.2561 -0.0402
 5002TIP3    H136421   6.056   6.584   3.229  1.3967 -0.6761 -0.5193
 5002TIP3    H236422   6.113   6.599   3.089 -0.0709 -0.4005 -1.1024
 5003TIP3   OH236423   5.356   4.954   3.119  0.2609 -0.5602 -0.0758
 5003TIP3    H136424   5.316   4.882   3.070 -0.8007 -0.1623  0.2043
 5003TIP3    H236425   5.395   4.912   3.196  0.2174 -0.9154 -0.2443
 5004TIP3   OH236426   0.494   5.048  14.734 -0.3379 -0.2176  0.4941
 5004TIP3    H136427   0.547   5.052  14.813  0.5655  2.0954 -0.1943
 5004TIP3    H236428   0.414   5.001  14.761  0.1874  0.0646  2.6091
 5005TIP3   OH236429   3.834   4.098  10.762 -0.3938 -0.3939  0.1255
 5005TIP3    H136430   3.769   4.112  10.831 -1.6569 -0.6365 -0.9810
 5005TIP3    H236431   3.905   4.051  10.805 -0.9563 -0.1277  1.3687
 5006TIP3   OH236432   5.706   3.579  13.423  1.1983 -0.1974  0.3682
 5006TIP3    H136433   5.716   3.650  13.360 -2.6634  1.9668  2.0341
 5006TIP3    H236434   5.769   3.599  13.493  1.1233  0.7926  0.1558
 5007TIP3   OH236435   0.277   3.205  14.760  0.1907  0.3916 -0.2111
 5007TIP3    H136436   0.340   3.255  14.709  2.0536 -2.2473 -0.5990
 5007TIP3    H236437   0.223   3.160  14.695 -0.3358  0.5288  0.1290
 5008TIP3   OH236438   1.746   6.775   6.390 -0.5715  0.0991  0.2663
 5008TIP3    H136439   1.807   6.775   6.464  0.0548  0.9367 -0.2352
 5008TIP3    H236440   1.716   6.684   6.383 -1.1412  0.1514  1.9546
 5009TIP3   OH236441   5.541   0.812  16.789  0.3459  0.0965  0.3074
 5009TIP3    H136442   5.537   0.891  16.842 -0.3372 -0.9931  1.8977
 5009TIP3    H236443   5.610   0.760  16.829  0.3462 -0.4079 -0.3425
 5010TIP3   OH236444   2.460   2.618  15.279  0.2442 -0.1372  0.4218
 5010TIP3    H136445   2.379   2.666  15.296 -0.0658 -0.0400 -1.3181
 5010TIP3    H236446   2.519   2.684  15.243  0.3049 -0.7477 -0.5903
 5011TIP3   OH236447   0.217   6.237  17.212  0.0030 -0.2048 -0.0923
 5011TIP3    H136448   0.123   6.219  17.217  0.2182 -1.5848 -0.8374
 5011TIP3    H236449   0.238   6.275  17.297 -1.1362 -0.3749  0.2733
 5012TIP3   OH236450   4.348   1.568   4.288 -0.2450 -0.3618  0.5969
 5012TIP3    H136451   4.306   1.636   4.234  1.0503 -0.0552 -0.0432
 5012TIP3    H236452   4.285   1.552   4.358 -1.5522 -0.0873 -0.4790
 5013TIP3   OH236453   4.738   4.030  12.802 -0.0519 -0.1315 -0.4149
 5013TIP3    H136454   4.766   3.952  12.753  0.3825  0.6673 -1.4442
 5013TIP3    H236455   4.797   4.033  12.877  1.5574  0.5765 -1.6736
 5014TIP3   OH236456   2.437   4.806   2.100  0.7797  0.1573  0.5969
 5014TIP3    H136457   2.477   4.862   2.033 -1.3197 -0.4946 -1.2312
 5014TIP3    H236458   2.344   4.809   2.082  0.5887 -3.8835  0.5423
 5015TIP3   OH236459   1.019   0.033   5.805 -0.4823  0.1955  0.7833
 5015TIP3    H136460   0.938   0.083   5.821  0.2584  2.0878 -1.0688
 5015TIP3    H236461   1.088   0.099   5.810  0.8298 -1.2238  1.3012
 5016TIP3   OH236462   4.923   5.658  16.947  0.3212 -0.3057 -0.1995
 5016TIP3    H136463   4.840   5.611  16.943 -1.2861  2.4833 -0.5686
 5016TIP3    H236464   4.930   5.688  17.038  0.7221 -0.1542 -0.2761
 5017TIP3   OH236465   5.464   0.182  11.834 -0.1236 -0.3180 -0.7357
 5017TIP3    H136466   5.464   0.274  11.861 -0.5115 -0.3456 -0.6336
 5017TIP3    H236467   5.438   0.134  11.913  3.7270 -0.8609  0.3060
 5018TIP3   OH236468   4.043   1.569  11.209 -0.0495  0.5389 -0.6454
 5018TIP3    H136469   4.061   1.649  11.158  1.0157  0.1271 -0.9368
 5018TIP3    H236470   4.129   1.542  11.241 -0.7794  1.1090  1.8783
 5019TIP3   OH236471   3.192   0.119   3.351 -0.0646 -0.2181 -0.2881
 5019TIP3    H136472   3.284   0.115   3.379 -0.6406  4.0845  2.6281
 5019TIP3    H236473   3.142   0.098   3.430 -1.6679 -0.4829 -1.3470
 5020TIP3   OH236474   6.343   1.863   4.920 -0.2712  0.0723  0.4521
 5020TIP3    H136475   6.282   1.889   4.989  0.1699  1.8538  0.2033
 5020TIP3    H236476   6.424   1.908   4.941  0.2047 -0.2625 -0.6110
 5021TIP3   OH236477   3.861   0.017  16.422  0.4199  0.0773 -0.5251
 5021TIP3    H136478   3.942  -0.026  16.450  0.1135 -0.3646 -0.3108
 5021TIP3    H236479   3.849   0.088  16.484 -0.1124 -0.7288  0.3087
 5022TIP3   OH236480   1.839   2.595   5.548  0.5648 -0.0062 -0.1037
 5022TIP3    H136481   1.913   2.545   5.513  1.7827  0.5237  1.6581
 5022TIP3    H236482   1.774   2.594   5.477  2.3513 -0.2502 -1.7781
 5023TIP3   OH236483   1.555   1.712   4.207  0.4876 -0.1518  0.4025
 5023TIP3    H136484   1.479   1.654   4.215  1.2938 -1.2317  0.4835
 5023TIP3    H236485   1.534   1.771   4.135 -0.6042 -0.1540  0.7139
 5024TIP3   OH236486   1.452   0.057   2.045  0.3619 -0.1052 -0.5131
 5024TIP3    H136487   1.505   0.088   2.119  0.6395 -1.3798 -0.1713
 5024TIP3    H236488   1.383   0.005   2.086  1.4248 -2.1377 -1.2328
 5025TIP3   OH236489   3.189   6.077  14.721 -0.2518 -0.1050  0.2402
 5025TIP3    H136490   3.143   6.137  14.662 -0.9234 -1.4968 -0.6876
 5025TIP3    H236491   3.174   5.990  14.683  0.3189 -0.9068  1.8059
 5026TIP3   OH236492   4.659   3.735  11.847  0.1334  0.1522 -0.0980
 5026TIP3    H136493   4.658   3.755  11.941  2.5294 -1.1072  0.2478
 5026TIP3    H236494   4.710   3.806  11.808  0.6680 -0.2821 -0.1903
 5027TIP3   OH236495   2.324   0.326   0.455 -0.6053 -0.2825  0.2782
 5027TIP3    H136496   2.375   0.387   0.403 -0.3552  0.2606  1.1563
 5027TIP3    H236497   2.234   0.340   0.427 -0.6188  0.8924  0.8674
 5028TIP3   OH236498   4.238   1.927  13.745 -0.4138 -0.2656 -0.2088
 5028TIP3    H136499   4.282   1.986  13.806 -1.6305 -0.7180  1.1278
 5028TIP3    H236500   4.217   1.849  13.798 -0.7947 -0.9872 -1.3928
 5029TIP3   OH236501   4.124   5.572  16.091  0.4291  0.6619 -0.1009
 5029TIP3    H136502   4.209   5.564  16.134 -0.0403 -0.0871  0.7377
 5029TIP3    H236503   4.075   5.634  16.146 -0.3556 -0.7027  0.7879
 5030TIP3   OH236504   4.965   3.222   3.518  0.5541  0.3869 -0.1023
 5030TIP3    H136505   4.967   3.126   3.517 -1.0601  0.3203  0.3488
 5030TIP3    H236506   5.054   3.248   3.542  1.2373 -0.9756 -1.1206
 5031TIP3   OH236507   2.442   4.275  15.119  0.0590  0.7676  0.8809
 5031TIP3    H136508   2.409   4.258  15.208 -1.2658 -1.9225 -0.0697
 5031TIP3    H236509   2.526   4.229  15.116 -0.7070 -0.5916  0.1995
 5032TIP3   OH236510   5.266   6.028  11.047 -0.2650 -0.0777  0.1362
 5032TIP3    H136511   5.255   5.961  10.979 -1.7153  0.5002 -0.2310
 5032TIP3    H236512   5.287   5.979  11.126 -0.6148 -0.9135 -0.2787
 5033TIP3   OH236513   0.442   6.748   3.898  0.1102  0.3186  0.4908
 5033TIP3    H136514   0.372   6.803   3.863 -0.5125 -0.0311  1.1584
 5033TIP3    H236515   0.397   6.687   3.957  0.7705 -1.0197 -0.3715
 5034TIP3   OH236516   3.989   5.924  15.296  0.3541 -0.2737 -0.7136
 5034TIP3    H136517   3.981   5.858  15.365 -0.9568  1.4733  0.8772
 5034TIP3    H236518   3.962   6.006  15.338  1.7368  1.2573 -2.6811
 5035TIP3   OH236519   1.613   3.790   1.233 -0.1854  0.1096 -0.1687
 5035TIP3    H136520   1.663   3.841   1.296 -1.2120  0.1523  0.6277
 5035TIP3    H236521   1.597   3.706   1.278  0.5667 -0.5164 -1.0476
 5036TIP3   OH236522   3.208   5.339  15.594 -0.8832  0.3090 -0.0575
 5036TIP3    H136523   3.129   5.323  15.645 -1.6013  0.0717 -1.2247
 5036TIP3    H236524   3.257   5.256  15.599 -1.1248  0.1676 -0.0553
 5037TIP3   OH236525   4.533   2.401   6.255  0.2277  0.4992 -0.2510
 5037TIP3    H136526   4.625   2.425   6.256  0.1898  0.6457 -0.2299
 5037TIP3    H236527   4.489   2.470   6.306  0.1126  0.4089 -0.2278
 5038TIP3   OH236528   0.224   5.756   1.095  0.2132  1.0747 -0.4671
 5038TIP3    H136529   0.311   5.791   1.076  1.0953 -0.3331  0.8361
 5038TIP3    H236530   0.192   5.723   1.011  0.9616  1.5540 -0.9475
 5039TIP3   OH236531   4.865   0.551   2.927  0.1662  0.4761  0.5164
 5039TIP3    H136532   4.841   0.560   3.019  0.2520  0.2124  0.5666
 5039TIP3    H236533   4.813   0.617   2.882 -0.3497  0.1829  0.6760
 5040TIP3   OH236534   1.309   6.617  14.935 -0.2018  0.1270 -0.1875
 5040TIP3    H136535   1.227   6.666  14.925 -0.2035 -0.2012 -2.0321
 5040TIP3    H236536   1.366   6.652  14.867  1.0071 -0.0399  0.7285
 5041TIP3   OH236537   3.447   2.627  15.553 -0.5376  0.1680  0.4918
 5041TIP3    H136538   3.359   2.643  15.518 -0.4939  0.7432  0.6303
 5041TIP3    H236539   3.504   2.628  15.476 -0.9886 -2.9754  0.0698
 5042TIP3   OH236540   4.219   6.214  10.645 -0.1366  0.1900  0.3066
 5042TIP3    H136541   4.162   6.197  10.570 -0.0536  0.3907  0.1974
 5042TIP3    H236542   4.256   6.300  10.627  0.8374 -0.2963 -0.0163
 5043TIP3   OH236543   3.494   2.723   6.572 -0.2607 -0.3532 -0.0559
 5043TIP3    H136544   3.519   2.769   6.652 -0.1199 -0.1920 -0.1923
 5043TIP3    H236545   3.411   2.763   6.546  0.0398  0.0725 -0.3716
 5044TIP3   OH236546   3.703   3.220   1.312 -0.4156 -0.5775  0.0255
 5044TIP3    H136547   3.723   3.180   1.227  1.4567 -0.5146  0.4303
 5044TIP3    H236548   3.754   3.169   1.375 -0.8828  0.1289  0.9846
 5045TIP3   OH236549   4.307   1.637  12.415 -0.0844 -0.1930 -0.4080
 5045TIP3    H136550   4.254   1.688  12.477  2.0561  1.1309  0.3946
 5045TIP3    H236551   4.248   1.570  12.382 -1.9690  0.6271  1.2197
 5046TIP3   OH236552   0.748   6.622  10.249 -0.2537  0.1891  0.8285
 5046TIP3    H136553   0.805   6.620  10.326 -0.7972  1.7763  1.2914
 5046TIP3    H236554   0.659   6.624  10.284 -0.5010  1.0926  0.1741
 5047TIP3   OH236555   6.568   3.163   3.467  0.4437  0.3560 -0.5117
 5047TIP3    H136556   6.539   3.073   3.484  0.4970  0.8794  2.4923
 5047TIP3    H236557   6.543   3.179   3.376  1.4001 -3.0716 -1.4582
 5048TIP3   OH236558   5.172   4.444   5.620  0.6354  0.1222 -0.5129
 5048TIP3    H136559   5.192   4.378   5.686 -0.2861  0.8310  0.4875
 5048TIP3    H236560   5.256   4.463   5.578  0.6597 -2.9150 -2.0062
 5049TIP3   OH236561   3.690   6.527   5.701 -0.6115  0.3719  0.5778
 5049TIP3    H136562   3.704   6.570   5.617  0.2136  2.8857  1.9700
 5049TIP3    H236563   3.622   6.579   5.744 -0.8671 -0.7492  1.5656
 5050TIP3   OH236564   1.842   5.405   6.121 -0.2664 -0.6445 -0.1747
 5050TIP3    H136565   1.793   5.478   6.083  0.0414  0.1868  0.9889
 5050TIP3    H236566   1.933   5.421   6.094 -0.5661 -2.0033 -2.0542
 5051TIP3   OH236567   2.749   6.562   0.605  0.1759  0.2871 -0.3819
 5051TIP3    H136568   2.755   6.645   0.654 -0.1417 -0.5243  1.0590
 5051TIP3    H236569   2.820   6.567   0.542  0.6712  1.3191  0.2360
 5052TIP3   OH236570   3.427   3.188  12.661 -0.1178 -0.2361  0.4124
 5052TIP3    H136571   3.449   3.267  12.612 -2.6579  0.4342  0.2656
 5052TIP3    H236572   3.413   3.218  12.751 -3.0553 -0.1388 -0.0364
 5053TIP3   OH236573   5.478   5.591   1.537  0.0217  0.1490 -0.1260
 5053TIP3    H136574   5.541   5.648   1.580  0.1261  0.2336 -0.3906
 5053TIP3    H236575   5.404   5.587   1.598  0.2402  0.1287  0.1375
 5054TIP3   OH236576   1.794   6.565   5.251  0.1811 -0.4640 -0.3694
 5054TIP3    H136577   1.841   6.634   5.298 -0.9287 -0.7693  1.2273
 5054TIP3    H236578   1.773   6.604   5.166 -0.3146  1.1398  0.4601
 5055TIP3   OH236579   3.942   2.407  13.314  0.7262  0.1155 -0.5330
 5055TIP3    H136580   4.006   2.342  13.341  0.5531 -0.0363 -0.4859
 5055TIP3    H236581   3.954   2.479  13.375  1.4043  0.4280 -1.0344
 5056TIP3   OH236582   1.833   6.149  16.130 -0.4979 -0.3865  0.6245
 5056TIP3    H136583   1.921   6.112  16.139 -0.7777 -1.6334 -1.3827
 5056TIP3    H236584   1.798   6.151  16.219  1.2527 -0.6284  1.3434
 5057TIP3   OH236585   2.535   4.532  14.474 -0.4943 -0.3740  0.5332
 5057TIP3    H136586   2.455   4.485  14.449 -0.2989 -0.5972  0.3332
 5057TIP3    H236587   2.606   4.480  14.438 -0.3661  1.2819 -1.6650
 5058TIP3   OH236588   6.663   5.665  15.087 -0.1329 -0.3522  0.0271
 5058TIP3    H136589   6.601   5.738  15.094  0.7665  0.1823  2.8506
 5058TIP3    H236590   6.609   5.591  15.060 -1.6700  0.5762  0.4882
 5059TIP3   OH236591   0.702   2.911   1.930  0.1362  0.0488 -0.1227
 5059TIP3    H136592   0.619   2.868   1.954 -0.9494  1.4422 -1.2832
 5059TIP3    H236593   0.766   2.840   1.931 -0.9009 -0.9105  1.5811
 5060TIP3   OH236594   5.827   5.159  12.203  0.6341  0.0845  0.1458
 5060TIP3    H136595   5.773   5.223  12.251 -0.6679 -0.6744 -0.2894
 5060TIP3    H236596   5.835   5.197  12.115  1.3605  0.5124  0.3944
 5061TIP3   OH236597   5.834   1.947   4.982  0.0993 -0.1810 -0.2654
 5061TIP3    H136598   5.763   1.964   4.920  1.6562  0.4395 -1.9528
 5061TIP3    H236599   5.804   1.984   5.065 -1.6684 -0.2239 -0.8755
 5062TIP3   OH236600   6.732   3.863   3.111 -0.1018 -0.4944 -0.2985
 5062TIP3    H136601   6.771   3.842   3.026  1.2190 -0.1109  0.2012
 5062TIP3    H236602   6.671   3.935   3.092  2.2503  1.5268 -0.4954
 5063TIP3   OH236603   5.147   5.589   0.660 -0.0489 -0.3152 -0.5997
 5063TIP3    H136604   5.062   5.583   0.703  0.3838 -0.4316  0.2478
 5063TIP3    H236605   5.145   5.519   0.595  0.8793 -2.9127  2.0572
 5064TIP3   OH236606   3.837   3.636  16.510  0.9384  0.1200  0.0148
 5064TIP3    H136607   3.754   3.606  16.473  0.9739  2.4964 -2.1499
 5064TIP3    H236608   3.813   3.674  16.595 -0.1916  0.6434 -0.5171
 5065TIP3   OH236609   3.517   2.732   5.921  0.3136  0.2770  0.2031
 5065TIP3    H136610   3.609   2.721   5.948  1.3735  2.9844 -2.1066
 5065TIP3    H236611   3.518   2.720   5.827 -2.0305 -1.2937  0.3455
 5066TIP3   OH236612   2.423   4.011   5.028 -0.5803  0.6871  0.6581
 5066TIP3    H136613   2.494   3.981   5.084  0.6274  1.0693 -0.6266
 5066TIP3    H236614   2.370   4.068   5.084  0.1692  0.4453  1.6155
 5067TIP3   OH236615   2.762   6.589  13.536  0.1926 -0.0617 -0.3247
 5067TIP3    H136616   2.851   6.554  13.531 -0.0181 -0.5975 -0.3356
 5067TIP3    H236617   2.758   6.653  13.465  0.8218  0.5455  0.1747
 5068TIP3   OH236618   3.593   2.526   4.340  0.4025 -0.1266 -0.8117
 5068TIP3    H136619   3.630   2.442   4.313 -2.3574 -1.5539 -0.3209
 5068TIP3    H236620   3.498   2.516   4.329 -0.0888  2.4583  0.5218
 5069TIP3   OH236621   5.463   0.286   3.049  0.2891  0.0813 -0.3047
 5069TIP3    H136622   5.518   0.294   3.127 -0.1657 -0.6492  0.0990
 5069TIP3    H236623   5.499   0.212   3.001 -0.1880 -0.2580 -0.1510
 5070TIP3   OH236624   6.677   4.711   3.765 -1.0555 -0.1189  0.1823
 5070TIP3    H136625   6.602   4.697   3.707 -0.0916 -0.4407 -1.0295
 5070TIP3    H236626   6.739   4.642   3.740 -0.2331  0.3479  0.9284
 5071TIP3   OH236627   1.635   0.586  14.931  0.4274 -0.2726  0.4991
 5071TIP3    H136628   1.628   0.519  14.999  2.3424 -0.7387  0.2509
 5071TIP3    H236629   1.612   0.540  14.850  2.1486 -0.7490  0.2705
 5072TIP3   OH236630   3.747   1.152  14.392 -0.1013  0.0885 -0.0669
 5072TIP3    H136631   3.835   1.188  14.407  0.3221 -0.6592 -0.7718
 5072TIP3    H236632   3.738   1.149  14.297 -1.0412  0.5071  0.0044
 5073TIP3   OH236633   2.397   4.099  16.430 -0.2558  0.4688  0.2531
 5073TIP3    H136634   2.341   4.119  16.355  1.1411  1.0301 -0.6477
 5073TIP3    H236635   2.427   4.009  16.415 -0.2680  0.4498  0.3366
 5074TIP3   OH236636   0.609   3.654  12.020  0.0980  0.2824 -0.0858
 5074TIP3    H136637   0.553   3.577  12.024  1.1459 -0.4979 -0.1889
 5074TIP3    H236638   0.597   3.698  12.105 -0.8743  0.2816 -0.2194
 5075TIP3   OH236639   5.227   3.177   4.373 -0.2340  0.1335  0.6366
 5075TIP3    H136640   5.217   3.220   4.289  0.6811  1.3625  1.1318
 5075TIP3    H236641   5.293   3.230   4.419  0.3272 -1.3418  1.5657
 5076TIP3   OH236642   5.141   5.053  15.393  0.5025  0.2911  0.1315
 5076TIP3    H136643   5.136   5.038  15.299  0.9117  2.1837 -0.2098
 5076TIP3    H236644   5.184   5.138  15.402  2.2014 -0.7197  2.0821
 5077TIP3   OH236645   6.369   0.514   3.730 -0.0363  0.0204  0.6582
 5077TIP3    H136646   6.424   0.466   3.669  2.0216  0.4708  2.1063
 5077TIP3    H236647   6.289   0.533   3.681 -0.4147 -3.7752 -0.3221
 5078TIP3   OH236648   3.240   0.305   5.512 -0.3939 -0.6356  0.6733
 5078TIP3    H136649   3.154   0.325   5.550 -0.4423 -0.7309  0.6117
 5078TIP3    H236650   3.267   0.386   5.469 -1.4430 -1.2864 -1.2352
 5079TIP3   OH236651   1.151   0.899   3.618 -0.2137  0.2419 -0.4631
 5079TIP3    H136652   1.172   0.806   3.616  1.0707  0.5322 -1.0247
 5079TIP3    H236653   1.211   0.938   3.555  1.6911  1.9447  2.3003
 5080TIP3   OH236654   2.888   3.207  15.804 -0.4789  0.2292 -0.1477
 5080TIP3    H136655   2.927   3.294  15.796 -2.0893  1.1848  1.9756
 5080TIP3    H236656   2.823   3.203  15.734 -0.3942  0.7281 -0.2570
 5081TIP3   OH236657   5.527   5.104   5.391 -0.5928  0.0521  0.9904
 5081TIP3    H136658   5.587   5.178   5.387 -0.8706  0.1831 -1.8745
 5081TIP3    H236659   5.450   5.133   5.342 -1.0945 -1.7802  0.6661
 5082TIP3   OH236660   5.769   5.530  13.052 -0.3351 -0.4722 -0.2038
 5082TIP3    H136661   5.733   5.569  12.972 -0.3715 -0.2629 -0.0850
 5082TIP3    H236662   5.809   5.448  13.022 -3.1419 -2.0159  0.0247
 5083TIP3   OH236663   5.389   6.134  14.680 -0.1791 -0.0929 -0.9949
 5083TIP3    H136664   5.456   6.085  14.633 -1.3759 -0.0063 -2.8462
 5083TIP3    H236665   5.318   6.144  14.617 -1.1100  1.5714  0.2689
 5084TIP3   OH236666   5.638   3.145  11.432 -0.1841 -0.2097  0.4352
 5084TIP3    H136667   5.629   3.227  11.384 -0.7900 -0.3389  0.3256
 5084TIP3    H236668   5.572   3.087  11.394  0.7617 -0.9987 -0.0147
 5085TIP3   OH236669   0.886   0.213   2.348  0.0615  0.2851 -0.2620
 5085TIP3    H136670   0.971   0.202   2.305  0.6938  0.0740  0.9824
 5085TIP3    H236671   0.857   0.301   2.324  1.8335  1.3442  1.2887
 5086TIP3   OH236672   4.302   0.357   3.313 -0.3130  0.1020 -0.2444
 5086TIP3    H136673   4.276   0.420   3.380  0.8243 -0.5023  0.7983
 5086TIP3    H236674   4.220   0.329   3.272 -1.0494  0.2559  1.1067
 5087TIP3   OH236675   3.786   4.767  11.970 -0.7931 -0.6904  0.1309
 5087TIP3    H136676   3.854   4.702  11.951 -1.6644 -1.3427 -0.7985
 5087TIP3    H236677   3.805   4.840  11.910  0.6679  0.2943  1.7318
 5088TIP3   OH236678   3.895   5.990  12.503  0.2944 -0.6415 -0.2226
 5088TIP3    H136679   3.959   6.045  12.547 -0.1671 -0.4853  0.2581
 5088TIP3    H236680   3.842   6.051  12.452 -2.3994 -0.1585  2.9451
 5089TIP3   OH236681   1.462   0.971   1.063  0.3106 -0.5179 -0.1305
 5089TIP3    H136682   1.368   0.978   1.049  0.6037  0.0271 -1.8708
 5089TIP3    H236683   1.495   1.060   1.052  0.8750 -0.4534  1.8073
 5090TIP3   OH236684   0.832   1.190   1.403 -0.1197  0.7285 -0.4667
 5090TIP3    H136685   0.890   1.258   1.370  0.0768 -0.3242 -2.3574
 5090TIP3    H236686   0.887   1.112   1.407 -0.2357  0.7362  2.0524
 5091TIP3   OH236687   0.897   2.939  14.876 -0.5617  0.6263  0.3310
 5091TIP3    H136688   0.823   2.900  14.829 -1.1163  1.5119  0.4506
 5091TIP3    H236689   0.905   3.028  14.840 -0.6310  1.1122  1.4796
 5092TIP3   OH236690   0.578   5.053   0.744  0.1965  0.0071 -0.1359
 5092TIP3    H136691   0.551   4.995   0.673 -0.3903 -0.8407  0.7617
 5092TIP3    H236692   0.666   5.025   0.767  0.1077 -0.2020 -0.0467
 5093TIP3   OH236693   4.904   6.717  11.589  0.1046  0.0249 -0.0569
 5093TIP3    H136694   4.899   6.623  11.609  1.6392  0.2721  1.6266
 5093TIP3    H236695   4.817   6.751  11.613 -0.1897 -0.8283  0.1188
 5094TIP3   OH236696   1.955   0.300   3.847 -0.1691 -0.1210  0.6747
 5094TIP3    H136697   1.916   0.385   3.869  0.9505  0.6619 -0.2704
 5094TIP3    H236698   1.956   0.252   3.929 -1.8636  0.3516  0.9911
 5095TIP3   OH236699   2.515   5.767  17.022  0.1061  0.1659  0.3379
 5095TIP3    H136700   2.571   5.729  17.089 -1.0044  2.1407  2.4853
 5095TIP3    H236701   2.427   5.762  17.059 -0.8884 -0.9864 -2.0767
 5096TIP3   OH236702   5.161   4.682  12.430  0.4039  0.7273 -0.2966
 5096TIP3    H136703   5.102   4.651  12.499 -0.2545  0.4009 -0.9952
 5096TIP3    H236704   5.245   4.695  12.474  0.1361 -0.0106  0.4474
 5097TIP3   OH236705   6.300   0.453   0.602 -0.5372 -0.1321 -0.1808
 5097TIP3    H136706   6.217   0.406   0.596 -1.7431  2.0453 -0.9993
 5097TIP3    H236707   6.275   0.543   0.624  1.6395  0.4146  0.1583
 5098TIP3   OH236708   0.765   4.850  12.570  0.7982  1.1717  0.1272
 5098TIP3    H136709   0.703   4.825  12.501 -0.1568 -1.7684  1.9721
 5098TIP3    H236710   0.848   4.811  12.543  0.6648  0.8683  0.1542
 5099TIP3   OH236711   0.326   0.014  10.713 -0.3744 -0.0131  0.3635
 5099TIP3    H136712   0.231   0.019  10.702 -0.1491 -0.2551 -2.0595
 5099TIP3    H236713   0.360   0.012  10.623  1.8657 -0.7769  1.2007
 5100TIP3   OH236714   0.621   1.306  16.661 -0.0707 -0.4368  0.4937
 5100TIP3    H136715   0.672   1.383  16.635  0.0310 -0.2768  1.1607
 5100TIP3    H236716   0.602   1.261  16.578 -0.6503  0.6268  0.0505
 5101TIP3   OH236717   5.235   4.185  12.979 -0.3479  0.8362 -0.3534
 5101TIP3    H136718   5.219   4.135  12.899  0.1992  1.5490 -0.9133
 5101TIP3    H236719   5.149   4.194  13.019 -0.3173 -1.5157  0.3513
 5102TIP3   OH236720   1.134   6.628   1.411  0.7197  0.5968 -0.5546
 5102TIP3    H136721   1.098   6.554   1.459  0.3146  0.8612 -0.4529
 5102TIP3    H236722   1.105   6.705   1.460  1.2488  0.8193 -0.5857
 5103TIP3   OH236723   5.187   0.021   0.826 -0.1116  0.0475 -0.3271
 5103TIP3    H136724   5.208  -0.070   0.851  0.3551  0.3740  0.5116
 5103TIP3    H236725   5.262   0.072   0.858 -0.6698  0.8083 -0.2226
 5104TIP3   OH236726   2.631   5.019  16.545 -0.2142 -0.3391  0.1981
 5104TIP3    H136727   2.542   4.983  16.548  0.2312 -1.5495 -0.5075
 5104TIP3    H236728   2.636   5.079  16.619 -0.3172 -3.3296  2.7183
 5105TIP3   OH236729   5.110   4.028   1.136  0.2006  0.2386  0.3186
 5105TIP3    H136730   5.187   4.084   1.137  0.0856  0.4465 -1.0114
 5105TIP3    H236731   5.083   4.026   1.044 -2.1147  1.1902  0.9248
 5106TIP3   OH236732   2.501   0.647   4.018  0.0559 -0.1677 -0.4013
 5106TIP3    H136733   2.509   0.572   3.959  1.5758  1.4889 -2.3363
 5106TIP3    H236734   2.576   0.639   4.077 -0.2899 -0.6520 -0.0200
 5107TIP3   OH236735   5.917   3.690  11.558 -0.3152 -0.2505 -0.1166
 5107TIP3    H136736   5.976   3.724  11.491 -0.6409 -1.3965 -0.9966
 5107TIP3    H236737   5.918   3.756  11.627  0.7044  0.5189 -0.8642
 5108TIP3   OH236738   4.907   1.962  14.754 -0.1873 -0.2378  0.3639
 5108TIP3    H136739   4.886   2.008  14.673 -0.7707  1.4829  1.4607
 5108TIP3    H236740   4.823   1.930  14.786  0.1776 -1.8929 -0.2462
 5109TIP3   OH236741   6.407   0.627  13.831 -0.0570 -0.1825 -0.0990
 5109TIP3    H136742   6.478   0.568  13.858  0.5638 -0.3556 -2.0574
 5109TIP3    H236743   6.433   0.658  13.745 -0.2780  3.1771  0.9792
 5110TIP3   OH236744   2.193   3.754   2.031 -0.2067 -0.2353  0.2052
 5110TIP3    H136745   2.271   3.770   1.978 -0.6968  1.0488 -0.1325
 5110TIP3    H236746   2.174   3.838   2.073 -0.2325 -1.0489  1.8808
 5111TIP3   OH236747   2.481   4.056   0.089 -0.2278 -0.0783 -0.8433
 5111TIP3    H136748   2.389   4.071   0.110 -0.5290 -0.9435 -1.5281
 5111TIP3    H236749   2.484   4.048  -0.006  1.0555  3.1767 -1.1390
 5112TIP3   OH236750   5.980   1.667  16.265  0.0366  0.4104  0.4918
 5112TIP3    H136751   5.943   1.737  16.318 -0.6330 -0.2821  0.9462
 5112TIP3    H236752   5.972   1.589  16.320  0.1331 -0.1574 -0.2923
 5113TIP3   OH236753   4.581   0.963   2.814 -0.2817 -0.5507 -0.5089
 5113TIP3    H136754   4.521   1.017   2.763  0.7747  0.9201 -0.2434
 5113TIP3    H236755   4.568   0.994   2.904  0.1721 -0.9087 -0.3234
 5114TIP3   OH236756   2.271   4.579  12.774  0.2283 -0.6471 -0.0203
 5114TIP3    H136757   2.250   4.514  12.842 -0.2186 -0.1431  0.3219
 5114TIP3    H236758   2.209   4.559  12.703  0.4844 -0.9700 -0.1569
 5115TIP3   OH236759   0.256   1.244   3.451 -0.5168 -0.3490 -0.1656
 5115TIP3    H136760   0.170   1.211   3.474 -0.0815 -1.4395 -0.0987
 5115TIP3    H236761   0.243   1.338   3.439 -1.7362 -0.5308 -0.2845
 5116TIP3   OH236762   3.558   3.739  16.815  0.5851 -0.4594  0.3784
 5116TIP3    H136763   3.478   3.689  16.833  0.6393 -0.4560  0.6319
 5116TIP3    H236764   3.575   3.787  16.896  0.0359  0.6706 -0.1760
 5117TIP3   OH236765   0.644   3.799  13.389  0.2233  0.4308  0.4465
 5117TIP3    H136766   0.688   3.865  13.335  0.1714  0.4397  0.4151
 5117TIP3    H236767   0.715   3.743  13.421  0.4376  1.4161  1.7320
 5118TIP3   OH236768   0.465   0.866  13.070 -0.4275 -0.1491  0.2407
 5118TIP3    H136769   0.518   0.939  13.039  2.3642 -1.4908  1.6033
 5118TIP3    H236770   0.517   0.788  13.050 -2.2990 -1.6123  0.8319
 5119TIP3   OH236771   2.355   0.847   0.440 -0.1275 -0.2970 -0.0051
 5119TIP3    H136772   2.365   0.940   0.420 -0.9247 -0.0460  0.7232
 5119TIP3    H236773   2.440   0.821   0.477 -0.1858  0.3491  0.5859
 5120TIP3   OH236774   1.002   6.246   1.852  0.2545 -0.1349  0.0903
 5120TIP3    H136775   1.042   6.279   1.932 -1.2606 -1.7475  1.5584
 5120TIP3    H236776   1.027   6.154   1.849  0.1671 -0.1238 -1.2078
 5121TIP3   OH236777   1.520   3.752  11.010 -0.4117 -0.2627 -0.8432
 5121TIP3    H136778   1.428   3.776  11.022 -0.6194 -0.8935 -1.1434
 5121TIP3    H236779   1.547   3.795  10.929 -0.2797  0.3851 -0.4559
 5122TIP3   OH236780   4.476   3.650   3.344 -0.0985 -0.9127  1.0088
 5122TIP3    H136781   4.495   3.741   3.319  0.6275 -2.0354 -2.9443
 5122TIP3    H236782   4.381   3.648   3.355 -0.3951 -0.0959 -1.0211
 5123TIP3   OH236783   4.179   3.589   1.557 -0.7434 -0.2716 -0.6116
 5123TIP3    H136784   4.261   3.639   1.545 -0.5797  0.0315  1.6876
 5123TIP3    H236785   4.205   3.512   1.607 -2.0028  0.1960  0.7627
 5124TIP3   OH236786   3.653   0.819  14.796  0.4030  0.6340  0.2405
 5124TIP3    H136787   3.680   0.735  14.834 -0.5185 -0.3405 -1.2188
 5124TIP3    H236788   3.578   0.846  14.849 -0.4038 -0.3396 -0.3996
 5125TIP3   OH236789   1.947   3.085   3.761 -0.2495 -0.1174  0.5977
 5125TIP3    H136790   1.992   3.155   3.809  0.3804 -0.0349 -0.1031
 5125TIP3    H236791   1.900   3.130   3.692  0.1758 -0.3897  0.1302
 5126TIP3   OH236792   5.216   1.341  11.824  0.4653 -0.5007  0.5733
 5126TIP3    H136793   5.126   1.368  11.802  0.5366 -1.7223 -1.3971
 5126TIP3    H236794   5.232   1.378  11.910 -1.5110  0.7703  0.4306
 5127TIP3   OH236795   6.553   1.338  16.931  0.3598 -0.3355 -0.0254
 5127TIP3    H136796   6.507   1.260  16.961  2.5877 -1.2131  1.2172
 5127TIP3    H236797   6.603   1.309  16.855  0.5840  0.0636 -0.0342
 5128TIP3   OH236798   5.905   1.040  11.046  0.2560 -0.5768 -0.4630
 5128TIP3    H136799   5.995   1.064  11.069 -0.5126 -0.0945  2.2872
 5128TIP3    H236800   5.895   0.951  11.079 -0.4084 -0.4822 -0.4202
 5129TIP3   OH236801   2.331   3.854  16.024 -0.5612 -0.1678  0.7116
 5129TIP3    H136802   2.335   3.847  15.929 -0.4487  0.0604  0.6967
 5129TIP3    H236803   2.419   3.883  16.050 -1.2695  2.1668  0.6566
 5130TIP3   OH236804   0.426   3.656  13.680  0.4081 -0.0627 -0.3768
 5130TIP3    H136805   0.332   3.647  13.664  0.5664 -0.3145 -1.2037
 5130TIP3    H236806   0.448   3.742  13.644  0.8137 -0.7338 -1.7798
 5131TIP3   OH236807   0.754   3.517  13.891  0.0830  0.1577 -0.0983
 5131TIP3    H136808   0.764   3.512  13.796  1.0283  1.7560 -0.1045
 5131TIP3    H236809   0.674   3.569  13.904 -0.2198 -0.3247 -0.0125
 5132TIP3   OH236810   6.099   4.232  13.515 -0.5379 -0.2654  0.0381
 5132TIP3    H136811   6.169   4.207  13.576  1.5699 -0.0555 -2.2047
 5132TIP3    H236812   6.081   4.324  13.534  2.4374  0.7529 -1.7809
 5133TIP3   OH236813   5.679   0.655   3.659  0.1555  0.9124  0.0490
 5133TIP3    H136814   5.770   0.629   3.674 -0.4257 -1.1495  0.0969
 5133TIP3    H236815   5.628   0.576   3.676 -1.6402  2.0090 -0.1329
 5134TIP3   OH236816   1.053   6.147   4.554  0.5533 -0.7238 -0.2266
 5134TIP3    H136817   1.116   6.175   4.621  1.0757 -3.3704  0.4394
 5134TIP3    H236818   1.103   6.086   4.499 -0.7305 -0.8751 -1.2448
 5135TIP3   OH236819   4.235   2.232  11.164 -0.1284  0.2255  0.4329
 5135TIP3    H136820   4.257   2.199  11.077 -0.4217  0.6559  0.1957
 5135TIP3    H236821   4.174   2.167  11.199  3.0514 -2.0941  1.9287
 5136TIP3   OH236822   6.104   0.921  11.244  0.4100 -0.6563 -0.2072
 5136TIP3    H136823   6.034   0.951  11.302  0.6518 -1.8736  0.7364
 5136TIP3    H236824   6.183   0.961  11.280  0.4870 -0.9906  0.0000
 5137TIP3   OH236825   6.498   1.753   1.487  0.0167  0.4573 -0.0340
 5137TIP3    H136826   6.562   1.683   1.495 -1.0321 -0.2458  3.1794
 5137TIP3    H236827   6.548   1.833   1.506  0.4475  0.1837 -0.0140
 5138TIP3   OH236828   6.420   0.555   2.794  0.0793 -0.9821  0.0448
 5138TIP3    H136829   6.496   0.503   2.767  0.4854 -0.2062 -0.3032
 5138TIP3    H236830   6.361   0.551   2.719 -0.2730 -1.6708  0.3542
 5139TIP3   OH236831   1.825   2.690  16.150 -0.1949  0.2955  0.5946
 5139TIP3    H136832   1.899   2.630  16.145 -0.5889 -0.3032  1.7452
 5139TIP3    H236833   1.864   2.777  16.141  0.5096 -0.0655  0.0614
 5140TIP3   OH236834   6.645   2.461  14.422 -0.3321 -0.1204 -0.2650
 5140TIP3    H136835   6.642   2.445  14.516  0.0609  0.0047 -0.2303
 5140TIP3    H236836   6.702   2.537  14.412 -0.7850  0.1867 -0.5646
 5141TIP3   OH236837   6.219   3.187   3.482  0.6648 -0.1191  0.4223
 5141TIP3    H136838   6.187   3.115   3.537  0.4304  0.8243  1.5545
 5141TIP3    H236839   6.211   3.154   3.393  0.2862 -1.3884  0.8994
 5142TIP3   OH236840   2.069   1.963   1.289 -0.2076 -0.1003 -0.0035
 5142TIP3    H136841   2.025   1.978   1.205  1.3914  0.1907 -0.7990
 5142TIP3    H236842   2.124   1.887   1.274  0.0431 -0.0874  0.8191
 5143TIP3   OH236843   1.886   2.223   2.608 -0.3515  0.1314  0.0930
 5143TIP3    H136844   1.968   2.255   2.648 -0.6303  0.0400  0.7510
 5143TIP3    H236845   1.842   2.303   2.579 -0.3492  0.2390  0.3746
 5144TIP3   OH236846   5.237   2.820  13.734 -0.7580 -0.7636 -0.8826
 5144TIP3    H136847   5.322   2.793  13.699 -0.2833  0.7057 -0.8950
 5144TIP3    H236848   5.255   2.902  13.780 -1.6360 -1.9305  1.6360
 5145TIP3   OH236849   5.909   3.272  14.948 -0.3467  0.0637  0.1044
 5145TIP3    H136850   5.865   3.207  15.003 -0.3367 -0.7937 -0.8934
 5145TIP3    H236851   5.921   3.347  15.006 -0.9271 -0.5847  1.0900
 5146TIP3   OH236852   4.935   5.387  13.015 -0.8519  0.1994  0.2145
 5146TIP3    H136853   4.969   5.476  13.002  1.6196 -0.8212 -0.5836
 5146TIP3    H236854   4.904   5.361  12.928  1.8562 -1.0643 -0.4118
 5147TIP3   OH236855   2.171   0.050   4.566  0.0480  0.5483 -0.4170
 5147TIP3    H136856   2.211   0.130   4.532 -1.2901  1.5384  0.3110
 5147TIP3    H236857   2.133   0.008   4.489  0.2808  0.8794 -0.7153
 5148TIP3   OH236858   3.769   5.721  16.914  0.6045 -0.0836 -0.1509
 5148TIP3    H136859   3.831   5.789  16.887  1.5410 -0.4244  1.0813
 5148TIP3    H236860   3.751   5.671  16.835  1.0849  0.6704 -0.7452
 5149TIP3   OH236861   1.588   3.141   5.757 -0.8377 -0.4195 -0.1248
 5149TIP3    H136862   1.548   3.224   5.733 -3.1769 -0.8454  2.1503
 5149TIP3    H236863   1.519   3.076   5.744  0.2969 -1.7233  0.1913
 5150TIP3   OH236864   4.292   5.503  12.982 -0.1688 -0.4950 -0.4253
 5150TIP3    H136865   4.285   5.460  13.068  1.5651 -0.0687 -0.0437
 5150TIP3    H236866   4.215   5.560  12.978 -1.0104 -1.5495  0.2479
 5151TIP3   OH236867   4.296   5.532   3.076 -0.1583 -0.1428 -0.1793
 5151TIP3    H136868   4.282   5.560   3.166  1.5626  1.1875 -0.3022
 5151TIP3    H236869   4.270   5.607   3.023  0.3160 -0.3549 -0.7236
 5152TIP3   OH236870   2.885   6.771  14.805  0.7551  0.2268  0.4036
 5152TIP3    H136871   2.808   6.778  14.748  1.5132 -0.1071 -0.6868
 5152TIP3    H236872   2.924   6.858  14.802  1.3414 -0.0501 -0.4019
 5153TIP3   OH236873   1.151   3.298  11.763 -0.1768  0.1176 -0.6601
 5153TIP3    H136874   1.073   3.313  11.817  0.2756  1.8972 -0.4564
 5153TIP3    H236875   1.124   3.232  11.700 -1.5172 -0.0961  0.1110
 5154TIP3   OH236876   3.058   3.295  11.757 -0.1527 -0.5874  0.0114
 5154TIP3    H136877   3.133   3.354  11.757 -0.2853 -0.4121  0.7441
 5154TIP3    H236878   2.992   3.339  11.811 -1.0275 -0.4321 -1.1587
 5155TIP3   OH236879   5.092   1.881   3.788  0.3288 -0.3018 -0.0826
 5155TIP3    H136880   5.018   1.940   3.805  1.2911  1.1060 -0.7483
 5155TIP3    H236881   5.062   1.796   3.821 -0.9313  0.6165  1.2190
 5156TIP3   OH236882   4.477   2.584   0.301  0.0411  0.8620  0.0908
 5156TIP3    H136883   4.489   2.587   0.396 -0.5723  0.8959  0.1690
 5156TIP3    H236884   4.536   2.651   0.267  0.1450  0.9565  0.4609
 5157TIP3   OH236885   5.286   2.488  15.956 -0.2391 -0.0469 -0.1085
 5157TIP3    H136886   5.208   2.434  15.947 -0.9493  1.2250 -1.8631
 5157TIP3    H236887   5.297   2.529  15.871  0.5856  2.1937  1.0415
 5158TIP3   OH236888   4.747   1.424   2.397  0.9041 -0.3585  0.2593
 5158TIP3    H136889   4.664   1.382   2.377  0.4602  0.6774 -0.1149
 5158TIP3    H236890   4.813   1.355   2.384  0.1001 -1.1961  0.6343
 5159TIP3   OH236891   4.817   4.759   0.160  0.4305 -0.1487 -0.2700
 5159TIP3    H136892   4.738   4.785   0.208  0.6889 -1.0051  0.6372
 5159TIP3    H236893   4.887   4.812   0.198  0.1762  1.2143 -1.6383
 5160TIP3   OH236894   5.999   6.333   1.845  0.1534 -0.3562 -0.3415
 5160TIP3    H136895   6.085   6.320   1.805  0.8875  0.5994  0.9061
 5160TIP3    H236896   5.996   6.426   1.865 -1.1347 -0.4069 -0.2570
 5161TIP3   OH236897   5.341   3.976   4.510 -0.1915 -0.7065  0.0372
 5161TIP3    H136898   5.392   3.904   4.472  0.3207 -1.0915  1.4266
 5161TIP3    H236899   5.250   3.953   4.492  0.0364 -0.9766 -0.7933
 5162TIP3   OH236900   2.830   2.119   0.847 -0.5344  0.3375 -0.0447
 5162TIP3    H136901   2.862   2.055   0.912  0.9219 -0.4254 -1.4852
 5162TIP3    H236902   2.741   2.091   0.829  0.0977 -1.3497 -0.6924
 5163TIP3   OH236903   5.014   0.522  13.715 -0.0424 -0.0883 -0.2136
 5163TIP3    H136904   4.984   0.434  13.740  0.7118 -0.9501 -2.2678
 5163TIP3    H236905   5.109   0.517  13.715  0.1152  1.6076  2.5812
 5164TIP3   OH236906   6.021   2.562   6.687 -0.0537 -0.3989  0.2596
 5164TIP3    H136907   6.003   2.468   6.684  0.0224 -0.4444  1.2736
 5164TIP3    H236908   5.939   2.601   6.716  0.4312 -0.3028  1.5181
 5165TIP3   OH236909   0.958   3.629  14.808  0.0929 -0.1723 -0.3489
 5165TIP3    H136910   0.996   3.584  14.731  1.2282  1.4820 -0.7830
 5165TIP3    H236911   0.943   3.559  14.871  0.9275 -1.3155 -1.3854
 5166TIP3   OH236912   0.845   6.653  15.033  0.2758  0.9391  0.3511
 5166TIP3    H136913   0.762   6.605  15.041  1.0927 -0.2285  2.2277
 5166TIP3    H236914   0.820   6.744  15.045 -0.7999  0.6330  0.5283
 5167TIP3   OH236915   4.875   5.318   4.376  0.0354  0.6054  0.4850
 5167TIP3    H136916   4.934   5.353   4.309 -0.6362  0.0076 -0.4299
 5167TIP3    H236917   4.812   5.388   4.392 -1.5261 -0.2643 -1.6068
 5168TIP3   OH236918   6.474   5.454   4.689  0.0609  0.4903  0.2946
 5168TIP3    H136919   6.518   5.527   4.733 -0.5920  0.9118  0.2604
 5168TIP3    H236920   6.519   5.376   4.722  0.1317  0.8505  1.0711
 5169TIP3   OH236921   0.392   0.005  10.983 -0.1415  0.6430  0.1350
 5169TIP3    H136922   0.475   0.003  10.936 -0.4608 -0.8470 -0.3991
 5169TIP3    H236923   0.331   0.048  10.923  0.1712  1.5111  0.4273
 5170TIP3   OH236924   5.167   0.001  15.755 -0.1374  0.5547 -0.3547
 5170TIP3    H136925   5.116  -0.080  15.758 -0.3561  0.6370 -1.4470
 5170TIP3    H236926   5.107   0.065  15.715  0.7809  0.6701 -1.5782
 5171TIP3   OH236927   1.439   0.915  11.933  0.1049  0.8250  0.0580
 5171TIP3    H136928   1.418   0.894  12.024 -0.3676  1.3911  0.0791
 5171TIP3    H236929   1.525   0.875  11.920 -0.3506 -0.3150  0.3832
 5172TIP3   OH236930   5.756   0.414   0.628  0.6893  0.1924 -0.5595
 5172TIP3    H136931   5.784   0.496   0.587  0.7088  0.5599  0.1852
 5172TIP3    H236932   5.795   0.345   0.573  0.8488  0.6788 -1.0627
 5173TIP3   OH236933   4.163   0.146  15.252  0.3179 -0.1713 -0.0189
 5173TIP3    H136934   4.070   0.160  15.269 -0.0272  0.2659 -2.1806
 5173TIP3    H236935   4.180   0.190  15.169  2.3698 -0.6026  0.1382
 5174TIP3   OH236936   5.759   2.247   1.583 -0.0861  0.0070 -0.4695
 5174TIP3    H136937   5.673   2.271   1.617  1.0948  0.7449  2.0790
 5174TIP3    H236938   5.782   2.320   1.525 -0.2840  0.8048  0.4465
 5175TIP3   OH236939   0.941   0.355   0.060 -0.6394  0.2401  0.1317
 5175TIP3    H136940   0.883   0.348   0.135  0.4025 -0.4977  0.8957
 5175TIP3    H236941   0.884   0.381  -0.012 -2.0546 -1.2433  0.6806
 5176TIP3   OH236942   5.963   0.550  16.296 -0.5327  0.1762 -0.7041
 5176TIP3    H136943   5.987   0.534  16.387  3.0674 -1.1523 -1.7668
 5176TIP3    H236944   5.947   0.645  16.291  2.3199  0.7823  0.7123
 5177TIP3   OH236945   4.994   0.370  17.121 -0.5428 -0.3120 -0.0267
 5177TIP3    H136946   4.955   0.457  17.108  1.2466  0.5716  0.4003
 5177TIP3    H236947   5.088   0.383  17.107 -0.1081 -1.9265  1.2195
 5178TIP3   OH236948   2.609   1.580  15.227  0.2712 -0.1592  0.4123
 5178TIP3    H136949   2.636   1.488  15.221  2.0055  0.3041  0.8800
 5178TIP3    H236950   2.653   1.613  15.305 -2.6247  0.3348  1.8743
 5179TIP3   OH236951   2.694   5.208  16.742 -0.3891  0.0533  0.2722
 5179TIP3    H136952   2.731   5.223  16.829 -1.8798  0.6810  0.7992
 5179TIP3    H236953   2.722   5.284  16.690 -1.0530  0.5937  0.7057
 5180TIP3   OH236954   5.328   1.644   6.850  0.1984 -0.8170 -0.3261
 5180TIP3    H136955   5.403   1.598   6.813  0.7767 -1.3286  1.4239
 5180TIP3    H236956   5.255   1.583   6.841  0.1184 -0.5541 -1.4891
 5181TIP3   OH236957   3.485   1.720  13.565 -0.0635 -0.3694 -0.3854
 5181TIP3    H136958   3.514   1.785  13.501 -0.0257  0.6758  0.6778
 5181TIP3    H236959   3.410   1.760  13.608  0.6699 -0.5198  1.0770
 5182TIP3   OH236960   0.563   3.809  14.709  0.7576 -0.3611 -0.3501
 5182TIP3    H136961   0.569   3.896  14.748  2.8670 -0.8683  0.5472
 5182TIP3    H236962   0.495   3.765  14.759  1.9630 -0.2984  1.4055
 5183TIP3   OH236963   0.557   0.371   0.062  0.1304 -0.3941  0.1935
 5183TIP3    H136964   0.494   0.304   0.087 -0.9178  1.0945  1.5327
 5183TIP3    H236965   0.506   0.436   0.015  0.8529  0.3253  0.3988
 5184TIP3   OH236966   5.810   2.986  14.087  0.4113  0.0821  0.4431
 5184TIP3    H136967   5.800   3.037  14.007  0.4768 -0.9542 -0.2372
 5184TIP3    H236968   5.847   3.048  14.150  1.5642  0.5834 -0.7000
 5185TIP3   OH236969   6.503   4.522  11.982  0.1167  0.0218 -0.5640
 5185TIP3    H136970   6.593   4.497  11.962 -0.0067  0.6174 -1.9493
 5185TIP3    H236971   6.480   4.585  11.914 -1.3541 -0.1273 -0.2280
 5186TIP3   OH236972   0.830   2.761  11.555  0.4223 -0.0836  0.0779
 5186TIP3    H136973   0.765   2.693  11.536 -0.3009  0.0548  1.9486
 5186TIP3    H236974   0.876   2.775  11.472  1.6112 -3.9315  0.0087
 5187TIP3   OH236975   5.190   6.112   0.932  0.9223 -0.2657  0.0590
 5187TIP3    H136976   5.129   6.178   0.899  1.2496 -0.4273 -0.8907
 5187TIP3    H236977   5.136   6.055   0.987  0.4384  0.2124  0.0815
 5188TIP3   OH236978   5.496   3.626  14.979  0.1702 -0.5298  0.0421
 5188TIP3    H136979   5.429   3.692  14.997  0.3312  0.0480 -1.4310
 5188TIP3    H236980   5.446   3.548  14.954  0.0511 -0.0572 -1.1938
 5189TIP3   OH236981   6.778   5.500   3.166  0.3381  0.0601  0.2985
 5189TIP3    H136982   6.813   5.589   3.164  1.7470 -0.4925 -0.2535
 5189TIP3    H236983   6.716   5.497   3.093  0.6429  0.4476  0.0191
 5190TIP3   OH236984   4.205   4.762  12.014  0.3854  0.0963 -0.7720
 5190TIP3    H136985   4.227   4.675  11.980 -2.0406 -0.5406 -0.7750
 5190TIP3    H236986   4.230   4.758  12.106  2.3705  0.1774 -1.2728
 5191TIP3   OH236987   2.279   3.834   5.332  0.2789 -0.5084 -0.5610
 5191TIP3    H136988   2.369   3.801   5.340  0.9568  1.2886 -0.5913
 5191TIP3    H236989   2.270   3.858   5.240  0.5912  1.5680 -0.0729
 5192TIP3   OH236990   5.778   0.613  12.709  0.2236  0.3769 -0.0083
 5192TIP3    H136991   5.693   0.640  12.675 -0.9841  0.1043  2.6444
 5192TIP3    H236992   5.819   0.566  12.636 -1.9313  0.4408 -1.3092
 5193TIP3   OH236993   1.881   0.176   0.916  0.4784 -0.1912  0.4187
 5193TIP3    H136994   1.919   0.171   1.003  0.4788 -1.2042  0.3655
 5193TIP3    H236995   1.954   0.198   0.859  0.7103 -0.6818  0.5201
 5194TIP3   OH236996   6.433   0.939  12.934 -0.0466  0.4671  0.0029
 5194TIP3    H136997   6.511   0.887  12.953  0.0966  1.2292  1.6107
 5194TIP3    H236998   6.363   0.873  12.922  0.8969 -0.2286 -1.8827
 5195TIP3   OH236999   1.933   0.365  11.268  0.8181 -0.4218  0.3978
 5195TIP3    H137000   1.889   0.360  11.184  0.8839  0.8828  0.2803
 5195TIP3    H237001   1.907   0.450  11.304  2.8366  0.1653  0.5282
 5196TIP3   OH237002   6.089   5.558  17.059  0.0401 -0.4639 -0.1926
 5196TIP3    H137003   6.151   5.487  17.076  1.0386  0.6834  1.0900
 5196TIP3    H237004   6.048   5.574  17.143 -1.4511 -0.6775 -0.8672
 5197TIP3   OH237005   2.414   3.482   5.966 -0.3668 -0.6050 -0.0881
 5197TIP3    H137006   2.429   3.404   6.020 -0.8279  0.4405  1.5617
 5197TIP3    H237007   2.500   3.524   5.961 -0.3420 -0.6587 -0.1203
 5198TIP3   OH237008   0.211   0.316   5.672  0.0578 -0.0832  0.2410
 5198TIP3    H137009   0.181   0.293   5.584  0.1633  0.8186 -0.0365
 5198TIP3    H237010   0.131   0.317   5.725  0.0909 -1.3904  0.3407
 5199TIP3   OH237011   2.225   0.875  16.507  0.3740 -0.2347  0.1336
 5199TIP3    H137012   2.276   0.904  16.431 -2.4324  2.8208 -0.7132
 5199TIP3    H237013   2.251   0.935  16.577  0.0778 -0.5219  0.4909
 5200TIP3   OH237014   2.226   4.852   0.604  0.0940  0.6607 -0.1290
 5200TIP3    H137015   2.198   4.944   0.607 -2.3670 -0.0462 -0.0663
 5200TIP3    H237016   2.196   4.821   0.519 -2.3603 -1.0315  1.3026
 5201TIP3   OH237017   0.127   5.061   2.271  0.0616  0.1221 -0.3531
 5201TIP3    H137018   0.115   4.980   2.321 -0.2658  0.5783  0.3194
 5201TIP3    H237019   0.084   5.044   2.187 -0.4833 -0.2022 -0.0072
 5202TIP3   OH237020   3.321   5.259  13.749  0.3120  0.0467  0.0746
 5202TIP3    H137021   3.405   5.288  13.714 -0.2654 -0.8902 -2.1308
 5202TIP3    H237022   3.263   5.334  13.736 -0.0327 -0.4783 -1.4887
 5203TIP3   OH237023   3.406   6.678  10.818  0.1000 -0.1546  0.5335
 5203TIP3    H137024   3.439   6.603  10.867  0.2232 -0.8738 -0.6450
 5203TIP3    H237025   3.471   6.747  10.833  0.6958 -0.7024  0.4877
 5204TIP3   OH237026   3.312   4.587  16.981  0.0072 -0.2876 -0.5502
 5204TIP3    H137027   3.234   4.630  16.945 -1.7629 -1.4939  1.6667
 5204TIP3    H237028   3.386   4.640  16.951 -2.0009  4.0704  1.6709
 5205TIP3   OH237029   4.516   3.425   0.542 -0.5613 -0.2097 -0.0610
 5205TIP3    H137030   4.598   3.445   0.587 -0.8954  1.2383 -0.0558
 5205TIP3    H237031   4.453   3.410   0.612 -0.4194 -0.8459 -0.0647
 5206TIP3   OH237032   0.752   6.106   0.286 -0.6239 -0.1816 -0.4483
 5206TIP3    H137033   0.770   6.027   0.338 -1.0710 -0.5767 -0.8810
 5206TIP3    H237034   0.803   6.175   0.328  1.9599 -1.2714 -1.6774
 5207TIP3   OH237035   4.912   4.323   4.812 -0.8431  0.4644 -0.1410
 5207TIP3    H137036   4.865   4.261   4.756 -1.7914  0.4304  0.6690
 5207TIP3    H237037   4.869   4.407   4.797 -2.4716  0.0649  2.0470
 5208TIP3   OH237038   0.535   0.212  13.411  0.3867 -0.1316  0.4551
 5208TIP3    H137039   0.534   0.136  13.468  0.8943 -0.5351 -0.0629
 5208TIP3    H237040   0.601   0.191  13.345 -1.8961 -0.7373 -1.7187
 5209TIP3   OH237041   0.324   5.215  15.226  0.3011  0.2032 -0.5801
 5209TIP3    H137042   0.408   5.222  15.270  0.2534  0.5565 -0.5459
 5209TIP3    H237043   0.279   5.143  15.271 -0.3817  1.5906  1.0060
 5210TIP3   OH237044   2.207   0.578  10.821 -0.1555  0.2379  0.4145
 5210TIP3    H137045   2.289   0.529  10.818  0.4999  1.2465  1.4254
 5210TIP3    H237046   2.192   0.607  10.731 -0.6022 -1.8648 -0.2223
 5211TIP3   OH237047   6.584   4.818  14.141  0.1630  0.2141 -0.6213
 5211TIP3    H137048   6.529   4.811  14.063  0.7253 -2.5348 -0.8374
 5211TIP3    H237049   6.547   4.754  14.202  0.8799  0.9821  0.6438
 5212TIP3   OH237050   3.258   5.910  16.382 -0.0210  0.0459 -0.2192
 5212TIP3    H137051   3.297   5.997  16.372 -2.0357  0.9861 -0.0335
 5212TIP3    H237052   3.203   5.900  16.305 -1.3302 -0.2367  0.7383
 5213TIP3   OH237053   3.750   5.841  15.463  0.0401 -0.5088  0.3970
 5213TIP3    H137054   3.734   5.838  15.369 -0.9240 -2.8741  0.5996
 5213TIP3    H237055   3.744   5.750  15.491  1.5514  0.0190  2.5555
 5214TIP3   OH237056   6.450   5.315  14.031 -0.2986  0.2079  0.1390
 5214TIP3    H137057   6.422   5.239  14.081 -0.5523  0.1849 -0.0373
 5214TIP3    H237058   6.543   5.300  14.013 -0.0603  0.5143  1.1389
 5215TIP3   OH237059   1.476   2.790  14.728  0.2417  0.3725 -0.1164
 5215TIP3    H137060   1.543   2.798  14.796 -0.4457  2.1490  0.3841
 5215TIP3    H237061   1.521   2.816  14.647  0.4455  0.5323  0.0470
 5216TIP3   OH237062   2.542   5.714   1.779 -0.2704  0.2148 -0.4565
 5216TIP3    H137063   2.606   5.664   1.829 -0.6770  0.7001  0.5818
 5216TIP3    H237064   2.552   5.685   1.689 -0.4098 -1.6299  0.1129
 5217TIP3   OH237065   5.949   6.007  12.364 -0.2369 -0.1709  0.3653
 5217TIP3    H137066   5.941   5.922  12.322 -2.9669 -0.5048  1.4173
 5217TIP3    H237067   6.033   6.005  12.409  0.4029 -1.7233 -0.8750
 5218TIP3   OH237068   0.690   1.946   2.624  0.3799 -0.5121  0.2139
 5218TIP3    H137069   0.617   1.884   2.627 -0.6934  0.7054 -0.3528
 5218TIP3    H237070   0.735   1.926   2.542  0.1580 -0.6692  0.1306
 5219TIP3   OH237071   5.052   3.997   1.622 -0.0440  0.3284 -0.0232
 5219TIP3    H137072   5.082   4.002   1.531 -0.0688 -0.3978 -0.0789
 5219TIP3    H237073   5.093   3.917   1.656 -0.6332  0.1923  0.3799
 5220TIP3   OH237074   1.649   1.384   1.212  0.5068  0.9944  0.4876
 5220TIP3    H137075   1.662   1.349   1.300  1.7331  0.5745  0.1524
 5220TIP3    H237076   1.556   1.374   1.195  0.6125 -0.9033  0.9198
 5221TIP3   OH237077   1.728   4.063  13.541 -0.0683  0.2980 -0.0324
 5221TIP3    H137078   1.812   4.058  13.496  0.5787  0.7692  1.1048
 5221TIP3    H237079   1.671   4.110  13.480  1.3199  2.6072  0.4174
 5222TIP3   OH237080   6.304   1.825  12.853  0.1506 -0.2826 -0.2050
 5222TIP3    H137081   6.247   1.898  12.830 -1.1493 -1.4425 -0.6832
 5222TIP3    H237082   6.245   1.751  12.868  1.4070 -1.1147  0.8149
 5223TIP3   OH237083   6.289   4.791  13.899 -0.0350 -0.2837 -0.0092
 5223TIP3    H137084   6.380   4.821  13.890 -0.2009  0.2571  0.0724
 5223TIP3    H237085   6.278   4.777  13.993  0.2915 -1.4182 -0.1312
 5224TIP3   OH237086   3.943   0.992  12.239 -0.1026 -0.2014  0.3174
 5224TIP3    H137087   3.865   1.019  12.190 -0.0581  0.4920  0.6201
 5224TIP3    H237088   3.992   0.937  12.178 -0.7530 -0.5199  0.0726
 5225TIP3   OH237089   0.286   6.318  16.728  0.0994  0.3169  0.2284
 5225TIP3    H137090   0.362   6.322  16.669 -0.1596  0.2596 -0.1140
 5225TIP3    H237091   0.256   6.408  16.735 -0.3290  0.2233 -0.3381
 5226TIP3   OH237092   4.443   4.296  16.173  0.4215 -0.0807  0.1020
 5226TIP3    H137093   4.518   4.241  16.151 -0.3429 -1.0093 -0.2034
 5226TIP3    H237094   4.430   4.351  16.096  1.2757  0.6456  0.4623
 5227TIP3   OH237095   3.353   6.552   6.182 -0.8324 -0.0313 -0.7037
 5227TIP3    H137096   3.404   6.611   6.238 -0.5417 -2.2775  1.4767
 5227TIP3    H237097   3.414   6.528   6.112 -0.1323  0.2767 -0.2137
 5228TIP3   OH237098   1.724   4.029  11.762 -0.6514 -0.6021  0.0794
 5228TIP3    H137099   1.761   4.007  11.677 -2.2710  1.1526 -1.1099
 5228TIP3    H237100   1.632   4.049  11.745 -0.6534  1.2561  1.9772
 5229TIP3   OH237101   0.260   6.701  14.008  0.4781  0.0214 -0.0570
 5229TIP3    H137102   0.228   6.675  14.095  0.4370  1.3791  0.3403
 5229TIP3    H237103   0.355   6.695  14.015  0.5130  1.1748  0.4088
 5230TIP3   OH237104   4.931   0.880   0.838  0.4787  0.8041 -0.3033
 5230TIP3    H137105   5.002   0.874   0.902 -0.5199 -0.3519  0.7406
 5230TIP3    H237106   4.852   0.862   0.889 -0.5388  1.8086 -1.4938
 5231TIP3   OH237107   3.195   4.643  13.323  0.2716  0.4537  0.2254
 5231TIP3    H137108   3.101   4.659  13.326  0.1875  0.5903 -2.4063
 5231TIP3    H237109   3.203   4.558  13.280  1.2630 -0.8267  2.8329
 5232TIP3   OH237110   0.330   1.083   2.568 -0.0506  0.1956  0.0076
 5232TIP3    H137111   0.385   1.065   2.492 -0.3217 -0.7458  0.0345
 5232TIP3    H237112   0.286   1.000   2.586 -2.8375  1.3808 -1.0875
 5233TIP3   OH237113   1.497   1.645  16.937  1.2147 -0.1898  0.0597
 5233TIP3    H137114   1.426   1.678  16.992  1.8560  0.3299  0.5967
 5233TIP3    H237115   1.484   1.688  16.852  0.4297 -0.7156 -0.0857
 5234TIP3   OH237116   1.645   5.018   1.830  0.6738 -0.8259  0.2529
 5234TIP3    H137117   1.666   5.111   1.818 -0.8498 -0.2972  1.4238
 5234TIP3    H237118   1.717   4.984   1.883  0.7947 -0.0842  0.5743
 5235TIP3   OH237119   4.456   6.414  13.426  0.0791  0.5487 -0.1043
 5235TIP3    H137120   4.546   6.444  13.420  0.0429  0.6266 -0.2596
 5235TIP3    H237121   4.454   6.359  13.505  0.3802  0.1278 -0.3881
 5236TIP3   OH237122   6.453   2.419  15.963  0.7839  0.6634 -0.1209
 5236TIP3    H137123   6.463   2.470  16.043  1.0053  1.1350 -0.4486
 5236TIP3    H237124   6.372   2.452  15.923  1.1652  1.0731 -0.5610
 5237TIP3   OH237125   0.895   5.958  16.349 -0.6019 -0.0832 -0.0363
 5237TIP3    H137126   0.898   6.053  16.337  0.2919 -0.1521 -0.3838
 5237TIP3    H237127   0.892   5.922  16.261 -1.6945 -0.3615  0.1080
 5238TIP3   OH237128   1.868   5.575  16.419 -0.0402 -0.0494 -0.0628
 5238TIP3    H137129   1.847   5.643  16.355  1.1708  0.3143 -0.0899
 5238TIP3    H237130   1.870   5.622  16.503 -0.0823 -0.2195  0.0338
 5239TIP3   OH237131   3.446   0.082  16.653  0.3950  0.1007  0.3482
 5239TIP3    H137132   3.475   0.168  16.685 -1.0965  1.4490 -1.7510
 5239TIP3    H237133   3.350   0.088  16.655  0.2844 -0.9099 -1.3269
 5240TIP3   OH237134   3.826   3.401  12.880  0.0814  0.5733  0.2457
 5240TIP3    H137135   3.918   3.391  12.856  0.2003  1.1567  0.4346
 5240TIP3    H237136   3.814   3.342  12.955 -0.0827 -0.6120 -0.6932
 5241TIP3   OH237137   5.909   2.169  15.404  0.2964 -0.2997  0.1574
 5241TIP3    H137138   5.838   2.171  15.469  0.5896 -1.2113  0.5220
 5241TIP3    H237139   5.941   2.078  15.407  1.2002 -0.0015 -0.3050
 5242TIP3   OH237140   6.237   6.195   0.432  0.1990 -0.5035  0.3627
 5242TIP3    H137141   6.302   6.263   0.449 -1.5718  1.4179 -0.2450
 5242TIP3    H237142   6.184   6.192   0.512 -2.1719  1.7154 -1.0348
 5243TIP3   OH237143   4.905   1.009   2.073  0.4479 -0.1138 -0.1457
 5243TIP3    H137144   4.913   0.985   2.166  1.7852  1.1140  0.0750
 5243TIP3    H237145   4.903   1.105   2.074 -1.3856 -0.1241 -1.2618
 5244TIP3   OH237146   1.130   3.546  14.347 -0.2286  0.5309  0.3724
 5244TIP3    H137147   1.219   3.510  14.339 -0.0322  1.2946 -0.9467
 5244TIP3    H237148   1.116   3.592  14.265 -1.3084  1.6472  1.1831
 5245TIP3   OH237149   4.519   3.193  15.710 -0.2670 -0.1155  0.4977
 5245TIP3    H137150   4.505   3.180  15.804  0.2899 -0.6165  0.5145
 5245TIP3    H237151   4.455   3.136  15.668 -0.3436 -0.0849  0.5719
 5246TIP3   OH237152   5.047   2.993   4.502  0.5376  0.1941 -0.8909
 5246TIP3    H137153   5.094   2.915   4.470  2.0091  1.6928 -2.4831
 5246TIP3    H237154   5.089   3.066   4.458 -0.8539  1.9223  0.5641
 5247TIP3   OH237155   5.349   3.622  12.085 -0.2773 -0.2985 -0.1363
 5247TIP3    H137156   5.418   3.666  12.135 -1.2912  2.2247 -0.8602
 5247TIP3    H237157   5.310   3.561  12.148  2.4013 -1.6065  0.3489
 5248TIP3   OH237158   3.428   1.117  11.770  1.2878 -0.2964  0.0369
 5248TIP3    H137159   3.445   1.194  11.824  0.3838  0.3909 -0.6605
 5248TIP3    H237160   3.443   1.146  11.681  0.3585 -0.7753 -0.2765
 5249TIP3   OH237161   4.261   3.122  12.551 -0.2493  0.2447 -0.1923
 5249TIP3    H137162   4.176   3.082  12.569  0.8056 -1.5851  0.7668
 5249TIP3    H237163   4.286   3.089  12.465  0.3493 -0.7393  0.3462
 5250TIP3   OH237164   3.728   1.308   5.020 -0.1742 -0.1817 -0.8906
 5250TIP3    H137165   3.705   1.394   4.985 -0.2611 -0.0254 -0.4511
 5250TIP3    H237166   3.776   1.265   4.949 -0.0500  0.2656 -1.0775
 5251TIP3   OH237167   0.187   5.682  13.662  0.4833 -0.2506 -0.0610
 5251TIP3    H137168   0.124   5.708  13.595 -0.9607  1.5936  1.9418
 5251TIP3    H237169   0.163   5.592  13.684 -0.2277 -0.2239 -0.6979
 5252TIP3   OH237170   6.606   5.837   0.811  0.2187  0.8069 -0.0155
 5252TIP3    H137171   6.555   5.884   0.746 -0.3268 -0.1152 -0.2555
 5252TIP3    H237172   6.567   5.862   0.895 -2.1010 -1.6021 -0.3069
 5253TIP3   OH237173   1.023   2.892  14.315 -0.3271  0.3708  0.1199
 5253TIP3    H137174   0.940   2.846  14.302 -1.0235  1.9145 -1.0745
 5253TIP3    H237175   1.016   2.930  14.403 -0.2670 -0.7261  0.6054
 5254TIP3   OH237176   3.356   1.428   2.269  0.1561 -0.5079  0.0121
 5254TIP3    H137177   3.393   1.470   2.191 -1.8748 -0.4907 -0.9584
 5254TIP3    H237178   3.427   1.432   2.333  1.4879  0.4657 -1.4705
 5255TIP3   OH237179   3.728   2.333   2.898  0.0790  0.3940  0.4152
 5255TIP3    H137180   3.732   2.428   2.888  1.0323  0.4301  1.1798
 5255TIP3    H237181   3.644   2.318   2.943 -0.0764  0.8648  0.2934
 5256TIP3   OH237182   2.394   4.555   0.906 -0.0581 -0.0823  0.2878
 5256TIP3    H137183   2.314   4.589   0.948 -0.0781 -0.5433  0.6211
 5256TIP3    H237184   2.397   4.463   0.932 -0.0725 -0.3704 -0.7342
 5257TIP3   OH237185   0.568   6.765  13.594  0.0263  0.2470 -0.0642
 5257TIP3    H137186   0.587   6.709  13.519 -0.3631 -0.7813  0.5844
 5257TIP3    H237187   0.500   6.717  13.642 -0.8802  1.6650  0.0803
 5258TIP3   OH237188   2.288   5.533   5.719 -0.6952 -0.4689 -0.5560
 5258TIP3    H137189   2.361   5.520   5.779 -0.0986  0.9261 -0.9612
 5258TIP3    H237190   2.313   5.488   5.639 -0.0011  0.4937 -0.8943
 5259TIP3   OH237191   2.685   0.854   0.358 -0.6916  0.2543  0.5420
 5259TIP3    H137192   2.700   0.780   0.299 -0.3440  0.7207  0.0368
 5259TIP3    H237193   2.655   0.924   0.301 -0.4478  0.6817  0.9376
 5260TIP3   OH237194   5.992   5.819  12.161 -0.3746  0.3636  0.7042
 5260TIP3    H137195   6.056   5.758  12.123 -1.4582 -0.3193 -0.0353
 5260TIP3    H237196   6.019   5.905  12.127  0.2321  0.0980  0.4995
 5261TIP3   OH237197   5.451   6.048  15.332 -0.4950  0.2768  0.1756
 5261TIP3    H137198   5.525   6.058  15.392 -0.4319  0.9570 -0.0152
 5261TIP3    H237199   5.463   5.960  15.295 -0.3589 -0.0212  0.9104
 5262TIP3   OH237200   4.461   4.035   1.763 -0.5070 -0.6725 -0.4975
 5262TIP3    H137201   4.485   4.119   1.724 -1.0831 -0.3019 -0.0555
 5262TIP3    H237202   4.396   3.998   1.703 -0.6376 -0.5673 -0.4205
 5263TIP3   OH237203   1.652   1.829  14.957 -0.4089  0.1290  0.0545
 5263TIP3    H137204   1.744   1.851  14.943 -0.2030  0.4574  1.8504
 5263TIP3    H237205   1.619   1.898  15.014 -1.1013 -1.4317  1.5820
 5264TIP3   OH237206   6.242   0.183  11.313 -0.6825 -0.5152  0.2737
 5264TIP3    H137207   6.192   0.199  11.233  0.9091  0.3421 -0.5686
 5264TIP3    H237208   6.187   0.124  11.364 -2.2991 -0.0479 -0.8827
 5265TIP3   OH237209   2.523   5.345   0.734 -0.6384  0.9871 -0.8181
 5265TIP3    H137210   2.614   5.320   0.723 -0.6464  1.0839 -1.1175
 5265TIP3    H237211   2.503   5.325   0.825 -0.6829 -0.2196 -1.0963
 5266TIP3   OH237212   5.140   5.993  11.858  0.1242  0.1136  0.0282
 5266TIP3    H137213   5.162   6.069  11.912 -2.0055  1.4205 -0.8850
 5266TIP3    H237214   5.224   5.952  11.839  1.1393  1.2057  2.0344
 5267TIP3   OH237215   3.195   0.774   0.571 -0.0062  0.4828  0.2172
 5267TIP3    H137216   3.119   0.805   0.620 -2.3684  1.7836 -4.0118
 5267TIP3    H237217   3.254   0.849   0.567 -0.0285  0.5234  0.6403
 5268TIP3   OH237218   4.435   0.729  12.483 -0.0745 -0.6957 -0.0448
 5268TIP3    H137219   4.400   0.799  12.427  0.5399 -1.2244 -1.1202
 5268TIP3    H237220   4.380   0.731  12.561 -0.7299  0.2988 -0.5127
 5269TIP3   OH237221   2.446   4.312  15.997 -0.8496 -0.0321 -0.5252
 5269TIP3    H137222   2.413   4.393  15.960  1.6915  0.7291 -1.2386
 5269TIP3    H237223   2.532   4.300  15.957  1.6984  0.3662  4.3469
 5270TIP3   OH237224   4.610   4.613  10.997  1.0659 -0.0345  0.2964
 5270TIP3    H137225   4.536   4.591  11.053  1.7240 -2.5544  0.1950
 5270TIP3    H237226   4.593   4.568  10.914  1.8090  0.8878 -0.3833
 5271TIP3   OH237227   0.834   3.190  14.753 -0.1633  0.6390 -0.2016
 5271TIP3    H137228   0.801   3.280  14.758 -0.1350  0.6466 -0.1501
 5271TIP3    H237229   0.759   3.139  14.721 -0.7310  0.3905  1.4570
 5272TIP3   OH237230   2.285   6.193  11.829 -0.2819  0.2516  0.5668
 5272TIP3    H137231   2.267   6.182  11.922 -1.7522 -1.1894  0.1323
 5272TIP3    H237232   2.237   6.272  11.804  1.0355  1.3021  1.2414
 5273TIP3   OH237233   1.753   3.856   0.595 -0.8926 -0.2768  0.3422
 5273TIP3    H137234   1.765   3.949   0.615  0.2230 -0.3717  0.1719
 5273TIP3    H237235   1.813   3.810   0.653 -0.1146 -0.7646 -0.8165
 5274TIP3   OH237236   2.227   5.190   3.825  0.2842  0.0159  0.0171
 5274TIP3    H137237   2.287   5.200   3.752  0.6339  3.0406  0.6415
 5274TIP3    H237238   2.177   5.272   3.826 -2.1580 -1.4553  0.9946
 5275TIP3   OH237239   6.636   5.264   1.607 -0.1060  0.5061  0.5356
 5275TIP3    H137240   6.669   5.272   1.517 -0.2653  0.4425  0.4713
 5275TIP3    H237241   6.715   5.264   1.661 -0.0509  1.4202  0.4586
 5276TIP3   OH237242   2.455   1.731   6.649 -0.6171  0.2595  0.2805
 5276TIP3    H137243   2.446   1.646   6.606  0.6157  0.4311 -0.3424
 5276TIP3    H237244   2.549   1.749   6.647 -0.7473  1.1153  1.4328
 5277TIP3   OH237245   1.532   2.209  11.085  0.2725  0.5930  0.3074
 5277TIP3    H137246   1.460   2.246  11.034  0.8400  0.9370 -0.2623
 5277TIP3    H237247   1.611   2.239  11.039  0.7433 -2.0154 -0.6801
 5278TIP3   OH237248   1.534   0.827  14.877  0.4280 -0.5643 -0.4292
 5278TIP3    H137249   1.489   0.826  14.961  1.1290  0.4960 -0.0312
 5278TIP3    H237250   1.593   0.752  14.882  1.3453  0.1952  0.5325
 5279TIP3   OH237251   5.827   3.614  12.650  0.0803  0.1347 -0.1969
 5279TIP3    H137252   5.741   3.600  12.689  0.0032  0.6833 -0.1651
 5279TIP3    H237253   5.809   3.649  12.563  0.2633 -0.1237 -0.3362
 5280TIP3   OH237254   2.930   2.256  13.882  0.0064  0.3816 -0.2115
 5280TIP3    H137255   2.843   2.253  13.842 -0.0290 -3.0483 -0.0395
 5280TIP3    H237256   2.913   2.263  13.976 -0.1695 -1.6355 -0.0660
 5281TIP3   OH237257   0.223   2.718  12.743  0.0991  0.3003 -0.1609
 5281TIP3    H137258   0.194   2.704  12.653 -0.2536  2.9996 -0.4850
 5281TIP3    H237259   0.204   2.635  12.787 -1.8530 -0.2783 -2.0146
 5282TIP3   OH237260   0.588   5.558   0.046 -0.7791 -0.2696 -0.4578
 5282TIP3    H137261   0.582   5.545   0.140 -1.5275 -0.1153 -0.4760
 5282TIP3    H237262   0.590   5.654   0.035 -1.6918 -0.2682 -0.6451
 5283TIP3   OH237263   5.923   1.066   6.075 -0.2952  0.5332 -0.5951
 5283TIP3    H137264   5.939   1.095   5.985 -2.2275  1.4027 -0.6853
 5283TIP3    H237265   6.010   1.048   6.111  0.4577 -0.4245 -2.8319
 5284TIP3   OH237266   6.730   1.864   2.590 -0.5106 -0.8541  0.1095
 5284TIP3    H137267   6.805   1.889   2.644 -0.5946 -0.0902 -0.1135
 5284TIP3    H237268   6.761   1.788   2.540  1.1974  1.3191 -2.2552
 5285TIP3   OH237269   6.069   2.687  16.908  0.2589  0.0583  0.2938
 5285TIP3    H137270   6.130   2.721  16.843  0.6409 -0.6675  0.2684
 5285TIP3    H237271   6.073   2.592  16.897 -0.7275 -0.0035  0.4224
 5286TIP3   OH237272   0.458   3.712   1.781 -0.3634 -0.1940  0.0911
 5286TIP3    H137273   0.530   3.775   1.779 -0.2563 -0.3367 -0.5849
 5286TIP3    H237274   0.403   3.741   1.854  0.5948 -0.3271  0.8781
 5287TIP3   OH237275   5.077   2.012  14.390 -0.0403  0.0304  0.0252
 5287TIP3    H137276   5.161   1.998  14.434  1.4909  1.4851 -2.3396
 5287TIP3    H237277   5.057   2.104  14.403 -1.3506 -0.3269  0.6710
 5288TIP3   OH237278   0.623   4.473  11.778 -0.1395  0.1839 -0.1940
 5288TIP3    H137279   0.602   4.561  11.747 -0.7525 -0.4273 -1.5672
 5288TIP3    H237280   0.641   4.423  11.698 -1.0907 -1.2576  0.4656
 5289TIP3   OH237281   0.161   0.267   0.994  0.2102  0.3310  0.3271
 5289TIP3    H137282   0.248   0.291   1.026  0.4142  0.1210 -0.0631
 5289TIP3    H237283   0.102   0.327   1.039  0.3839 -0.6327  1.8752
 5290TIP3   OH237284   2.150   1.911   3.922  0.6943  0.1277  0.3430
 5290TIP3    H137285   2.216   1.844   3.905 -0.1824 -0.6578 -0.0683
 5290TIP3    H237286   2.181   1.957   3.999  0.7231 -1.5647  1.3714
 5291TIP3   OH237287   2.679   2.701  11.163 -0.4445 -0.3142 -0.1055
 5291TIP3    H137288   2.732   2.781  11.169 -1.3024  0.2913 -0.5131
 5291TIP3    H237289   2.626   2.714  11.084  2.2774 -3.0212 -2.4778
 5292TIP3   OH237290   4.064   0.976   3.295 -0.0800 -0.4311  0.1292
 5292TIP3    H137291   3.999   1.047   3.298  0.7122  0.3170 -0.1141
 5292TIP3    H237292   4.119   0.990   3.372 -0.1983 -1.0479  0.3234
 5293TIP3   OH237293   3.955   0.689   5.120 -0.1907 -0.1121 -0.6872
 5293TIP3    H137294   3.918   0.772   5.090 -1.2728  1.1332  3.6961
 5293TIP3    H237295   3.884   0.646   5.167  1.5196 -1.6728  0.5764
 5294TIP3   OH237296   5.459   2.701  11.324  0.4979 -0.3482  0.4027
 5294TIP3    H137297   5.468   2.759  11.248 -1.8615  1.0772  1.1324
 5294TIP3    H237298   5.417   2.622  11.289  1.7259 -0.7451 -0.2064
 5295TIP3   OH237299   1.899   2.847   3.871 -0.1130 -0.6187  0.2752
 5295TIP3    H137300   1.862   2.871   3.956 -1.4178  0.3714 -0.5505
 5295TIP3    H237301   1.929   2.930   3.834  0.3232 -1.0259 -0.2972
 5296TIP3   OH237302   3.513   0.420  13.476 -0.3346 -0.7357  0.6567
 5296TIP3    H137303   3.585   0.406  13.537  0.3229  0.4317  0.1654
 5296TIP3    H237304   3.516   0.514  13.456 -0.8922 -0.9990 -0.7297
 5297TIP3   OH237305   4.716   4.575  17.199  0.5587  0.1270  0.1979
 5297TIP3    H137306   4.763   4.647  17.241  2.7778 -1.2291  0.0716
 5297TIP3    H237307   4.704   4.510  17.268 -1.0225  0.3947  0.1923
 5298TIP3   OH237308   2.774   0.352  12.185 -0.1771  0.0864 -0.6976
 5298TIP3    H137309   2.848   0.412  12.197 -0.4844  0.5645 -1.1442
 5298TIP3    H237310   2.717   0.370  12.260 -0.4263  0.6003 -1.0009
 5299TIP3   OH237311   5.824   2.437  16.931 -0.1066 -0.3614 -0.3611
 5299TIP3    H137312   5.743   2.433  16.982  0.1618 -2.0376 -0.0421
 5299TIP3    H237313   5.804   2.497  16.859 -2.0436 -1.6701 -0.9641
 5300TIP3   OH237314   2.220   2.499   4.011  0.5826 -0.4699  0.0076
 5300TIP3    H137315   2.223   2.445   3.932 -2.1743  0.9224 -1.1082
 5300TIP3    H237316   2.161   2.452   4.070  0.8750 -0.3803  0.3743
 5301TIP3   OH237317   5.359   1.302  16.590 -0.6934 -0.7594  0.1097
 5301TIP3    H137318   5.378   1.373  16.529 -0.8339 -1.0543 -0.2741
 5301TIP3    H237319   5.357   1.344  16.676  1.4727 -0.6647  0.1429
 5302TIP3   OH237320   5.311   0.378  16.511 -0.1601  0.0903  0.2175
 5302TIP3    H137321   5.252   0.308  16.541 -0.7913  0.8266  0.7472
 5302TIP3    H237322   5.396   0.336  16.501 -0.1687 -0.4268  2.0684
 5303TIP3   OH237323   1.048   0.660  11.922  0.0128  0.0365  0.1421
 5303TIP3    H137324   1.052   0.751  11.949 -0.0297  0.2133 -0.4400
 5303TIP3    H237325   1.056   0.663  11.826  0.7022 -0.6077  0.1760
 5304TIP3   OH237326   4.693   5.524  17.007  0.1256 -0.1421 -0.7397
 5304TIP3    H137327   4.603   5.495  16.989  0.2834 -3.6993  3.5047
 5304TIP3    H237328   4.744   5.443  17.009  2.4572  1.3450  2.0639
 5305TIP3   OH237329   6.704   4.772   2.141  0.8909  0.1693 -0.2350
 5305TIP3    H137330   6.761   4.841   2.176  0.0128  0.3373  0.8937
 5305TIP3    H237331   6.703   4.788   2.047  3.0243 -0.0856 -0.3336
 5306TIP3   OH237332   2.685   4.116   5.429 -0.1257 -0.4063 -0.2086
 5306TIP3    H137333   2.657   4.046   5.488 -0.7916 -0.8936 -1.0848
 5306TIP3    H237334   2.698   4.192   5.486  0.5065 -1.2110  0.7334
 5307TIP3   OH237335   1.361   4.358   6.242 -0.0160 -0.2647 -0.2095
 5307TIP3    H137336   1.453   4.340   6.262  1.3653  1.0133 -4.6703
 5307TIP3    H237337   1.330   4.277   6.200 -0.4902 -0.1716 -0.0374
 5308TIP3   OH237338   0.371   2.478   0.722 -0.0001  0.0818 -0.2365
 5308TIP3    H137339   0.451   2.490   0.773 -0.8161 -1.7133  1.5354
 5308TIP3    H237340   0.398   2.494   0.632  2.4184 -0.7970  0.2851
 5309TIP3   OH237341   3.444   4.129   1.607  0.0284 -0.3043 -0.2136
 5309TIP3    H137342   3.515   4.109   1.668 -0.5030 -2.5348 -0.2930
 5309TIP3    H237343   3.436   4.051   1.552  0.8021  1.7972 -3.4873
 5310TIP3   OH237344   3.530   0.460  12.269 -0.0852  0.4852 -0.7597
 5310TIP3    H137345   3.482   0.380  12.250 -0.0551  0.0505  0.9421
 5310TIP3    H237346   3.485   0.497  12.346 -0.1437  2.1327 -1.5658
 5311TIP3   OH237347   5.766   5.178  15.634 -0.0297 -0.4004 -0.2034
 5311TIP3    H137348   5.825   5.107  15.609  1.2107  0.7817 -0.6545
 5311TIP3    H237349   5.781   5.191  15.727 -0.6326 -1.0634 -0.0083
 5312TIP3   OH237350   4.972   1.338  12.595 -0.1684 -0.2047 -0.1257
 5312TIP3    H137351   4.892   1.386  12.573  1.4183  2.2960 -0.6526
 5312TIP3    H237352   4.985   1.278  12.521 -0.8894  0.2303 -0.6114
 5313TIP3   OH237353   0.331   2.343  12.982 -0.6674 -0.2029 -0.8115
 5313TIP3    H137354   0.328   2.259  12.936 -2.1912 -1.0418  0.7498
 5313TIP3    H237355   0.276   2.401  12.929  0.0224 -0.3051 -1.6519
 5314TIP3   OH237356   2.519   0.990  17.007  0.1265 -0.0476 -0.2734
 5314TIP3    H137357   2.424   1.003  17.001  0.0534  0.2211  1.3582
 5314TIP3    H237358   2.529   0.895  17.017 -0.0258  0.0253  0.5847
 5315TIP3   OH237359   2.499   5.599  14.794 -0.2593 -0.7899  0.0439
 5315TIP3    H137360   2.591   5.623  14.783 -0.5172  0.3469  0.3929
 5315TIP3    H237361   2.500   5.503  14.793  0.5483 -0.8300 -3.1413
 5316TIP3   OH237362   5.089   5.858  15.561  0.5627  0.0104  0.0526
 5316TIP3    H137363   5.089   5.953  15.549  3.1553  0.4593  3.1690
 5316TIP3    H237364   5.163   5.827  15.510  0.7490 -0.1492  0.4201
 5317TIP3   OH237365   2.385   6.069   2.577 -0.4117 -0.1564 -0.4654
 5317TIP3    H137366   2.445   6.016   2.525 -0.8944 -0.8530 -0.3086
 5317TIP3    H237367   2.377   6.022   2.660 -1.5529 -0.3177 -0.6605
 5318TIP3   OH237368   5.874   3.836   0.545  0.4106  0.4521  0.2809
 5318TIP3    H137369   5.879   3.924   0.507  0.2269  0.5344  0.4529
 5318TIP3    H237370   5.864   3.851   0.639 -1.8903  0.2586  0.0722
 5319TIP3   OH237371   2.338   4.226  15.365 -0.4517 -0.5709  0.3031
 5319TIP3    H137372   2.351   4.149  15.421 -1.8041  0.2717  1.8239
 5319TIP3    H237373   2.245   4.244  15.370  0.2307  2.9022  2.3812
 5320TIP3   OH237374   0.259   1.809   3.355  0.0130 -0.1280  0.4372
 5320TIP3    H137375   0.174   1.853   3.366 -0.2792 -0.1156 -1.7246
 5320TIP3    H237376   0.309   1.867   3.298  1.1167 -0.6302  0.8928
 5321TIP3   OH237377   1.668   2.182   2.839 -0.4887 -0.1284 -0.9444
 5321TIP3    H137378   1.709   2.224   2.764 -3.3724  2.4226 -1.1709
 5321TIP3    H237379   1.729   2.199   2.912 -0.0659  1.6897 -1.6943
 5322TIP3   OH237380   2.887   0.109  12.529  0.4751  0.2950 -0.1891
 5322TIP3    H137381   2.930   0.189  12.559 -0.4078  0.5329  0.4900
 5322TIP3    H237382   2.800   0.113  12.570 -0.0492 -0.3537 -1.2276
 5323TIP3   OH237383   4.506   1.949  13.629  0.5135 -0.4311  0.4824
 5323TIP3    H137384   4.524   1.868  13.582  1.8863  0.5311 -0.6999
 5323TIP3    H237385   4.418   1.938  13.665 -0.4533 -1.2779 -2.1017
 5324TIP3   OH237386   6.572   4.800   3.005  0.0501 -0.6630 -0.1794
 5324TIP3    H137387   6.504   4.865   3.026  1.3421  0.1848  1.4780
 5324TIP3    H237388   6.645   4.823   3.062  1.4345 -2.0865 -1.3490
 5325TIP3   OH237389   3.933   4.870  14.910 -0.3316  0.5310 -0.1040
 5325TIP3    H137390   3.975   4.955  14.896 -0.7323  0.8108  0.3583
 5325TIP3    H237391   3.878   4.858  14.832 -1.3298  1.3385  0.4608
 5326TIP3   OH237392   4.766   0.942   3.736  0.1416  0.3181  0.1183
 5326TIP3    H137393   4.852   0.976   3.710 -0.5450  0.7492 -1.6269
 5326TIP3    H237394   4.785   0.854   3.770  1.4396  0.9433  1.0886
 5327TIP3   OH237395   5.175   5.372   2.591  0.1027  0.7552  0.3822
 5327TIP3    H137396   5.253   5.318   2.579 -0.4410  0.1420 -0.5104
 5327TIP3    H237397   5.156   5.367   2.684 -0.4952 -1.4024  0.1581
 5328TIP3   OH237398   0.233   0.755   3.929  0.6228 -0.0325  0.2205
 5328TIP3    H137399   0.148   0.735   3.966  1.3976 -2.8114  0.6301
 5328TIP3    H237400   0.282   0.794   4.001  0.5290 -0.8449  0.7274
 5329TIP3   OH237401   0.828   4.995   0.878 -0.8362 -0.8590  0.2827
 5329TIP3    H137402   0.851   4.914   0.832 -0.8142 -1.6906  1.7301
 5329TIP3    H237403   0.910   5.041   0.888 -0.6733 -1.1846  0.4563
 5330TIP3   OH237404   0.966   2.311  16.081 -0.3806  0.0932  0.2512
 5330TIP3    H137405   1.009   2.369  16.144 -0.4496 -0.9407  1.2695
 5330TIP3    H237406   0.913   2.252  16.135 -1.9851  0.4425 -0.9044
 5331TIP3   OH237407   6.553   4.544  13.831 -0.3441  0.7307 -0.4173
 5331TIP3    H137408   6.622   4.491  13.790 -1.2862 -0.8218 -0.0188
 5331TIP3    H237409   6.589   4.633  13.830  2.8954 -0.4462  2.3434
 5332TIP3   OH237410   1.251   2.778   0.840 -1.1789 -0.0400  0.3931
 5332TIP3    H137411   1.219   2.845   0.780 -0.0155  0.1115 -0.0698
 5332TIP3    H237412   1.177   2.761   0.898 -2.0994  0.2783 -0.6714
 5333TIP3   OH237413   2.422   2.928   1.240 -0.2546  0.1374  0.0762
 5333TIP3    H137414   2.498   2.961   1.193 -1.2581 -0.1034 -1.7765
 5333TIP3    H237415   2.444   2.938   1.333  1.3230  1.6392 -0.4424
 5334TIP3   OH237416   0.007   4.427   1.627  0.4490 -0.0946 -0.0481
 5334TIP3    H137417   0.022   4.501   1.568 -3.3824 -0.0658 -1.1214
 5334TIP3    H237418   0.029   4.349   1.575  1.8966  0.1128  0.2133
 5335TIP3   OH237419   3.548   6.238  16.733 -0.2190  0.4566  0.5543
 5335TIP3    H137420   3.616   6.208  16.793  0.9349 -1.8355 -1.8245
 5335TIP3    H237421   3.596   6.271  16.657 -1.7080  1.4504  0.0169
 5336TIP3   OH237422   3.626   6.547   2.998 -0.2596 -0.0207  0.1985
 5336TIP3    H137423   3.698   6.501   2.954 -0.4278  0.0024 -0.0953
 5336TIP3    H237424   3.570   6.578   2.927  0.5448  1.7850  0.3270
 5337TIP3   OH237425   5.078   6.502   4.425  1.1671 -0.7279  0.7312
 5337TIP3    H137426   4.994   6.512   4.470  0.3870  3.2796 -1.3541
 5337TIP3    H237427   5.057   6.450   4.347  0.6755  0.0503  0.3457
 5338TIP3   OH237428   3.628   1.674  14.642  0.6812 -0.0166  0.0784
 5338TIP3    H137429   3.658   1.726  14.568 -0.3777 -1.5154 -1.4599
 5338TIP3    H237430   3.681   1.594  14.638 -0.2675 -0.6599  0.1407
 5339TIP3   OH237431   4.995   6.139   5.144  0.5914 -0.1324  0.8461
 5339TIP3    H137432   5.084   6.164   5.169  1.2488 -0.6201 -0.8875
 5339TIP3    H237433   4.998   6.043   5.141  0.7512 -0.0881 -1.6747
 5340TIP3   OH237434   5.272   6.564  14.644  0.5038 -0.3662 -0.1940
 5340TIP3    H137435   5.219   6.632  14.602  2.5106  1.0032 -0.5641
 5340TIP3    H237436   5.259   6.487  14.590  0.0610  0.3544 -1.1249
 5341TIP3   OH237437   6.462   0.311   2.617  0.1785  0.2404  0.1098
 5341TIP3    H137438   6.486   0.220   2.600  2.2371  0.9013 -0.6923
 5341TIP3    H237439   6.372   0.319   2.584  0.6247 -1.0409 -1.5061
 5342TIP3   OH237440   3.214   3.995  13.405  0.3424 -0.5519 -0.5627
 5342TIP3    H137441   3.245   3.936  13.336  1.7917 -0.2861 -0.1382
 5342TIP3    H237442   3.243   3.954  13.486 -1.6549 -1.0448 -0.0455
 5343TIP3   OH237443   1.506   0.076   6.528 -0.4045 -0.1129  0.0905
 5343TIP3    H137444   1.517   0.048   6.437 -0.3480 -0.2576  0.1420
 5343TIP3    H237445   1.581   0.133   6.544  0.3814 -1.2288  0.4892
 5344TIP3   OH237446   1.861   4.095   1.651 -0.1258  0.0557 -0.0923
 5344TIP3    H137447   1.801   4.103   1.725  1.7635  1.0890  1.3838
 5344TIP3    H237448   1.880   4.186   1.626  1.4877 -0.2309  0.0492
 5345TIP3   OH237449   3.186   5.367  13.331  0.6099 -0.2608 -0.1537
 5345TIP3    H137450   3.100   5.407  13.343  0.4454 -0.6083 -0.1932
 5345TIP3    H237451   3.171   5.273  13.341  0.7312 -0.4370 -1.5325
 5346TIP3   OH237452   2.688   5.825   1.171  0.0200 -0.0501  0.5697
 5346TIP3    H137453   2.773   5.848   1.133  0.3508 -0.5817  0.9883
 5346TIP3    H237454   2.707   5.805   1.262 -0.3523 -1.4985  0.3381
 5347TIP3   OH237455   5.864   0.467  13.655 -1.1339 -0.2337  0.1341
 5347TIP3    H137456   5.816   0.526  13.598 -1.1456 -0.3443  0.0294
 5347TIP3    H237457   5.887   0.521  13.731 -1.7657 -0.2840  0.3672
 5348TIP3   OH237458   6.643   1.179  13.386 -0.7370 -0.1684  0.7603
 5348TIP3    H137459   6.589   1.132  13.450 -0.6562 -1.5656 -0.1539
 5348TIP3    H237460   6.706   1.114  13.356  0.5234  1.0454  0.7286
 5349TIP3   OH237461   5.650   4.524   1.479 -0.5155 -0.2315 -0.1598
 5349TIP3    H137462   5.610   4.611   1.466  3.1179  1.6855  0.7724
 5349TIP3    H237463   5.610   4.491   1.559 -0.0040  1.8093  0.9834
 5350TIP3   OH237464   5.873   4.936   1.677 -0.1820 -0.3873 -0.0596
 5350TIP3    H137465   5.914   4.878   1.612  0.1560  1.6140 -1.6955
 5350TIP3    H237466   5.931   4.934   1.752  0.0149 -1.8761 -0.2462
 5351TIP3   OH237467   2.325   1.123   6.507  0.1945  0.1808  0.3990
 5351TIP3    H137468   2.402   1.086   6.551  0.0749 -1.5331 -0.7514
 5351TIP3    H237469   2.261   1.137   6.576  0.2347 -1.8503  0.8658
 5352TIP3   OH237470   4.505   3.483   5.855 -0.0965  0.7805  0.4334
 5352TIP3    H137471   4.435   3.545   5.878 -0.3480  0.9467 -0.7408
 5352TIP3    H237472   4.460   3.399   5.845  0.1880  0.4789  1.6585
 5353TIP3   OH237473   2.764   4.886  12.806  0.7823 -0.4981  0.4723
 5353TIP3    H137474   2.786   4.846  12.890  0.5233 -2.4907 -0.3748
 5353TIP3    H237475   2.676   4.852  12.785  0.3727  0.8495 -0.0805
 5354TIP3   OH237476   6.202   0.730   2.188  0.6057  0.2045 -0.2919
 5354TIP3    H137477   6.267   0.687   2.133  1.7891 -0.7788  1.8050
 5354TIP3    H237478   6.221   0.824   2.180  0.0349  0.1613 -2.3964
 5355TIP3   OH237479   0.753   6.615   5.971  0.5827 -0.7278  0.2273
 5355TIP3    H137480   0.710   6.700   5.962  0.5450 -0.7439  0.2540
 5355TIP3    H237481   0.681   6.552   5.971  0.6172 -0.7671  0.1149
 5356TIP3   OH237482   1.891   6.095  16.633  0.1537  0.3519 -0.1573
 5356TIP3    H137483   1.845   6.094  16.549  0.2519  0.3421 -0.2113
 5356TIP3    H237484   1.822   6.112  16.698  0.0418  0.1099 -0.2148
 5357TIP3   OH237485   4.108   5.866   1.084 -0.5969 -0.2730  0.1079
 5357TIP3    H137486   4.181   5.811   1.114  0.8174  1.6263  0.2649
 5357TIP3    H237487   4.068   5.898   1.165  0.3264  1.1370  0.0223
 5358TIP3   OH237488   0.145   6.073  14.100  0.5155 -0.0923  0.3605
 5358TIP3    H137489   0.103   5.997  14.060  1.6629 -0.4234 -0.2360
 5358TIP3    H237490   0.216   6.036  14.153  0.5347  0.5158  0.7679
 5359TIP3   OH237491   1.585   6.142   4.234  0.3603  0.1400  0.1076
 5359TIP3    H137492   1.579   6.161   4.327 -2.3226  1.2067 -0.2560
 5359TIP3    H237493   1.511   6.085   4.215  1.4737 -0.9367 -1.1906
 5360TIP3   OH237494   2.854   0.137  15.765 -0.5193  0.4360 -0.0554
 5360TIP3    H137495   2.822   0.137  15.675 -1.3871 -2.0523  0.2327
 5360TIP3    H237496   2.786   0.093  15.815  0.8355  0.0705  1.5048
 5361TIP3   OH237497   3.919   4.549   5.557 -0.0156 -0.0071 -0.0462
 5361TIP3    H137498   3.964   4.634   5.554 -1.2926  0.6873  0.3505
 5361TIP3    H237499   3.885   4.537   5.468 -1.6025  0.8581  0.4442
 5362TIP3   OH237500   2.733   1.632  15.457 -0.1536 -0.4182 -0.1206
 5362TIP3    H137501   2.706   1.573  15.527  1.6812  0.4609  1.3775
 5362TIP3    H237502   2.712   1.719  15.490 -2.1233 -0.1469 -1.9961
 5363TIP3   OH237503   4.759   3.968  16.623  0.5645  0.1348  0.0063
 5363TIP3    H137504   4.847   3.979  16.661  0.3972 -0.8591  0.6933
 5363TIP3    H237505   4.768   3.895  16.562  0.0431 -0.4523  0.6260
 5364TIP3   OH237506   1.844   0.558  12.098 -0.0449  0.6902 -0.3548
 5364TIP3    H137507   1.878   0.531  12.183 -0.3861  0.7281 -0.2020
 5364TIP3    H237508   1.861   0.652  12.093  0.8768  0.5067 -0.7595
 5365TIP3   OH237509   1.156   4.068  12.665 -0.3259 -0.6685  0.0873
 5365TIP3    H137510   1.132   4.120  12.588 -0.4311  0.0209  0.5900
 5365TIP3    H237511   1.229   4.115  12.705 -0.7537 -0.6342  0.8340
 5366TIP3   OH237512   3.122   4.239   0.723 -0.3137  0.7716 -0.5314
 5366TIP3    H137513   3.201   4.185   0.723 -1.7610 -1.3997 -0.2217
 5366TIP3    H237514   3.113   4.267   0.632  1.3086  1.8282 -0.3999
 5367TIP3   OH237515   6.108   1.793  11.462  0.0107  0.1657 -0.0012
 5367TIP3    H137516   6.203   1.796  11.456 -0.0675 -1.7261 -4.2989
 5367TIP3    H237517   6.086   1.853  11.533  4.4156  0.0758  1.5774
 5368TIP3   OH237518   6.568   3.979  16.582 -0.6242 -0.4533  0.0355
 5368TIP3    H137519   6.533   4.063  16.609  1.0584  0.2748  0.0066
 5368TIP3    H237520   6.643   3.964  16.640 -0.4155 -1.5325 -0.4961
 5369TIP3   OH237521   3.565   0.293   6.038 -0.0388 -0.9422 -0.2556
 5369TIP3    H137522   3.531   0.372   5.996  0.5754 -0.2322  0.5606
 5369TIP3    H237523   3.576   0.318   6.130  1.9001 -1.3983 -0.3367
 5370TIP3   OH237524   5.408   6.155   1.099  0.0952 -0.4806  0.0566
 5370TIP3    H137525   5.370   6.086   1.154 -2.6258 -0.0722 -1.2468
 5370TIP3    H237526   5.457   6.108   1.032  2.0873 -1.0134  1.8242
 5371TIP3   OH237527   0.069   4.683  15.596  0.2625 -0.4659  0.2807
 5371TIP3    H137528   0.136   4.654  15.658 -2.5734 -0.1139  3.6022
 5371TIP3    H237529   0.014   4.606  15.583 -0.4820  0.1155 -0.0252
 5372TIP3   OH237530   4.377   4.998   6.433 -0.0134  1.1621  0.5391
 5372TIP3    H137531   4.325   5.017   6.354 -0.5780 -1.3870  0.2471
 5372TIP3    H237532   4.468   4.998   6.402 -0.1585  1.1633  0.1071
 5373TIP3   OH237533   3.287   0.358   3.451 -0.0340  0.1680 -0.3551
 5373TIP3    H137534   3.239   0.293   3.399 -0.6721  1.0821 -0.9149
 5373TIP3    H237535   3.264   0.337   3.542  1.9789 -2.1490 -0.3166
 5374TIP3   OH237536   1.523   1.833   3.737 -0.3299  0.0556 -0.1758
 5374TIP3    H137537   1.466   1.891   3.788  2.7342  2.6370  0.4471
 5374TIP3    H237538   1.573   1.784   3.803  0.0768 -0.2469 -0.7015
 5375TIP3   OH237539   0.894   6.561  13.131 -0.8028 -0.2986  0.6078
 5375TIP3    H137540   0.810   6.593  13.100 -0.7191  0.1061  0.8009
 5375TIP3    H237541   0.919   6.621  13.201 -0.1969 -0.2169  0.3261
 5376TIP3   OH237542   2.352   0.345   1.370  0.5625 -0.0695  0.0910
 5376TIP3    H137543   2.308   0.282   1.428  0.2411  2.3804  2.5770
 5376TIP3    H237544   2.435   0.302   1.348 -0.7025 -2.4346 -0.3048
 5377TIP3   OH237545   2.412   1.351  14.752  0.2547  0.2569  0.2241
 5377TIP3    H137546   2.500   1.375  14.723  0.7887 -1.5060  0.3599
 5377TIP3    H237547   2.382   1.289  14.685 -0.3950 -0.1133  0.8649
 5378TIP3   OH237548   2.131   5.164  13.407 -0.3516  0.0195  0.6953
 5378TIP3    H137549   2.035   5.160  13.408 -0.3970 -0.6948 -1.9450
 5378TIP3    H237550   2.159   5.086  13.455 -1.1014 -0.3711  0.5011
 5379TIP3   OH237551   4.171   6.150   4.904  0.3026  0.1176 -0.1606
 5379TIP3    H137552   4.103   6.122   4.965  2.2696 -1.4474  1.3754
 5379TIP3    H237553   4.251   6.110   4.937  1.7128  0.5770 -2.8644
 5380TIP3   OH237554   6.551   2.472   0.643 -0.4844  0.1596 -0.2657
 5380TIP3    H137555   6.562   2.567   0.650  0.0226  0.0904 -0.1061
 5380TIP3    H237556   6.526   2.457   0.552 -0.0432  0.3976 -0.4287
 5381TIP3   OH237557   5.128   2.252   6.738  0.7671  0.2360 -0.6014
 5381TIP3    H137558   5.038   2.265   6.710  1.0466  1.4193 -1.0027
 5381TIP3    H237559   5.158   2.339   6.763  1.3834 -0.3661  0.8099
 5382TIP3   OH237560   2.342   1.870   0.836  0.0245 -0.1278  0.2524
 5382TIP3    H137561   2.262   1.821   0.818 -0.9077  1.6064 -0.4813
 5382TIP3    H237562   2.316   1.936   0.900  0.4804  1.3445 -1.0269
 5383TIP3   OH237563   3.070   4.067   1.960 -0.4935  0.4381 -0.4434
 5383TIP3    H137564   3.114   4.151   1.950  1.5061 -0.3167  1.6066
 5383TIP3    H237565   3.086   4.021   1.877 -0.1462  1.4070 -0.9214
 5384TIP3   OH237566   3.311   1.727  12.560 -0.0105  0.2255  0.2247
 5384TIP3    H137567   3.221   1.760  12.551  0.1229  0.9685  1.4999
 5384TIP3    H237568   3.351   1.743  12.475 -1.6033 -1.7328 -0.9498
 5385TIP3   OH237569   1.392   0.355   2.798 -0.6405  0.1291 -0.1514
 5385TIP3    H137570   1.319   0.415   2.782 -1.4641 -0.2724  1.9727
 5385TIP3    H237571   1.417   0.370   2.889  0.5174 -1.2562 -0.2138
 5386TIP3   OH237572   3.902   0.586  14.660  0.4738  0.0576 -0.5460
 5386TIP3    H137573   3.892   0.632  14.743  0.0283 -2.7535  0.9963
 5386TIP3    H237574   3.990   0.548  14.664  0.1426 -0.7751 -0.9960
 5387TIP3   OH237575   6.610   1.664  12.332  0.2410 -0.1634 -0.2692
 5387TIP3    H137576   6.550   1.710  12.273 -1.1317 -1.4443  0.1010
 5387TIP3    H237577   6.638   1.588  12.282  0.7108 -0.1462 -0.0344
 5388TIP3   OH237578   1.607   6.275   4.696 -0.4266  0.7762 -0.1383
 5388TIP3    H137579   1.546   6.349   4.697 -1.6637 -0.2174 -0.0922
 5388TIP3    H237580   1.646   6.274   4.783 -0.5009  1.2904 -0.0972
 5389TIP3   OH237581   6.772   4.681   0.680  0.1769 -0.4196  0.1902
 5389TIP3    H137582   6.717   4.615   0.722 -0.1534  0.0826  0.5577
 5389TIP3    H237583   6.827   4.714   0.751 -0.4991  0.5467  0.2752
 5390TIP3   OH237584   0.194   4.964   1.064 -0.0477  0.3405  0.2367
 5390TIP3    H137585   0.274   5.016   1.060  0.5042 -0.4991  0.0984
 5390TIP3    H237586   0.123   5.027   1.051  0.6623  0.8766 -1.1030
 5391TIP3   OH237587   4.331   5.621  13.879 -0.5835 -0.1878 -0.1812
 5391TIP3    H137588   4.390   5.670  13.935 -1.3838  1.2212 -0.5673
 5391TIP3    H237589   4.301   5.684  13.814  0.5419 -1.8307 -2.3927
 5392TIP3   OH237590   2.569   5.277   0.059  0.3365 -0.8527 -0.0913
 5392TIP3    H137591   2.646   5.235   0.097 -0.1349 -1.0360  0.6824
 5392TIP3    H237592   2.544   5.219  -0.014  1.3331 -0.4157 -0.7938
 5393TIP3   OH237593   4.731   4.645  16.485  0.0550  0.1894  0.4977
 5393TIP3    H137594   4.764   4.616  16.570  0.2552 -0.9561  0.0362
 5393TIP3    H237595   4.681   4.570  16.452  2.8552 -0.7168 -1.9417
 5394TIP3   OH237596   2.170   5.999   5.519  0.9185  0.5968 -0.2276
 5394TIP3    H137597   2.194   5.908   5.503  0.9147  0.6390 -0.4904
 5394TIP3    H237598   2.097   6.015   5.458  0.5608  0.6158  0.2051
 5395TIP3   OH237599   2.746   5.688   0.420  0.4293  0.1518 -0.2212
 5395TIP3    H137600   2.738   5.775   0.458  0.2359  0.4507 -0.9337
 5395TIP3    H237601   2.707   5.697   0.333  0.5309 -0.6116 -0.3442
 5396TIP3   OH237602   0.239   2.266  14.711  0.5242 -0.2132  0.3694
 5396TIP3    H137603   0.212   2.343  14.759 -0.6932 -1.3427  1.5361
 5396TIP3    H237604   0.230   2.290  14.619 -0.8136  0.6946  0.7360
 5397TIP3   OH237605   1.657   1.863   4.740  0.0987  0.5689  0.2520
 5397TIP3    H137606   1.572   1.884   4.779 -0.1487  3.0042 -1.4581
 5397TIP3    H237607   1.637   1.843   4.649  1.3631  1.3277 -0.2092
 5398TIP3   OH237608   0.283   6.470  15.515 -0.3924 -0.1922 -0.0116
 5398TIP3    H137609   0.340   6.456  15.590 -0.3509  0.6356  0.1136
 5398TIP3    H237610   0.199   6.433  15.541 -0.5518  0.6401  0.6842
 5399TIP3   OH237611   4.027   1.622  14.610  0.4402  0.1458  0.3070
 5399TIP3    H137612   4.090   1.559  14.575 -0.6602 -0.4318 -0.6674
 5399TIP3    H237613   4.051   1.631  14.702  1.5947 -0.4862  0.0830
 5400TIP3   OH237614   5.439   2.005   0.555  0.4653  0.5398  0.5484
 5400TIP3    H137615   5.466   1.982   0.466 -2.9088  2.3912 -1.0231
 5400TIP3    H237616   5.466   2.096   0.565  0.0862  0.5869  1.1387
 5401TIP3   OH237617   5.361   0.286  10.894 -0.1886  0.2251 -0.5562
 5401TIP3    H137618   5.404   0.200  10.888 -0.3747  0.0751  0.2577
 5401TIP3    H237619   5.276   0.273  10.853 -0.1347  0.0726 -0.6212
 5402TIP3   OH237620   6.454   3.851   1.615  0.5244 -0.0046 -0.3820
 5402TIP3    H137621   6.397   3.927   1.608 -0.6231 -0.9340 -1.3615
 5402TIP3    H237622   6.486   3.835   1.526  0.4185 -0.9139 -0.2663
 5403TIP3   OH237623   6.592   5.475  12.441  0.1719 -0.2389 -0.4815
 5403TIP3    H137624   6.548   5.515  12.366 -0.3396  0.2110  0.0511
 5403TIP3    H237625   6.667   5.429  12.404  0.4832  0.8042 -1.1562
 5404TIP3   OH237626   6.460   6.723   4.449 -0.3864  0.0173  0.8044
 5404TIP3    H137627   6.462   6.808   4.493  0.6173 -0.5588  1.8890
 5404TIP3    H237628   6.551   6.703   4.429 -0.7836  0.0854 -1.2217
 5405TIP3   OH237629   0.777   2.655   1.323  0.2364 -0.4730 -0.2601
 5405TIP3    H137630   0.779   2.746   1.355  1.9562 -0.9100  0.9662
 5405TIP3    H237631   0.862   2.620   1.349 -0.1525 -2.2345 -1.3544
 5406TIP3   OH237632   4.559   0.588  14.327  0.0624  0.0732  0.0099
 5406TIP3    H137633   4.578   0.567  14.235 -0.9922  1.7765 -0.6170
 5406TIP3    H237634   4.645   0.585  14.370  0.7950  0.7201 -1.3580
 5407TIP3   OH237635   1.212   0.221   5.764 -0.0634  0.2379 -0.5842
 5407TIP3    H137636   1.242   0.303   5.724  0.8378  0.4278  0.4545
 5407TIP3    H237637   1.290   0.185   5.806 -0.7849 -0.4002  0.2345
 5408TIP3   OH237638   5.304   2.327  15.503  0.2711  0.5404  0.1297
 5408TIP3    H137639   5.341   2.369  15.425 -0.9154  0.7359 -0.3364
 5408TIP3    H237640   5.310   2.233  15.484  0.7142  0.5660  0.1421
 5409TIP3   OH237641   0.614   2.922   6.635  0.6859 -0.6220 -0.1587
 5409TIP3    H137642   0.638   3.011   6.611  0.0804 -0.3117  0.3592
 5409TIP3    H237643   0.697   2.876   6.645  1.1015  0.5129  1.9100
 5410TIP3   OH237644   3.837   2.600  12.418  0.1373  0.3528  0.5467
 5410TIP3    H137645   3.924   2.631  12.393 -0.4009  0.7511 -0.8767
 5410TIP3    H237646   3.798   2.569  12.336 -1.1037  0.2647  1.1555
 5411TIP3   OH237647   5.353   4.551   2.757 -0.0494 -0.4046 -0.3393
 5411TIP3    H137648   5.291   4.540   2.685  0.5678 -0.8628 -0.8093
 5411TIP3    H237649   5.406   4.471   2.755  0.6470  0.0433 -0.0395
 5412TIP3   OH237650   1.058   3.782  14.523  0.1067  0.5524  0.0141
 5412TIP3    H137651   1.081   3.703  14.474 -0.1799 -1.2376  2.6582
 5412TIP3    H237652   0.968   3.800  14.497 -0.3270 -0.8682  0.4729
 5413TIP3   OH237653   5.273   4.172   1.839 -0.0436  0.4642  0.4167
 5413TIP3    H137654   5.328   4.162   1.761 -0.5541 -0.0497  0.1161
 5413TIP3    H237655   5.185   4.183   1.805  0.1729  3.9727  0.8053
 5414TIP3   OH237656   3.075   1.638   0.566  0.1328  0.8306  0.1541
 5414TIP3    H137657   3.163   1.664   0.594  0.2315  0.5342  0.1218
 5414TIP3    H237658   3.089   1.562   0.510 -0.2679 -0.4149  1.6972
 5415TIP3   OH237659   3.437   4.349  17.127  0.1924 -0.1359 -0.1064
 5415TIP3    H137660   3.412   4.359  17.219  0.6199 -0.8425  0.0944
 5415TIP3    H237661   3.384   4.414  17.081 -1.4277 -1.0553  0.4143
 5416TIP3   OH237662   5.833   6.763   3.910  0.0922 -0.0779  0.1345
 5416TIP3    H137663   5.767   6.694   3.915 -0.7737  0.5207 -2.4241
 5416TIP3    H237664   5.916   6.718   3.920 -0.5375 -1.3041 -0.0836
 5417TIP3   OH237665   2.825   5.443  14.667 -0.0547  0.2364 -0.4367
 5417TIP3    H137666   2.884   5.419  14.738  1.7748 -0.5743 -2.2065
 5417TIP3    H237667   2.808   5.536  14.681  0.6464  0.1899  0.8030
 5418TIP3   OH237668   5.160   2.959  14.193 -0.6631 -0.1513  0.8802
 5418TIP3    H137669   5.138   3.046  14.226  1.1032  0.9799 -0.7857
 5418TIP3    H237670   5.254   2.964  14.173 -1.2768 -1.2344 -2.6854
 5419TIP3   OH237671   4.857   2.655  15.406 -0.0793  0.2576  0.0100
 5419TIP3    H137672   4.925   2.676  15.470  1.1393 -0.3812 -1.0681
 5419TIP3    H237673   4.777   2.692  15.444  0.5834 -0.2866  2.0066
 5420TIP3   OH237674   1.671   5.382  16.460 -0.0467 -0.3678 -0.5857
 5420TIP3    H137675   1.741   5.438  16.425 -1.2804  0.9140 -1.0720
 5420TIP3    H237676   1.655   5.319  16.390  1.0447 -1.0512 -0.2193
 5421TIP3   OH237677   5.874   0.760  14.684 -0.1547  0.1673  0.1905
 5421TIP3    H137678   5.782   0.758  14.657 -0.7032  2.0327  1.8226
 5421TIP3    H237679   5.901   0.668  14.684 -2.2743 -0.4803  0.5519
 5422TIP3   OH237680   4.183   6.467  16.268 -0.3146  0.2496 -0.3059
 5422TIP3    H137681   4.154   6.501  16.353  0.8204 -3.2755  1.6385
 5422TIP3    H237682   4.273   6.498  16.260 -0.1391 -0.1000  0.2286
 5423TIP3   OH237683   2.470   0.972   5.495  0.1494 -0.7385  0.0019
 5423TIP3    H137684   2.443   0.881   5.506 -0.2501 -0.5862  0.3561
 5423TIP3    H237685   2.525   0.973   5.418 -0.6783 -1.1130 -0.6023
 5424TIP3   OH237686   6.757   3.883   4.528  0.3764 -0.2820  1.1084
 5424TIP3    H137687   6.680   3.861   4.579 -0.6568 -0.9598 -0.6816
 5424TIP3    H237688   6.806   3.801   4.521  0.1567 -0.3652  0.4541
 5425TIP3   OH237689   0.504   2.709   2.182 -0.3099 -0.2695  0.1048
 5425TIP3    H137690   0.414   2.739   2.170  0.0513 -0.1587 -2.4997
 5425TIP3    H237691   0.549   2.785   2.221 -0.8300  0.4289 -0.6492
 5426TIP3   OH237692   1.553   4.319  15.102  0.2907 -0.3199 -0.8143
 5426TIP3    H137693   1.470   4.351  15.138  0.8806 -0.5579  0.7914
 5426TIP3    H237694   1.555   4.226  15.127  1.5586 -0.0433  0.1219
 5427TIP3   OH237695   3.155   5.676  12.813 -0.0218  0.1065 -0.0896
 5427TIP3    H137696   3.162   5.693  12.719 -0.3595  1.0656  0.0465
 5427TIP3    H237697   3.229   5.619  12.833  0.1157 -0.0126 -0.9221
 5428TIP3   OH237698   6.771   0.400  12.175 -0.1350  0.1345 -0.7162
 5428TIP3    H137699   6.839   0.462  12.201  1.0237 -0.8550 -1.3253
 5428TIP3    H237700   6.741   0.361  12.257  1.1614 -0.5809 -0.5727
 5429TIP3   OH237701   1.142   1.363   0.973 -0.2450  0.4599 -0.3389
 5429TIP3    H137702   1.092   1.290   0.936 -1.8480  1.4521 -0.1572
 5429TIP3    H237703   1.219   1.370   0.917 -0.8180 -0.4155 -1.2562
 5430TIP3   OH237704   1.423   4.200  13.563 -0.2443  0.0708 -0.5446
 5430TIP3    H137705   1.451   4.179  13.474  0.0658  2.6063 -1.0792
 5430TIP3    H237706   1.347   4.257  13.552  0.7390  1.6929  0.7557
 5431TIP3   OH237707   4.665   0.789  11.529  0.3570  0.0974 -0.0763
 5431TIP3    H137708   4.672   0.694  11.541 -0.2202  0.0563 -0.0313
 5431TIP3    H237709   4.571   0.805  11.521  0.5233  0.5125 -1.3236
 5432TIP3   OH237710   3.229   0.782   4.203 -0.5144  0.0805 -0.1858
 5432TIP3    H137711   3.300   0.801   4.142 -0.2271 -2.5703 -0.7519
 5432TIP3    H237712   3.164   0.734   4.151 -1.7227  0.5290  0.8555
 5433TIP3   OH237713   1.002   6.710  13.581  0.8171 -0.6723 -0.4101
 5433TIP3    H137714   1.077   6.719  13.641 -0.1865 -1.0907  0.9322
 5433TIP3    H237715   0.977   6.618  13.589  0.0751 -0.4970 -0.7549
 5434TIP3   OH237716   3.557   2.176   2.542 -0.5058 -0.2525 -0.7003
 5434TIP3    H137717   3.562   2.109   2.473 -1.2179  0.0319 -1.0320
 5434TIP3    H237718   3.490   2.143   2.602 -0.8170  0.1295 -0.8348
 5435TIP3   OH237719   5.355   4.903   4.832 -0.5913  0.6201  0.4195
 5435TIP3    H137720   5.437   4.946   4.857  1.0305 -2.3195  0.3110
 5435TIP3    H237721   5.361   4.892   4.738 -0.6952 -0.4527  0.5351
 5436TIP3   OH237722   5.160   4.580  14.682 -0.2989  0.1979 -0.0901
 5436TIP3    H137723   5.240   4.630  14.664 -1.4163  1.4371 -1.6569
 5436TIP3    H237724   5.170   4.553  14.774  1.4402  1.2271  0.0529
 5437TIP3   OH237725   6.432   0.120   0.416  0.0849  0.3645  0.0258
 5437TIP3    H137726   6.337   0.120   0.421  0.0918 -1.2463  0.5384
 5437TIP3    H237727   6.461   0.146   0.504  0.1253  1.8912 -0.4286
 5438TIP3   OH237728   5.630   0.900  10.927 -0.2315 -0.1181 -0.0249
 5438TIP3    H137729   5.673   0.932  11.006 -0.5501 -2.1810  1.0131
 5438TIP3    H237730   5.700   0.890  10.863  0.0004  1.7530 -0.0987
 5439TIP3   OH237731   0.467   4.916   1.718  0.3813 -0.0778 -0.3473
 5439TIP3    H137732   0.419   4.979   1.665  0.9714 -0.4857 -1.3843
 5439TIP3    H237733   0.541   4.964   1.752  0.9353 -0.2457 -1.2922
 5440TIP3   OH237734   5.173   4.927  17.082  0.2116  0.1000 -0.0916
 5440TIP3    H137735   5.124   4.845  17.089  0.7066 -0.3668 -1.7699
 5440TIP3    H237736   5.109   4.996  17.101 -0.5933 -0.6116 -0.2268
 5441TIP3   OH237737   6.111   6.471  11.283 -0.1101 -0.2182  0.4907
 5441TIP3    H137738   6.092   6.429  11.367 -2.0063  1.7176  1.0749
 5441TIP3    H237739   6.100   6.564  11.299  0.9441  0.2968 -1.5507
 5442TIP3   OH237740   3.086   2.753   3.815 -0.3599  0.3814 -0.0926
 5442TIP3    H137741   3.029   2.787   3.746 -1.5564 -1.2596  0.0587
 5442TIP3    H237742   3.136   2.684   3.772  0.4016  0.7633  0.1764
 5443TIP3   OH237743   1.065   2.091  14.954 -0.2562  0.4090  0.3315
 5443TIP3    H137744   0.987   2.075  15.007 -1.3374  1.1548 -0.9896
 5443TIP3    H237745   1.068   2.016  14.893 -0.0023  0.4435  0.3014
 5444TIP3   OH237746   6.356   1.513  15.071 -0.1479 -0.3134 -0.7165
 5444TIP3    H137747   6.436   1.470  15.103 -0.4234  0.5808  1.2699
 5444TIP3    H237748   6.350   1.592  15.124 -4.0580 -1.9497  1.4849
 5445TIP3   OH237749   2.225   5.454  14.916 -0.2364 -0.3642  0.1068
 5445TIP3    H137750   2.161   5.525  14.922 -1.0809 -1.2195  1.7762
 5445TIP3    H237751   2.304   5.489  14.958  0.0489  0.3044 -0.9615
 5446TIP3   OH237752   3.468   3.285   1.175 -0.4049 -0.2683  0.1620
 5446TIP3    H137753   3.529   3.264   1.245 -0.0670  0.4519  0.0890
 5446TIP3    H237754   3.463   3.205   1.123  0.8620 -0.1804 -0.1114
 5447TIP3   OH237755   3.691   4.223   1.298  0.3919  0.0042  0.6525
 5447TIP3    H137756   3.775   4.200   1.337  0.4472  0.1473  0.6147
 5447TIP3    H237757   3.635   4.148   1.318 -0.7855  1.7657  4.5446
 5448TIP3   OH237758   3.462   2.242  12.936  0.0795  0.2322  0.4318
 5448TIP3    H137759   3.368   2.250  12.947 -0.0978 -1.6351  0.3963
 5448TIP3    H237760   3.498   2.275  13.019 -0.5844  1.0148  0.4209
 5449TIP3   OH237761   3.187   6.297  12.446  0.5614 -0.0546  0.2955
 5449TIP3    H137762   3.110   6.246  12.469 -0.4107  1.3305  0.2215
 5449TIP3    H237763   3.209   6.270  12.357  0.8809 -1.2970  0.7432
 5450TIP3   OH237764   6.137   2.619   4.375 -0.1130  0.3008 -0.1787
 5450TIP3    H137765   6.043   2.621   4.359  0.0107 -0.3612 -0.9982
 5450TIP3    H237766   6.173   2.570   4.301  0.6091 -1.7115  1.4568
 5451TIP3   OH237767   3.671   5.382  10.688 -0.0025  0.0969  0.7703
 5451TIP3    H137768   3.766   5.392  10.690 -0.0125  0.0360  1.4994
 5451TIP3    H237769   3.637   5.470  10.703 -0.0593  0.1551  0.2991
 5452TIP3   OH237770   3.016   1.333   5.796 -0.5385  0.1137  0.1298
 5452TIP3    H137771   3.025   1.259   5.736  2.6273 -1.1540  2.0210
 5452TIP3    H237772   3.013   1.293   5.883  1.0994  2.1953  1.1854
 5453TIP3   OH237773   1.251   0.724  13.976 -0.3314  0.3811 -0.3305
 5453TIP3    H137774   1.217   0.743  14.063 -1.9595 -0.2147 -0.8114
 5453TIP3    H237775   1.210   0.641  13.952 -0.1163  0.6776 -1.7786
 5454TIP3   OH237776   4.334   3.329  13.776  0.7545  0.0167  0.1455
 5454TIP3    H137777   4.301   3.418  13.762 -0.0956 -0.0045  1.8650
 5454TIP3    H237778   4.406   3.340  13.839  1.9357 -0.3059 -1.1257
 5455TIP3   OH237779   2.502   3.284   2.298  0.4287  0.3356 -0.4701
 5455TIP3    H137780   2.472   3.268   2.387 -0.4279 -1.0670 -0.9927
 5455TIP3    H237781   2.446   3.355   2.266 -0.1209 -0.0176 -0.3073
 5456TIP3   OH237782   0.649   1.907  14.723 -0.0796  0.5425  0.0490
 5456TIP3    H137783   0.689   1.921  14.637 -0.2151  1.4042  0.1199
 5456TIP3    H237784   0.571   1.854  14.705  0.4395 -0.1271 -0.2348
 5457TIP3   OH237785   2.948   1.069   3.601 -0.5731  0.3765  0.3349
 5457TIP3    H137786   3.024   1.035   3.554 -0.9489 -0.3687  0.2645
 5457TIP3    H237787   2.877   1.066   3.537 -0.5113  1.7474  0.1728
 5458TIP3   OH237788   4.393   3.261  13.283  0.5025 -0.2715 -0.3114
 5458TIP3    H137789   4.486   3.241  13.297  0.1818 -1.5361  0.0625
 5458TIP3    H237790   4.353   3.247  13.369 -0.0662  0.1320 -0.5094
 5459TIP3   OH237791   4.793   4.546   5.139  0.5828  0.2879 -0.0230
 5459TIP3    H137792   4.779   4.453   5.117  1.8024 -0.2300  1.3126
 5459TIP3    H237793   4.779   4.551   5.233 -1.5224  1.8868 -0.3909
 5460TIP3   OH237794   2.693   2.189  14.822  0.1571 -0.3465 -0.3525
 5460TIP3    H137795   2.652   2.103  14.820  1.6903 -1.1660  2.1210
 5460TIP3    H237796   2.786   2.171  14.829  0.4437  1.4969  0.9575
 5461TIP3   OH237797   1.661   0.818   3.092  0.3634 -0.4619 -0.3153
 5461TIP3    H137798   1.610   0.885   3.138 -0.3507 -1.6228  0.6301
 5461TIP3    H237799   1.750   0.850   3.092  0.0921  0.2992  0.4907
 5462TIP3   OH237800   6.728   5.864  14.049  0.7195  0.1225 -0.9608
 5462TIP3    H137801   6.664   5.794  14.063 -0.4187  0.7170 -3.0120
 5462TIP3    H237802   6.728   5.878  13.955  2.3539  1.5898 -0.7669
 5463TIP3   OH237803   1.725   0.162  15.781  0.0125  0.0437 -0.1370
 5463TIP3    H137804   1.641   0.197  15.752 -0.9866 -0.8474  1.6221
 5463TIP3    H237805   1.755   0.222  15.848 -0.7761 -1.3673  1.5100
 5464TIP3   OH237806   3.504   4.682  13.821  0.7690 -0.0719 -0.3476
 5464TIP3    H137807   3.444   4.688  13.896  3.6528 -0.5974  2.1178
 5464TIP3    H237808   3.532   4.772  13.806  2.3389 -0.2824  1.1131
 5465TIP3   OH237809   5.240   1.368  15.031  0.6605 -0.3324  0.2280
 5465TIP3    H137810   5.334   1.355  15.043  0.5483 -1.5185 -0.1350
 5465TIP3    H237811   5.222   1.334  14.944  0.1938  1.5440 -0.4277
 5466TIP3   OH237812   4.760   2.551   3.052 -0.4807  0.1475 -0.8633
 5466TIP3    H137813   4.800   2.630   3.015 -0.5998  1.7141  2.2141
 5466TIP3    H237814   4.671   2.549   3.016 -0.4472  1.3754 -1.0131
 5467TIP3   OH237815   6.542   0.999   5.032  0.1722  0.0140 -0.5584
 5467TIP3    H137816   6.589   0.933   4.982  1.1789  0.5635 -0.3660
 5467TIP3    H237817   6.611   1.053   5.070 -0.6079  0.3568  0.3942
 5468TIP3   OH237818   6.397   3.273   1.965 -0.2176 -0.1970 -0.2640
 5468TIP3    H137819   6.359   3.360   1.960  0.2873  0.0087 -0.5757
 5468TIP3    H237820   6.454   3.276   2.042  2.8730  1.0059 -2.4564
 5469TIP3   OH237821   0.809   0.551   2.767 -0.7075 -0.2439 -0.1956
 5469TIP3    H137822   0.833   0.462   2.742 -1.5004 -0.5323  0.0674
 5469TIP3    H237823   0.726   0.542   2.814  0.4632  0.3465  2.0575
 5470TIP3   OH237824   3.569   5.493  13.398 -0.2417 -0.5174  0.2506
 5470TIP3    H137825   3.642   5.502  13.337 -0.6712  2.1435  0.0745
 5470TIP3    H237826   3.518   5.419  13.363  0.2416  0.1243 -1.8890
 5471TIP3   OH237827   2.521   3.767   1.057  0.5381  0.4730  0.1689
 5471TIP3    H137828   2.504   3.775   1.151 -0.5625  0.3966 -0.0136
 5471TIP3    H237829   2.511   3.856   1.023 -0.3644  0.2859 -0.0725
 5472TIP3   OH237830   0.644   2.878   5.724  0.3374 -0.6641 -0.0850
 5472TIP3    H137831   0.566   2.842   5.683 -0.5760 -0.1995  1.2032
 5472TIP3    H237832   0.616   2.963   5.759  1.4304 -0.4625  0.3166
 5473TIP3   OH237833   4.126   2.001  11.278  0.7470  0.7281  0.3562
 5473TIP3    H137834   4.088   2.040  11.356  0.6715  1.9990 -0.3132
 5473TIP3    H237835   4.166   1.920  11.310 -0.1447  0.7333  1.5311
 5474TIP3   OH237836   1.295   0.322   0.206  0.3511 -0.5336 -0.4507
 5474TIP3    H137837   1.211   0.288   0.238 -0.0265  0.0669 -0.8030
 5474TIP3    H237838   1.287   0.417   0.214 -0.0679 -0.3026 -3.0850
 5475TIP3   OH237839   5.683   2.959  11.746  0.0052 -1.2588 -0.0315
 5475TIP3    H137840   5.642   3.010  11.816 -0.3994 -1.9292  0.2301
 5475TIP3    H237841   5.746   3.019  11.705 -0.5458 -0.5277  0.1953
 5476TIP3   OH237842   5.851   0.430  12.151 -0.6524  0.1304 -0.2562
 5476TIP3    H137843   5.833   0.523  12.136  1.4002  0.4708 -0.7601
 5476TIP3    H237844   5.914   0.429  12.223  0.1586 -0.8044 -0.9596
 5477TIP3   OH237845   3.692   5.940   1.754  0.4893 -0.1090 -0.0828
 5477TIP3    H137846   3.744   5.885   1.813  0.4341  0.3578  0.4056
 5477TIP3    H237847   3.697   6.027   1.792 -1.2400 -0.1830  0.3625
 5478TIP3   OH237848   1.657   6.272   0.691  0.1064 -0.3214 -0.1921
 5478TIP3    H137849   1.602   6.270   0.613 -1.2124 -0.9140  0.7280
 5478TIP3    H237850   1.602   6.237   0.761  2.2775 -2.7667  0.3851
 5479TIP3   OH237851   0.703   0.187  12.977 -0.1672 -0.3777 -0.2355
 5479TIP3    H137852   0.762   0.229  12.915  1.0966  0.6014  1.6081
 5479TIP3    H237853   0.699   0.096  12.948  0.4573  0.0361 -1.6876
 5480TIP3   OH237854   6.110   4.025  16.140 -0.1115 -0.1784  0.3047
 5480TIP3    H137855   6.140   4.091  16.077  0.6971 -0.6992  0.1299
 5480TIP3    H237856   6.034   3.985  16.099  0.2702 -0.3507 -0.2471
 5481TIP3   OH237857   1.185   4.605   2.730 -0.5377 -0.4502 -0.4746
 5481TIP3    H137858   1.101   4.649   2.719  0.4216  0.9904 -2.3814
 5481TIP3    H237859   1.216   4.591   2.641  1.5185 -0.4285  0.2213
 5482TIP3   OH237860   1.507   2.140  14.438  0.6575 -0.2913 -0.4761
 5482TIP3    H137861   1.429   2.171  14.391  1.1987  0.7923 -0.6939
 5482TIP3    H237862   1.577   2.147  14.373  1.1665 -0.0453  0.0967
 5483TIP3   OH237863   3.723   4.238   3.282  0.2392 -0.3549 -0.0695
 5483TIP3    H137864   3.729   4.332   3.298 -2.0925 -0.3111  0.8337
 5483TIP3    H237865   3.802   4.216   3.234  1.5063  1.8057  0.9752
 5484TIP3   OH237866   5.377   3.090  13.889  0.4091 -0.2509  0.5858
 5484TIP3    H137867   5.379   3.182  13.915  0.0231 -0.2241  0.5140
 5484TIP3    H237868   5.433   3.046  13.953 -1.8563 -0.4601  2.4831
 5485TIP3   OH237869   4.846   4.403  14.260 -0.2749  0.1378 -0.2536
 5485TIP3    H137870   4.847   4.413  14.165  0.0429  1.3126 -0.1305
 5485TIP3    H237871   4.935   4.427  14.287 -0.2579 -0.5380  0.3125
 5486TIP3   OH237872   3.747   2.691   0.373  0.8524 -0.1249 -0.1785
 5486TIP3    H137873   3.718   2.603   0.347 -1.3334  0.5070  0.0423
 5486TIP3    H237874   3.802   2.676   0.450 -0.2319 -1.2280  0.3872
 5487TIP3   OH237875   1.406   5.020   4.169  0.0369 -0.2202  0.5642
 5487TIP3    H137876   1.344   4.985   4.233  0.8893 -0.5573  1.2242
 5487TIP3    H237877   1.455   4.944   4.139  0.3556  0.0897  0.2918
 5488TIP3   OH237878   0.691   3.951  11.125  0.3282 -0.6221  0.2033
 5488TIP3    H137879   0.691   4.040  11.161  1.0384 -0.9172  0.9447
 5488TIP3    H237880   0.641   3.899  11.188 -0.8504 -0.5830 -0.6770
 5489TIP3   OH237881   3.601   4.455   4.829  0.6289 -0.1772 -0.0040
 5489TIP3    H137882   3.586   4.548   4.814 -2.3653 -0.2097  2.2375
 5489TIP3    H237883   3.598   4.415   4.743  0.1218  1.5539 -0.8043
 5490TIP3   OH237884   0.644   2.354   0.722 -0.1195 -0.6349  0.4504
 5490TIP3    H137885   0.613   2.330   0.635  2.9692 -1.8449 -0.3722
 5490TIP3    H237886   0.685   2.439   0.711  0.9168 -1.1096  0.5327
 5491TIP3   OH237887   6.083   6.650  16.789  0.4230  0.1803 -0.4122
 5491TIP3    H137888   6.110   6.741  16.787  0.3113  0.1946 -2.3639
 5491TIP3    H237889   6.003   6.649  16.841 -0.2082  1.3950 -1.3270
 5492TIP3   OH237890   5.321   4.809   0.876  0.3595  0.8907  0.5611
 5492TIP3    H137891   5.365   4.763   0.805 -0.6251  0.6820  0.0712
 5492TIP3    H237892   5.390   4.861   0.918  0.6513  2.3253 -1.5934
 5493TIP3   OH237893   2.640   2.509   3.445  0.2261  0.1167 -0.1977
 5493TIP3    H137894   2.709   2.568   3.477 -0.7412  0.4599  1.2804
 5493TIP3    H237895   2.656   2.504   3.350  0.1022  3.1015 -0.4372
 5494TIP3   OH237896   4.369   1.932  12.408  0.8201  0.1209  0.2241
 5494TIP3    H137897   4.311   2.007  12.421  0.8759  0.5250 -1.6923
 5494TIP3    H237898   4.314   1.856  12.429  0.5820  0.6603  1.5773
 5495TIP3   OH237899   6.075   0.493   1.734  0.2096  0.5017  0.5580
 5495TIP3    H137900   6.134   0.445   1.792 -1.1317 -1.7576  0.1345
 5495TIP3    H237901   6.018   0.543   1.792  1.5189  1.4727  1.0200
 5496TIP3   OH237902   4.531   6.721  16.048 -0.0270 -0.0228  0.5446
 5496TIP3    H137903   4.459   6.718  16.111  1.4398 -0.4231  2.2440
 5496TIP3    H237904   4.594   6.781  16.086  1.5426 -1.4137  0.2048
 5497TIP3   OH237905   5.057   2.676   5.324  0.2879 -0.3235 -0.7428
 5497TIP3    H137906   4.962   2.670   5.338  0.2148  0.2179 -1.0002
 5497TIP3    H237907   5.080   2.764   5.354  0.7721 -0.5932 -0.3191
 5498TIP3   OH237908   2.769   3.110  12.172 -0.6103 -0.0208  0.2564
 5498TIP3    H137909   2.835   3.119  12.241  0.9011 -0.3241 -1.1257
 5498TIP3    H237910   2.709   3.183  12.186  0.1936  0.4335  1.3554
 5499TIP3   OH237911   3.269   5.444   2.213 -0.3703 -0.4833  0.0019
 5499TIP3    H137912   3.183   5.481   2.232 -0.8964 -1.7486  0.1621
 5499TIP3    H237913   3.261   5.351   2.238  0.6340 -0.9137 -1.2210
 5500TIP3   OH237914   4.886   5.056  16.070 -0.8082  0.1564 -0.2132
 5500TIP3    H137915   4.884   5.007  16.152  2.6844  0.6527  0.2536
 5500TIP3    H237916   4.913   4.992  16.004 -0.7528  0.4199 -0.4475
 5501TIP3   OH237917   4.868   4.695   5.925 -0.5034  0.0784  0.2345
 5501TIP3    H137918   4.945   4.643   5.952 -0.2710 -0.2770 -1.0871
 5501TIP3    H237919   4.871   4.694   5.830 -1.6294  0.8703  0.1881
 5502TIP3   OH237920   3.329   3.414  11.354  0.2784 -0.2585 -0.3639
 5502TIP3    H137921   3.413   3.441  11.316  0.8018 -0.1177  0.8631
 5502TIP3    H237922   3.318   3.324  11.325  0.9409 -0.3332 -0.4050
 5503TIP3   OH237923   0.327   3.217   0.777 -0.6015  0.3251  0.1614
 5503TIP3    H137924   0.347   3.127   0.752 -1.6584  0.5425 -1.4578
 5503TIP3    H237925   0.251   3.209   0.835 -0.6761  0.1724  0.0441
 5504TIP3   OH237926   4.743   1.412   2.973  0.1873  0.0737  0.2013
 5504TIP3    H137927   4.814   1.433   3.034 -0.3584  1.8432  0.2641
 5504TIP3    H237928   4.666   1.401   3.029 -0.6386  3.1904 -0.2252
 5505TIP3   OH237929   2.858   4.348  13.874 -0.2209 -0.2724 -0.1177
 5505TIP3    H137930   2.944   4.370  13.837  0.3619 -0.5689  1.0474
 5505TIP3    H237931   2.853   4.400  13.955 -0.3456 -1.6942  0.7916
 5506TIP3   OH237932   4.106   6.177   0.114 -0.2676 -0.3184  0.3824
 5506TIP3    H137933   4.048   6.194   0.188  0.4372  0.1364  0.8473
 5506TIP3    H237934   4.139   6.089   0.129  1.3652  0.4747  1.6702
 5507TIP3   OH237935   0.303   2.481  17.060 -0.4715  0.3909  0.1294
 5507TIP3    H137936   0.215   2.506  17.032  0.3256  1.9046 -1.0829
 5507TIP3    H237937   0.308   2.387  17.040 -1.8417  0.2621  0.3220
 5508TIP3   OH237938   1.067   3.774   4.312  0.2874  0.1788  0.0044
 5508TIP3    H137939   0.995   3.717   4.287  1.0130 -1.0406  0.6618
 5508TIP3    H237940   1.042   3.860   4.279 -1.6911 -0.1241  0.6236
 5509TIP3   OH237941   4.718   1.653  16.657 -0.5818  0.5171  0.2252
 5509TIP3    H137942   4.734   1.748  16.651 -0.8458  0.5036 -0.9203
 5509TIP3    H237943   4.746   1.629  16.745  2.1110  1.1636 -0.4189
 5510TIP3   OH237944   5.279   6.160  15.587 -0.2382 -0.4528 -0.0922
 5510TIP3    H137945   5.303   6.117  15.505 -1.2366 -0.1986 -0.5299
 5510TIP3    H237946   5.183   6.154  15.590 -0.3302  1.0480  0.2259
 5511TIP3   OH237947   2.659   6.216  11.285  0.3203 -0.0738  0.1329
 5511TIP3    H137948   2.580   6.233  11.336  0.0367  0.8726 -0.5963
 5511TIP3    H237949   2.715   6.292  11.302  0.9494 -0.5992  0.4113
 5512TIP3   OH237950   3.631   2.264  15.939 -0.0858  0.2831 -0.3742
 5512TIP3    H137951   3.697   2.199  15.915  0.7882  0.6164  1.0355
 5512TIP3    H237952   3.626   2.322  15.863  0.1423 -0.6139 -1.0911
 5513TIP3   OH237953   1.481   4.981  13.316  0.9794  0.3715  0.0923
 5513TIP3    H137954   1.427   4.912  13.278 -0.8969  0.9155  1.6766
 5513TIP3    H237955   1.560   4.936  13.346  1.2254 -0.5185 -1.8245
 5514TIP3   OH237956   5.406   2.651   4.910 -0.2140 -0.1929 -0.2020
 5514TIP3    H137957   5.352   2.688   4.979  1.7930  0.2435  1.1624
 5514TIP3    H237958   5.467   2.721   4.887  0.6507 -1.1203 -0.7695
 5515TIP3   OH237959   6.028   5.359  13.637  0.1319  0.1234  0.6590
 5515TIP3    H137960   6.052   5.449  13.613  1.0970  0.2082  1.8579
 5515TIP3    H237961   6.003   5.365  13.729 -1.8309 -0.4890  0.1837
 5516TIP3   OH237962   1.174   3.963   1.598  0.3826 -0.2034  0.0910
 5516TIP3    H137963   1.220   3.885   1.568  2.4198  1.2435 -0.6522
 5516TIP3    H237964   1.105   3.978   1.533  0.6941 -0.7327 -0.3584
 5517TIP3   OH237965   6.736   2.080   4.168 -0.1782 -0.0359  0.4599
 5517TIP3    H137966   6.675   2.028   4.115 -0.5237 -0.1311  0.9499
 5517TIP3    H237967   6.750   2.028   4.247  0.3411  0.1063  0.4650
 5518TIP3   OH237968   6.296   2.605  14.505  0.0415 -0.2965  0.1700
 5518TIP3    H137969   6.366   2.562  14.455  0.3483 -0.2232  0.5321
 5518TIP3    H237970   6.218   2.553  14.486  0.1734 -0.3247 -0.3116
 5519TIP3   OH237971   3.518   6.425   6.013  0.0810 -0.0138  0.5839
 5519TIP3    H137972   3.586   6.492   6.013  0.7038 -0.5253 -2.7972
 5519TIP3    H237973   3.560   6.349   5.973 -1.8732 -0.9910  0.3421
 5520TIP3   OH237974   0.892   1.851   2.447 -0.9091  0.0803  0.4846
 5520TIP3    H137975   0.929   1.853   2.358 -0.8325  1.9294  0.5574
 5520TIP3    H237976   0.866   1.759   2.458  2.7466 -1.1240  0.0813
 5521TIP3   OH237977   5.097   2.534  15.556 -0.0033 -0.4288 -0.1079
 5521TIP3    H137978   5.151   2.455  15.546  0.6480 -0.0831  0.6467
 5521TIP3    H237979   5.145   2.602  15.508  1.8296  0.6170  3.0021
 5522TIP3   OH237980   4.742   3.303  11.757  0.4745  0.2138 -0.5266
 5522TIP3    H137981   4.735   3.398  11.750  1.8867  0.4903  1.4940
 5522TIP3    H237982   4.761   3.287  11.849 -3.2181 -2.2702 -0.0617
 5523TIP3   OH237983   2.493   3.817  16.723 -0.0755  0.4251 -0.6879
 5523TIP3    H137984   2.572   3.802  16.775 -0.6708  1.7497  0.6637
 5523TIP3    H237985   2.434   3.746  16.747 -0.5277  1.2920  0.8693
 5524TIP3   OH237986   5.420   1.836  12.000 -0.6807  0.2674  0.1025
 5524TIP3    H137987   5.395   1.761  11.946 -1.0212  0.6508 -0.2791
 5524TIP3    H237988   5.489   1.880  11.949 -2.0484  1.4851 -0.7541
 5525TIP3   OH237989   3.412   1.370  16.887 -0.0348 -0.0992  0.8939
 5525TIP3    H137990   3.429   1.460  16.914 -0.6206  1.0702 -2.3346
 5525TIP3    H237991   3.331   1.375  16.837  0.4711 -2.2417 -0.2169
 5526TIP3   OH237992   6.374   0.046   3.589 -0.1097  0.5127  0.0893
 5526TIP3    H137993   6.310   0.054   3.659 -0.9935 -2.5976 -0.2937
 5526TIP3    H237994   6.322   0.020   3.512  1.3087  0.2747 -0.8054
 5527TIP3   OH237995   6.263   0.039   1.305  0.2000  0.4506 -0.0561
 5527TIP3    H137996   6.227   0.119   1.344  1.4022  1.1044 -0.2441
 5527TIP3    H237997   6.329   0.010   1.368 -1.1162 -1.1027  0.6091
 5528TIP3   OH237998   2.008   0.184  15.132 -0.1256  0.0782  0.1631
 5528TIP3    H137999   1.998   0.090  15.113 -2.1646  0.2187  0.4293
 5528TIP3    H238000   1.976   0.193  15.221 -1.2462  1.2539 -0.3534
 5529TIP3   OH238001   6.166   4.598   1.896 -0.2708 -0.1165 -0.5614
 5529TIP3    H138002   6.078   4.564   1.917  0.7510 -2.8925 -0.5857
 5529TIP3    H238003   6.219   4.576   1.973  0.7688  0.1132 -1.2052
 5530TIP3   OH238004   6.331   1.320  16.301 -0.1708 -0.5274 -0.1110
 5530TIP3    H138005   6.272   1.305  16.374  0.3765  0.5649  0.5753
 5530TIP3    H238006   6.284   1.382  16.244 -0.0326 -0.3060  0.0155
 5531TIP3   OH238007   6.501   3.262   0.768 -0.1850 -0.3107  0.0521
 5531TIP3    H138008   6.572   3.326   0.768  0.8769 -1.4702  0.5529
 5531TIP3    H238009   6.434   3.300   0.826  0.7764 -0.0194  0.9893
 5532TIP3   OH238010   0.849   2.727   2.167 -0.7927 -0.1922  0.1730
 5532TIP3    H138011   0.840   2.712   2.073 -2.4756 -0.9264  0.4337
 5532TIP3    H238012   0.913   2.662   2.195  0.0932  0.3613 -0.5451
 5533TIP3   OH238013   2.094   3.594   2.287  0.4117 -0.2662  0.2371
 5533TIP3    H138014   2.039   3.645   2.346 -0.3441 -0.4915 -0.2609
 5533TIP3    H238015   2.097   3.645   2.206 -0.3166 -0.9848 -0.2484
 5534TIP3   OH238016   4.729   4.942   5.981 -0.5446  0.6089  0.1945
 5534TIP3    H138017   4.756   4.851   5.988 -0.5367  0.6140  0.2326
 5534TIP3    H238018   4.799   4.985   5.931 -0.9844  0.4051 -0.6058
 5535TIP3   OH238019   0.170   6.481   3.158  0.5247  0.1243  0.3090
 5535TIP3    H138020   0.217   6.420   3.213 -0.3326 -0.2189  0.6766
 5535TIP3    H238021   0.109   6.525   3.217  0.1895  0.3582 -0.2011
 5536TIP3   OH238022   1.670   4.895   1.154  0.3566 -0.0155 -0.1573
 5536TIP3    H138023   1.696   4.979   1.189  0.1777 -0.5380  1.2587
 5536TIP3    H238024   1.677   4.905   1.059  0.8813  1.4008  0.0247
 5537TIP3   OH238025   4.056   5.490  15.569 -0.1587 -0.2460  0.0028
 5537TIP3    H138026   4.002   5.421  15.531  0.5568  0.6581 -2.7705
 5537TIP3    H238027   4.087   5.453  15.652 -0.2477 -3.0361 -1.1445
 5538TIP3   OH238028   2.385   2.149  12.807  0.4201  0.2551 -0.5180
 5538TIP3    H138029   2.400   2.187  12.720 -1.8807 -0.9019 -1.4674
 5538TIP3    H238030   2.369   2.224  12.864 -2.9957  0.8822 -2.1586
 5539TIP3   OH238031   5.091   2.694   6.004 -0.0672  0.6120 -0.0531
 5539TIP3    H138032   5.061   2.713   5.915  1.2995  2.0374 -0.2377
 5539TIP3    H238033   5.177   2.653   5.992 -0.7954 -1.1131  0.5419
 5540TIP3   OH238034   6.753   1.491   2.649  1.1640 -0.5985  0.2753
 5540TIP3    H138035   6.817   1.516   2.582  1.0177  0.4006  0.5022
 5540TIP3    H238036   6.681   1.452   2.600  2.0611 -2.0100  0.0401
 5541TIP3   OH238037   0.630   0.733   0.136  0.3926  0.1270 -0.3099
 5541TIP3    H138038   0.555   0.697   0.184  0.4191  1.3281  0.6569
 5541TIP3    H238039   0.620   0.698   0.047 -1.9892  1.2042 -0.5279
 5542TIP3   OH238040   0.683   5.897  11.677  0.2277  0.6621 -0.0212
 5542TIP3    H138041   0.593   5.875  11.703  0.3755  1.6931  1.4189
 5542TIP3    H238042   0.674   5.940  11.593 -0.6598  1.0097  0.2450
 5543TIP3   OH238043   5.088   2.372   2.279 -0.0108  0.3306 -0.0034
 5543TIP3    H138044   5.068   2.303   2.343  3.0097 -0.5509  0.0755
 5543TIP3    H238045   5.100   2.325   2.197 -0.5888  1.0720 -0.5080
 5544TIP3   OH238046   2.982   3.657   2.417  0.2589 -0.2214 -0.1488
 5544TIP3    H138047   3.055   3.607   2.454 -0.1474 -0.3708  0.4571
 5544TIP3    H238048   2.906   3.599   2.424 -0.0335  0.1418 -0.2735
 5545TIP3   OH238049   6.012   3.568   1.835 -0.0502  0.0990  0.1977
 5545TIP3    H138050   6.005   3.660   1.812  1.3542 -0.1377 -1.2967
 5545TIP3    H238051   5.929   3.547   1.878 -0.5091  1.9583  0.2534
 5546TIP3   OH238052   1.218   0.797   5.190  0.8377  0.2418  0.1377
 5546TIP3    H138053   1.180   0.871   5.143  1.5902  1.5608  1.5828
 5546TIP3    H238054   1.230   0.828   5.279  1.9301 -1.3560  0.5753
 5547TIP3   OH238055   5.511   4.886  11.673  0.1520 -0.2361  0.0182
 5547TIP3    H138056   5.548   4.844  11.751  0.6493 -0.9986 -0.6268
 5547TIP3    H238057   5.474   4.814  11.622 -2.4676  0.5384  0.7753
 5548TIP3   OH238058   1.781   1.191   6.226 -1.0587  0.5444 -0.1058
 5548TIP3    H138059   1.767   1.156   6.137 -2.4520  0.5118  0.1147
 5548TIP3    H238060   1.855   1.250   6.216 -0.5527 -0.2164 -1.0923
 5549TIP3   OH238061   5.668   3.341  15.372  0.5143 -0.1421  0.5188
 5549TIP3    H138062   5.639   3.255  15.404 -1.1769  0.9527  2.0253
 5549TIP3    H238063   5.758   3.326  15.342  1.1933 -1.8950  3.1892
 5550TIP3   OH238064   5.121   1.321   5.064  0.5232  0.0825  0.1394
 5550TIP3    H138065   5.051   1.290   5.006  0.6029  1.2103 -0.5637
 5550TIP3    H238066   5.175   1.243   5.079  0.3058 -0.3035 -1.0277
 5551TIP3   OH238067   1.555   6.596   1.290  0.0768 -0.0017  0.3788
 5551TIP3    H138068   1.506   6.628   1.214  0.2169 -2.3167 -0.7247
 5551TIP3    H238069   1.488   6.559   1.348  0.0951  0.6304  0.8033
 5552TIP3   OH238070   5.518   3.164  13.670 -0.5026 -0.1859 -0.2310
 5552TIP3    H138071   5.451   3.128  13.727  0.8306 -2.3091  0.0516
 5552TIP3    H238072   5.473   3.186  13.588 -1.8338  0.0216  0.5589
 5553TIP3   OH238073   5.031   2.285   6.034  0.0077 -0.3955  0.4062
 5553TIP3    H138074   5.114   2.325   6.006  0.1843 -0.5177  0.7565
 5553TIP3    H238075   4.971   2.359   6.045  0.6564 -0.1190  2.1575
 5554TIP3   OH238076   2.314   3.703  11.220  0.0545 -0.2438 -0.2277
 5554TIP3    H138077   2.376   3.699  11.148 -1.2010  2.0830 -1.4704
 5554TIP3    H238078   2.233   3.666  11.185 -0.5285  0.7924  0.0059
 5555TIP3   OH238079   0.582   3.948  12.787  0.6129 -0.2429 -0.0516
 5555TIP3    H138080   0.568   3.853  12.795 -0.7062 -0.2362 -1.8875
 5555TIP3    H238081   0.649   3.956  12.719 -0.3407  0.1575 -0.9671
 5556TIP3   OH238082   3.364   0.693   6.303  0.0239 -0.2899  0.6803
 5556TIP3    H138083   3.427   0.736   6.360  1.1195 -0.3075 -0.4880
 5556TIP3    H238084   3.311   0.639   6.361 -0.3308  1.3841  1.9715
 5557TIP3   OH238085   4.142   1.790   4.263  0.1154 -0.2760  1.0151
 5557TIP3    H138086   4.106   1.842   4.191  0.5839 -1.2091  0.1030
 5557TIP3    H238087   4.065   1.763   4.314 -0.3335 -0.7337  0.1059
 5558TIP3   OH238088   2.516   3.317  16.730  0.0725  0.4274  0.5035
 5558TIP3    H138089   2.536   3.227  16.753  0.4346  1.2894  3.6784
 5558TIP3    H238090   2.537   3.322  16.636  0.4408 -2.6313  0.3562
 5559TIP3   OH238091   6.293   3.601   3.675  0.1544  0.0886 -0.2136
 5559TIP3    H138092   6.323   3.513   3.655 -1.6289 -0.9870  1.7035
 5559TIP3    H238093   6.210   3.610   3.628 -0.4941  0.1230  0.9125
 5560TIP3   OH238094   3.832   2.576   3.701 -0.4384 -0.5943  0.0159
 5560TIP3    H138095   3.835   2.570   3.797  3.0365 -1.7387 -0.0954
 5560TIP3    H238096   3.836   2.670   3.683  1.6572 -0.4669  0.9828
 5561TIP3   OH238097   0.052   4.673  12.341 -0.0249 -0.8436  0.5564
 5561TIP3    H138098   0.053   4.583  12.308 -3.6684 -1.2193  1.2035
 5561TIP3    H238099   0.097   4.669  12.425  0.7318 -1.8414  0.1134
 5562TIP3   OH238100   6.385   6.705   4.066  0.0222 -0.4929  0.0872
 5562TIP3    H138101   6.419   6.765   3.999 -0.9757  1.6772  1.4734
 5562TIP3    H238102   6.439   6.723   4.143 -0.0554 -1.6437  0.4147
 5563TIP3   OH238103   5.782   5.229  13.645 -0.1634  0.1759  0.2934
 5563TIP3    H138104   5.849   5.287  13.608  0.5404 -0.1609  1.0250
 5563TIP3    H238105   5.828   5.146  13.659 -0.4136  0.2888  1.9043
 5564TIP3   OH238106   6.047   5.563  14.646 -0.4501 -0.6495 -0.5381
 5564TIP3    H138107   6.054   5.649  14.689  2.9006 -0.9482 -0.3367
 5564TIP3    H238108   6.016   5.583  14.557  2.9885  1.1432 -1.4215
 5565TIP3   OH238109   3.009   3.995   2.882  0.0311  0.1739  0.5580
 5565TIP3    H138110   3.084   3.954   2.926  1.3059  1.1054 -0.7192
 5565TIP3    H238111   2.992   3.938   2.807  1.1811  1.4354 -0.6664
 5566TIP3   OH238112   3.556   6.249   2.941  0.2769 -0.4219 -0.0088
 5566TIP3    H138113   3.530   6.281   3.027 -0.8449 -1.0440 -0.1090
 5566TIP3    H238114   3.646   6.220   2.953  0.6046  0.7948  0.5971
 5567TIP3   OH238115   4.811   0.374   5.395 -0.1934  0.3923  0.4017
 5567TIP3    H138116   4.775   0.343   5.479  1.4913 -0.1764  0.9490
 5567TIP3    H238117   4.904   0.387   5.413  0.3241 -0.4124 -1.5770
 5568TIP3   OH238118   6.389   1.613   4.791  0.0165  0.3396  0.3734
 5568TIP3    H138119   6.392   1.705   4.818  0.5974  0.7164 -0.9582
 5568TIP3    H238120   6.312   1.607   4.734  0.0300  0.0155  0.3871
 5569TIP3   OH238121   4.413   0.088   3.411 -0.5628 -0.3865  0.2453
 5569TIP3    H138122   4.331   0.054   3.447 -1.4853  1.4259 -0.0751
 5569TIP3    H238123   4.390   0.175   3.379  1.7502  0.5583  1.0856
 5570TIP3   OH238124   4.143   1.050   1.023 -0.2317 -0.1548 -0.1783
 5570TIP3    H138125   4.067   0.994   1.007  0.6730 -1.7018  0.7576
 5570TIP3    H238126   4.218   0.997   0.994  0.5021  1.3498 -1.1013
 5571TIP3   OH238127   3.052   5.884   0.467  0.1924 -0.8710  0.3721
 5571TIP3    H138128   3.034   5.835   0.547 -2.8128  0.3832  0.5460
 5571TIP3    H238129   3.065   5.974   0.497  0.4677 -0.6396 -0.4297
 5572TIP3   OH238130   0.887   5.160  16.026  0.9248  0.3579 -0.1627
 5572TIP3    H138131   0.875   5.107  16.105 -1.3211 -1.9984 -1.9934
 5572TIP3    H238132   0.800   5.163  15.986  2.0190  1.4878 -2.5526
 5573TIP3   OH238133   2.250   4.202   3.510 -0.3330  0.0457 -0.6082
 5573TIP3    H138134   2.328   4.249   3.538  0.2573 -0.9393 -0.6109
 5573TIP3    H238135   2.215   4.255   3.439  0.0427  0.7567 -0.2710
 5574TIP3   OH238136   2.623   5.571   2.236 -0.0462  0.2534  0.0542
 5574TIP3    H138137   2.675   5.534   2.307  1.4187 -2.0075 -2.1621
 5574TIP3    H238138   2.561   5.629   2.281  1.0231 -0.8815  3.1481
 5575TIP3   OH238139   3.269   2.954   1.541  0.0254 -0.4822 -0.4534
 5575TIP3    H138140   3.348   2.980   1.494 -0.8136  1.2506 -0.9534
 5575TIP3    H238141   3.207   2.930   1.472  0.2242 -2.2130 -0.0502
 5576TIP3   OH238142   0.106   1.176  14.430  0.3793 -0.3765 -0.3344
 5576TIP3    H138143   0.193   1.178  14.469 -0.1283 -0.9218  0.8669
 5576TIP3    H238144   0.047   1.192  14.504 -0.4927  0.8427 -1.2833
 5577TIP3   OH238145   2.926   2.059   1.702  0.4952  0.4055 -0.2523
 5577TIP3    H138146   2.935   2.090   1.612  1.2584 -0.8987 -0.6426
 5577TIP3    H238147   2.959   1.969   1.700 -1.3044 -0.3138  0.9289
 5578TIP3   OH238148   3.026   0.233   0.100 -0.6232  0.6422  0.4652
 5578TIP3    H138149   3.061   0.190   0.179  2.5651  0.0163 -1.2065
 5578TIP3    H238150   2.951   0.179   0.075  1.0765 -1.8714  0.5350
 5579TIP3   OH238151   1.997   3.126  17.235  0.0026 -0.0425 -0.6175
 5579TIP3    H138152   2.018   3.042  17.195  0.2822 -0.4216  0.2970
 5579TIP3    H238153   2.058   3.133  17.309  0.1705  1.0923 -0.8435
 5580TIP3   OH238154   6.247   1.743   5.294 -0.5825  0.0460 -0.5126
 5580TIP3    H138155   6.215   1.793   5.220 -1.4768 -0.4842 -0.4916
 5580TIP3    H238156   6.220   1.653   5.275 -2.0929  0.1188  1.1265
 5581TIP3   OH238157   2.912   2.682  12.028  0.2105  0.7207  0.0317
 5581TIP3    H138158   2.823   2.715  12.039 -0.0588  0.7812 -2.0186
 5581TIP3    H238159   2.901   2.586  12.027  0.1506  0.7277 -0.2194
 5582TIP3   OH238160   4.281   2.636  10.966  0.0386  0.1573 -0.4437
 5582TIP3    H138161   4.356   2.692  10.945 -2.3028  2.9313 -1.6492
 5582TIP3    H238162   4.264   2.588  10.886 -0.6315  0.9363 -0.7768
 5583TIP3   OH238163   0.746   4.400  10.709 -0.2806  0.3262 -0.2067
 5583TIP3    H138164   0.702   4.484  10.724  0.0518  0.5946 -0.7407
 5583TIP3    H238165   0.797   4.413  10.629 -1.6744 -0.9569 -1.3424
 5584TIP3   OH238166   5.109   4.483  15.685 -0.5489  0.4709 -0.2783
 5584TIP3    H138167   5.161   4.561  15.663 -0.4095  1.1529  2.3603
 5584TIP3    H238168   5.023   4.517  15.708 -1.3431 -0.4269 -1.8528
 5585TIP3   OH238169   6.088   1.963   0.843  0.3597 -0.1559  0.5426
 5585TIP3    H138170   6.058   1.940   0.756  2.1468  2.9538 -0.9788
 5585TIP3    H238171   6.027   2.031   0.873  0.2403 -0.6222  1.3880
 5586TIP3   OH238172   5.321   2.062  14.151  0.5110  0.4323  0.1739
 5586TIP3    H138173   5.254   2.012  14.104 -0.2479  1.2552  0.3650
 5586TIP3    H238174   5.400   2.052  14.099  0.6243 -1.7771  0.7190
 5587TIP3   OH238175   5.874   3.086   0.373 -0.4219  0.2515  0.0026
 5587TIP3    H138176   5.853   2.996   0.396  0.5718  0.0866  0.2976
 5587TIP3    H238177   5.967   3.095   0.394  0.1714  0.5350 -2.5560
 5588TIP3   OH238178   4.533   0.664   5.107 -1.3149 -0.5164 -0.0643
 5588TIP3    H138179   4.462   0.703   5.056 -1.6355  0.3645  1.0448
 5588TIP3    H238180   4.578   0.739   5.146 -1.4933 -1.2067  1.4961
 5589TIP3   OH238181   6.348   3.919  13.927 -0.2553  0.2044 -0.7514
 5589TIP3    H138182   6.305   3.841  13.963 -1.2530  0.4818 -1.3244
 5589TIP3    H238183   6.442   3.901  13.936 -0.4784 -0.0939  1.1852
 5590TIP3   OH238184   4.166   1.082  12.591 -0.2896 -0.6305 -0.2887
 5590TIP3    H138185   4.076   1.062  12.563 -0.8656  0.3771  0.7666
 5590TIP3    H238186   4.155   1.154  12.653  1.3082 -0.1704 -0.5351
 5591TIP3   OH238187   0.149   2.415   4.932  0.1984 -0.4643  0.1214
 5591TIP3    H138188   0.207   2.421   4.856 -0.4810 -0.5473 -0.4046
 5591TIP3    H238189   0.062   2.430   4.897 -0.0101  0.6586  1.0702
 5592TIP3   OH238190   1.005   5.861  15.855  0.1938  0.5594 -0.4204
 5592TIP3    H138191   0.963   5.868  15.941 -0.1111 -0.7191 -0.4444
 5592TIP3    H238192   0.955   5.920  15.799 -0.8624 -0.0863 -0.1767
 5593TIP3   OH238193   2.526   2.174  15.955  0.1557  0.7907  0.1827
 5593TIP3    H138194   2.533   2.265  15.982  1.6674 -0.1360  3.1274
 5593TIP3    H238195   2.598   2.160  15.894 -0.4134  1.6828 -0.7010
 5594TIP3   OH238196   1.577   5.254  11.855  0.2789  0.0758  0.5855
 5594TIP3    H138197   1.594   5.292  11.769 -0.8606  0.7364  0.6399
 5594TIP3    H238198   1.638   5.298  11.914 -0.7042  1.5040  0.5660
 5595TIP3   OH238199   6.026   2.046  15.821  0.0602  0.5044 -0.5594
 5595TIP3    H138200   6.080   2.083  15.751  0.2100  2.4442  0.5181
 5595TIP3    H238201   6.085   1.987  15.868  0.5005  0.6260 -0.9507
 5596TIP3   OH238202   2.229   2.725  14.799  0.1034 -0.5443 -0.2747
 5596TIP3    H138203   2.175   2.781  14.743  1.4268 -0.2932 -1.3254
 5596TIP3    H238204   2.180   2.642  14.802 -1.8623  0.6430  1.3118
 5597TIP3   OH238205   6.438   6.291  16.635 -0.0851  0.2658 -0.2054
 5597TIP3    H138206   6.505   6.314  16.699 -0.7843  0.5241  0.4467
 5597TIP3    H238207   6.374   6.362  16.640 -0.0041  0.4268 -1.3952
 5598TIP3   OH238208   2.688   2.741  13.460 -0.0133 -0.3153  0.1620
 5598TIP3    H138209   2.775   2.732  13.421 -1.2959 -0.6790 -2.7243
 5598TIP3    H238210   2.701   2.800  13.534  2.6105 -0.0091 -0.4890
 5599TIP3   OH238211   4.281   3.521   2.480  0.2679  0.4209  0.3074
 5599TIP3    H138212   4.321   3.558   2.558 -1.1371 -0.3889  1.4357
 5599TIP3    H238213   4.346   3.458   2.448  0.1567 -0.4749  1.7910
 5600TIP3   OH238214   4.685   0.713  12.821  0.2588 -0.3630 -0.1536
 5600TIP3    H138215   4.743   0.658  12.874  0.5053 -1.6537 -1.7064
 5600TIP3    H238216   4.685   0.671  12.735 -0.8507  1.1691 -0.9214
 5601TIP3   OH238217   1.094   0.756  17.238 -0.0697 -0.1160  0.2456
 5601TIP3    H138218   1.019   0.815  17.227  1.6333  2.0292 -0.0065
 5601TIP3    H238219   1.124   0.738  17.149 -0.0362 -0.6597  0.3663
 5602TIP3   OH238220   1.269   1.369  13.477  0.5252  0.2352 -0.1190
 5602TIP3    H138221   1.204   1.325  13.531  0.7555  2.0593  1.7203
 5602TIP3    H238222   1.227   1.378  13.391 -1.8860  1.7862  1.1544
 5603TIP3   OH238223   4.930   3.817   0.661 -0.1396 -0.5470 -0.1984
 5603TIP3    H138224   4.835   3.808   0.647  0.1019 -2.1693 -0.8567
 5603TIP3    H238225   4.968   3.741   0.617  1.4063 -0.3807  0.8366
 5604TIP3   OH238226   1.129   5.363  15.048  0.1819  0.2239 -0.2267
 5604TIP3    H138227   1.044   5.319  15.044  0.1705  0.3158 -1.1030
 5604TIP3    H238228   1.109   5.456  15.041  0.3746  0.2235 -0.8961
 5605TIP3   OH238229   6.631   3.748  15.207  0.1520  0.6456  0.0865
 5605TIP3    H138230   6.652   3.791  15.124 -0.1641 -0.2490 -0.4636
 5605TIP3    H238231   6.623   3.655  15.185 -0.2220  0.4390  1.0608
 5606TIP3   OH238232   0.578   1.980   0.276 -0.0985 -0.2370 -0.3860
 5606TIP3    H138233   0.511   1.949   0.336  0.2211 -2.0914 -0.9536
 5606TIP3    H238234   0.645   2.019   0.333 -1.1503  0.7069  0.2396
 5607TIP3   OH238235   6.555   1.256  16.472 -0.5401  0.3313  0.2605
 5607TIP3    H138236   6.525   1.196  16.541 -1.5726  0.4815 -0.0497
 5607TIP3    H238237   6.476   1.279  16.425 -0.3276  2.8931  1.0989
 5608TIP3   OH238238   4.556   1.467   4.585  0.0081 -0.0441 -0.4699
 5608TIP3    H138239   4.649   1.453   4.604 -0.0056  1.6576  1.0535
 5608TIP3    H238240   4.552   1.558   4.555 -1.2914  0.2082  0.4409
 5609TIP3   OH238241   3.252   5.233   3.201 -1.0427  0.1684 -0.0385
 5609TIP3    H138242   3.269   5.316   3.157  1.4161 -1.5677 -2.5151
 5609TIP3    H238243   3.261   5.167   3.133 -0.3607 -2.3696  2.3943
 5610TIP3   OH238244   1.406   6.439  14.001 -0.3884  0.1695 -0.1892
 5610TIP3    H138245   1.485   6.421  14.053 -1.2287 -0.9299  0.7239
 5610TIP3    H238246   1.409   6.534  13.985  0.7503  0.2483  0.4425
 5611TIP3   OH238247   5.687   1.583   5.960 -0.3744  0.4785  0.3625
 5611TIP3    H138248   5.751   1.645   5.925 -0.7810  1.2884  1.0321
 5611TIP3    H238249   5.693   1.593   6.055 -0.5025 -0.4538  0.4704
 5612TIP3   OH238250   0.562   2.492   1.388 -0.6204  0.0084  0.7567
 5612TIP3    H138251   0.615   2.458   1.461 -0.4699 -2.8251 -0.5899
 5612TIP3    H238252   0.624   2.538   1.332 -0.8892  2.9848  2.8257
 5613TIP3   OH238253   0.585   3.109  15.811  0.2805  0.6249 -0.6391
 5613TIP3    H138254   0.623   3.112  15.723  2.6462 -2.5430  0.1854
 5613TIP3    H238255   0.564   3.016  15.825  2.3693  0.6189  3.0842
 5614TIP3   OH238256   0.176   6.733  10.480 -0.4968 -0.1824 -0.1782
 5614TIP3    H138257   0.213   6.808  10.433 -0.1907 -1.1482 -1.5228
 5614TIP3    H238258   0.082   6.751  10.484 -0.6018 -0.3651 -1.6905
 5615TIP3   OH238259   1.123   5.632  17.087  0.3730  0.3130 -0.5617
 5615TIP3    H138260   1.120   5.584  17.004 -0.8309 -0.1924 -0.2244
 5615TIP3    H238261   1.189   5.700  17.072  1.8964 -1.2485 -1.1415
 5616TIP3   OH238262   4.183   4.618  13.723  0.0995  0.0170 -0.2875
 5616TIP3    H138263   4.120   4.683  13.754 -0.2069 -0.6973  0.6089
 5616TIP3    H238264   4.136   4.568  13.657 -0.5770 -1.0902  1.0102
 5617TIP3   OH238265   1.205   5.133   4.692  0.5382 -0.4918  0.3516
 5617TIP3    H138266   1.188   5.044   4.721  0.8751 -0.8775 -0.5961
 5617TIP3    H238267   1.155   5.142   4.611 -0.1866  0.4709  0.8958
 5618TIP3   OH238268   3.326   1.090   5.920  0.3132 -0.7986  0.3470
 5618TIP3    H138269   3.334   1.130   5.833  1.5229 -0.8487  0.4196
 5618TIP3    H238270   3.340   1.163   5.981  0.8893 -1.0233  0.4873
 5619TIP3   OH238271   5.483   4.146   4.811 -0.4432 -0.4806  0.6309
 5619TIP3    H138272   5.388   4.153   4.807 -0.4389 -1.1254 -1.3559
 5619TIP3    H238273   5.515   4.229   4.774 -0.2974 -1.6099 -1.9541
 5620TIP3   OH238274   5.129   0.777   0.526 -0.0576 -0.2520 -0.5395
 5620TIP3    H138275   5.198   0.809   0.584  0.4964 -3.5055  0.6413
 5620TIP3    H238276   5.159   0.801   0.438  2.4397 -1.3169 -0.0100
 5621TIP3   OH238277   1.502   1.034  14.605  0.1785 -0.4156  1.0585
 5621TIP3    H138278   1.417   0.995  14.625 -0.0766 -0.0423  0.6810
 5621TIP3    H238279   1.536   1.059  14.691 -0.1267 -0.4809  1.2025
 5622TIP3   OH238280   2.328   4.944  13.493  0.2038  0.2174 -0.4061
 5622TIP3    H138281   2.413   4.954  13.536 -0.0481 -0.2427  0.2083
 5622TIP3    H238282   2.339   4.870  13.433  0.3826  0.4830 -0.7009
 5623TIP3   OH238283   1.918   1.406  11.246 -0.0999 -0.1424 -0.2653
 5623TIP3    H138284   1.862   1.478  11.219  1.4157  1.1629  0.0134
 5623TIP3    H238285   1.963   1.438  11.324 -0.7818 -2.0843  0.9895
 5624TIP3   OH238286   0.501   5.856  10.909  0.1456  0.3909 -0.3224
 5624TIP3    H138287   0.491   5.909  10.831 -0.4383 -1.2882 -1.4276
 5624TIP3    H238288   0.547   5.778  10.879 -0.3386 -0.4037  0.9422
 5625TIP3   OH238289   4.062   1.010  14.237 -0.0513 -0.0136 -0.1159
 5625TIP3    H138290   4.041   1.073  14.169 -0.3087 -0.8360 -0.8104
 5625TIP3    H238291   4.143   0.968  14.208 -1.8055 -2.5759 -1.5324
 5626TIP3   OH238292   3.473   2.104  11.416  0.1523 -0.3007 -0.2205
 5626TIP3    H138293   3.428   2.023  11.393  1.9365 -1.1797 -0.7721
 5626TIP3    H238294   3.408   2.157  11.461 -1.5405 -1.3037 -1.4486
 5627TIP3   OH238295   0.137   6.691   2.908 -0.1735  0.8629  0.0328
 5627TIP3    H138296   0.180   6.735   2.980  1.7977 -0.0927 -0.5132
 5627TIP3    H238297   0.050   6.667   2.941 -0.0892  2.3514  1.3324
 5628TIP3   OH238298   5.310   0.106  17.042  0.1464  0.1723 -0.6621
 5628TIP3    H138299   5.253   0.036  17.073 -0.0915  0.3217 -0.7630
 5628TIP3    H238300   5.398   0.075  17.060  0.0178  0.1002 -0.1730
 5629TIP3   OH238301   2.915   5.868  16.028  0.3048  0.1980  0.3944
 5629TIP3    H138302   2.900   5.778  15.997  1.8881 -0.3285  1.1275
 5629TIP3    H238303   2.964   5.909  15.958  2.2062 -0.4232  1.3230
 5630TIP3   OH238304   1.713   3.044   0.336 -0.0775 -0.1814 -0.2154
 5630TIP3    H138305   1.764   3.086   0.406 -0.6395 -0.5185  0.4092
 5630TIP3    H238306   1.665   3.115   0.295 -1.8066 -0.3122  1.4963
 5631TIP3   OH238307   2.610   2.176   4.467 -0.1975 -0.1797 -0.4081
 5631TIP3    H138308   2.682   2.231   4.499 -0.3834  0.2257 -0.6820
 5631TIP3    H238309   2.557   2.158   4.544 -0.4211  0.4580 -0.4088
 5632TIP3   OH238310   3.081   3.210   1.409  0.2465  0.2222  0.4364
 5632TIP3    H138311   3.109   3.118   1.400  0.8599  0.5619 -1.2458
 5632TIP3    H238312   3.002   3.205   1.463  0.1251 -1.3362  0.1589
 5633TIP3   OH238313   5.866   3.114   3.956  0.1572  0.1363 -0.1524
 5633TIP3    H138314   5.933   3.061   3.999 -0.7065 -2.1290 -1.5101
 5633TIP3    H238315   5.785   3.094   4.002  0.4310  3.1558  1.7233
 5634TIP3   OH238316   3.537   5.555   0.824  0.0173 -0.1602  0.5339
 5634TIP3    H138317   3.587   5.574   0.745 -0.1088 -0.3883  0.3992
 5634TIP3    H238318   3.600   5.566   0.895  0.2151 -0.2778  0.3773
 5635TIP3   OH238319   0.393   3.485  12.035 -0.9886  0.0650  0.9786
 5635TIP3    H138320   0.346   3.454  11.958 -1.3655 -0.1558  1.2999
 5635TIP3    H238321   0.327   3.493  12.103 -0.9471  1.8323  0.8302
 5636TIP3   OH238322   4.351   4.939  13.802  0.2075 -0.0346 -0.2128
 5636TIP3    H138323   4.280   4.875  13.792 -1.1092  1.3764 -0.0694
 5636TIP3    H238324   4.353   4.959  13.895 -0.1412  0.9667 -0.4135
 5637TIP3   OH238325   4.307   0.358   0.107 -0.2554  0.3241 -0.0059
 5637TIP3    H138326   4.342   0.291   0.166  1.9513  1.1930 -0.2701
 5637TIP3    H238327   4.355   0.438   0.130 -0.1004  0.9229 -2.2371
 5638TIP3   OH238328   6.194   5.874   1.372  0.3035 -0.1538  0.7668
 5638TIP3    H138329   6.234   5.953   1.408  2.6038 -1.6244  1.5034
 5638TIP3    H238330   6.187   5.891   1.278 -1.7731  1.9955  1.2792
 5639TIP3   OH238331   6.408   0.121  13.642 -0.3991 -0.2474 -0.0845
 5639TIP3    H138332   6.338   0.056  13.638 -1.1586  0.4964  0.7233
 5639TIP3    H238333   6.485   0.075  13.610 -0.9049 -1.5730  0.5401
 5640TIP3   OH238334   4.379   3.375   4.958  0.1508  0.1170 -0.1368
 5640TIP3    H138335   4.374   3.361   4.863 -1.3885  0.6109 -0.1457
 5640TIP3    H238336   4.441   3.447   4.969 -1.4998  1.7013 -0.9467
 5641TIP3   OH238337   3.851   4.955  16.725  0.4395 -0.1386 -0.5065
 5641TIP3    H138338   3.930   4.923  16.681  0.0950 -1.8835  0.1252
 5641TIP3    H238339   3.870   4.943  16.818 -0.0704  0.6483 -0.2966
 5642TIP3   OH238340   3.375   5.904  16.073 -0.3993  0.0083 -0.2706
 5642TIP3    H138341   3.455   5.951  16.095  0.9709 -1.1905 -2.4263
 5642TIP3    H238342   3.360   5.846  16.148  0.2851  0.8483  0.5219
 5643TIP3   OH238343   0.083   3.244  12.816  0.3147 -0.8520 -0.3502
 5643TIP3    H138344   0.034   3.174  12.860 -0.7941 -0.3495 -0.7658
 5643TIP3    H238345   0.118   3.297  12.888 -1.0825 -0.3109 -0.0528
 5644TIP3   OH238346   1.524   1.918   2.425  0.3701 -0.0035 -0.6073
 5644TIP3    H138347   1.457   1.874   2.478  0.2526 -0.9123 -1.4835
 5644TIP3    H238348   1.571   1.846   2.383  1.8410  0.6400 -0.0720
 5645TIP3   OH238349   4.754   3.964   1.464 -0.5447  0.4840  0.3058
 5645TIP3    H138350   4.797   3.954   1.379  2.1342  1.7702  1.4632
 5645TIP3    H238351   4.805   4.031   1.510 -1.2986 -0.9174  3.3355
 5646TIP3   OH238352   0.764   1.311  12.537 -0.5219  0.2927 -0.6756
 5646TIP3    H138353   0.848   1.265  12.542 -0.0567  1.1279 -0.6755
 5646TIP3    H238354   0.725   1.281  12.455 -0.9123 -1.2457  0.0526
 5647TIP3   OH238355   4.634   0.781  13.663  0.6764  0.5305  0.0811
 5647TIP3    H138356   4.636   0.724  13.586 -0.4630  0.7548 -0.1286
 5647TIP3    H238357   4.626   0.869  13.628  0.5538  0.6673  0.4459
 5648TIP3   OH238358   2.620   0.045  16.656  0.0918 -0.1826 -0.7201
 5648TIP3    H138359   2.595  -0.042  16.625 -1.6792 -0.6570  1.8930
 5648TIP3    H238360   2.537   0.089  16.674  0.9755  0.0366  3.2528
 5649TIP3   OH238361   5.607   0.102   3.786 -0.4134  0.1645  0.0083
 5649TIP3    H138362   5.659   0.085   3.865 -1.7557 -0.9886  0.6444
 5649TIP3    H238363   5.526   0.053   3.798 -0.6629 -0.0011 -2.0772
 5650TIP3   OH238364   0.186   3.246   2.580  0.1875 -0.0800 -0.0545
 5650TIP3    H138365   0.257   3.254   2.516  0.4763 -0.6707  0.1850
 5650TIP3    H238366   0.124   3.186   2.538  0.5102 -0.6910  0.3290
 5651TIP3   OH238367   3.111   1.750   3.109  0.5755  0.2115 -0.2492
 5651TIP3    H138368   3.148   1.808   3.042 -0.7879 -0.2760 -1.4348
 5651TIP3    H238369   3.093   1.668   3.063  0.9958 -0.6379  1.0551
 5652TIP3   OH238370   2.792   5.035  13.828  0.6750  0.3808  0.0350
 5652TIP3    H138371   2.727   5.041  13.899  0.1531  3.1015 -0.5963
 5652TIP3    H238372   2.777   4.949  13.789 -0.7368 -0.1374  1.6417
 5653TIP3   OH238373   1.855   1.848   3.348 -0.0330  0.3076  0.9588
 5653TIP3    H138374   1.947   1.832   3.323 -0.8499 -2.8896 -0.2710
 5653TIP3    H238375   1.838   1.938   3.320  2.6731  0.8905  1.0365
 5654TIP3   OH238376   1.182   2.810  16.779  0.1874 -0.5262 -0.1377
 5654TIP3    H138377   1.179   2.836  16.871  0.3109 -1.0496  0.0144
 5654TIP3    H238378   1.096   2.834  16.744  0.3331  0.1706 -0.0224
 5655TIP3   OH238379   4.862   2.299   5.695  0.0027 -0.2764 -0.0411
 5655TIP3    H138380   4.863   2.287   5.600  0.8036  1.5247 -0.2775
 5655TIP3    H238381   4.796   2.368   5.710 -0.0544 -0.4866  0.7020
 5656TIP3   OH238382   3.831   5.114   5.904 -0.0760 -0.0059 -0.8273
 5656TIP3    H138383   3.917   5.117   5.863  1.0017 -0.5838  1.3007
 5656TIP3    H238384   3.814   5.021   5.919  0.9696  0.2757  2.7466
 5657TIP3   OH238385   4.115   4.488   3.779  0.4032 -0.4200  0.4327
 5657TIP3    H138386   4.125   4.511   3.871  1.1439 -3.1112  1.0756
 5657TIP3    H238387   4.121   4.392   3.777  0.6787 -0.4002 -2.4360
 5658TIP3   OH238388   2.121   4.797   5.973  0.1953  0.0433  0.2075
 5658TIP3    H138389   2.149   4.717   6.018 -3.5550 -0.6306  1.5918
 5658TIP3    H238390   2.082   4.850   6.042  2.4783  3.0526 -0.7336
 5659TIP3   OH238391   2.897   4.084  13.955  0.1250  0.2201  0.2461
 5659TIP3    H138392   2.837   4.016  13.985 -0.5473 -0.1028 -1.7823
 5659TIP3    H238393   2.844   4.163  13.950  0.1570  0.2051 -0.3668
 5660TIP3   OH238394   4.699   0.549  16.417  0.3903  0.2307 -0.3354
 5660TIP3    H138395   4.654   0.604  16.482  1.0787  0.5612 -0.1371
 5660TIP3    H238396   4.692   0.460  16.452  1.3342  0.4893  0.5242
 5661TIP3   OH238397   4.211   2.496  11.223 -0.0838  0.1368  0.5795
 5661TIP3    H138398   4.204   2.402  11.207 -0.5230  0.3827 -0.7201
 5661TIP3    H238399   4.211   2.535  11.136 -2.3468  1.5088  1.1687
 5662TIP3   OH238400   4.287   1.321  15.134 -0.1669  0.7686  0.1368
 5662TIP3    H138401   4.359   1.261  15.111  0.4385  1.7478 -0.5506
 5662TIP3    H238402   4.268   1.300  15.226 -0.8128 -1.3405 -0.4398
 5663TIP3   OH238403   6.242   2.856  15.431  0.2784 -0.0303  0.0694
 5663TIP3    H138404   6.324   2.809  15.446  1.5221  2.1271  0.3282
 5663TIP3    H238405   6.238   2.867  15.336 -0.1350 -0.8273 -0.0123
 5664TIP3   OH238406   6.648   0.150  15.683 -0.0056 -0.4645 -0.3460
 5664TIP3    H138407   6.696   0.141  15.601  0.9964  1.1521  0.0342
 5664TIP3    H238408   6.681   0.231  15.721 -0.9975 -0.8096  1.3011
 5665TIP3   OH238409   3.451   6.327   0.282  0.0205  0.0021 -0.5316
 5665TIP3    H138410   3.439   6.234   0.304  0.1464  0.1879  0.3327
 5665TIP3    H238411   3.440   6.330   0.187 -1.4937 -0.6651 -0.3889
 5666TIP3   OH238412   4.724   0.052  16.537 -0.5224 -0.4424  0.3284
 5666TIP3    H138413   4.668   0.096  16.600  0.4782 -1.2255  1.7835
 5666TIP3    H238414   4.812   0.057  16.574  0.1661 -0.5041 -1.2274
 5667TIP3   OH238415   1.083   5.841   3.963  0.4851  0.3864 -0.4633
 5667TIP3    H138416   1.173   5.843   3.995  0.0755  1.1384  0.6306
 5667TIP3    H238417   1.077   5.916   3.904  0.4567  0.5515 -0.2475
 5668TIP3   OH238418   3.061   0.988  15.538 -0.0267 -0.5443 -0.0280
 5668TIP3    H138419   3.114   1.061  15.569 -0.5227  1.0815 -2.9045
 5668TIP3    H238420   3.124   0.929  15.496 -0.1858  0.3824 -1.6007
 5669TIP3   OH238421   3.417   3.805  13.201  0.3559  0.1089 -0.2373
 5669TIP3    H138422   3.420   3.867  13.128  0.9757  0.2842 -0.0649
 5669TIP3    H238423   3.455   3.853  13.275 -0.2082 -0.0923  0.1873
 5670TIP3   OH238424   3.443   3.217   0.465  0.1009  0.3776  0.2392
 5670TIP3    H138425   3.521   3.176   0.502 -0.0121 -0.0683 -0.0045
 5670TIP3    H238426   3.378   3.146   0.463  0.4712  0.0446 -1.9261
 5671TIP3   OH238427   3.760   4.068  14.710  0.1289  0.1923 -0.0913
 5671TIP3    H138428   3.771   4.073  14.615 -0.1164 -0.4880 -0.1570
 5671TIP3    H238429   3.686   4.127  14.728 -1.2911 -1.4015 -0.5896
 5672TIP3   OH238430   1.494   1.612  13.266 -0.4302  0.1341  0.2521
 5672TIP3    H138431   1.586   1.639  13.268 -0.7239  1.1729 -0.0037
 5672TIP3    H238432   1.495   1.523  13.301  0.6564  0.1846  0.3858
 5673TIP3   OH238433   0.911   1.894   4.713 -0.6102  0.3245  0.5755
 5673TIP3    H138434   0.847   1.960   4.690 -1.4989 -0.9423 -0.6218
 5673TIP3    H238435   0.922   1.841   4.634  1.0828 -0.1464  1.0987
 5674TIP3   OH238436   6.007   5.465   0.902 -0.4392  0.3274 -0.2348
 5674TIP3    H138437   6.077   5.500   0.847 -0.3518  0.8555  0.2036
 5674TIP3    H238438   6.029   5.495   0.990 -1.6143  1.1388 -0.2103
 5675TIP3   OH238439   1.568   6.137   2.241  0.3993  0.0814 -0.0660
 5675TIP3    H138440   1.524   6.169   2.162 -0.2672  0.0325  0.2788
 5675TIP3    H238441   1.565   6.212   2.302 -1.6138 -0.7679  0.9255
 5676TIP3   OH238442   5.484   2.718   3.906 -0.9745 -0.1716  0.4047
 5676TIP3    H138443   5.520   2.705   3.994  0.0311 -0.0720  0.0027
 5676TIP3    H238444   5.453   2.631   3.881  0.5621 -0.6276  0.0468
 5677TIP3   OH238445   6.462   6.244  11.894  0.5616 -0.0707  0.4050
 5677TIP3    H138446   6.424   6.198  11.819  0.8944  1.4664 -0.7386
 5677TIP3    H238447   6.421   6.204  11.970  0.3623 -1.8060 -0.5747
 5678TIP3   OH238448   2.366   1.379   5.925  0.2802  0.0408 -0.5241
 5678TIP3    H138449   2.307   1.370   5.850  1.3331 -1.6578 -1.1970
 5678TIP3    H238450   2.309   1.377   6.002 -0.6154 -0.6785 -1.1988
 5679TIP3   OH238451   2.511   4.006  17.069 -0.2215 -0.5601  0.2325
 5679TIP3    H138452   2.450   3.932  17.064 -0.1797 -0.5027 -1.8916
 5679TIP3    H238453   2.596   3.969  17.048  0.0976 -0.2274  0.9323
 5680TIP3   OH238454   3.336   5.729   2.850 -0.7858 -0.0252  0.0769
 5680TIP3    H138455   3.317   5.809   2.900  0.1601  0.4690 -0.3344
 5680TIP3    H238456   3.409   5.689   2.896  0.2916  0.5889 -1.0636
 5681TIP3   OH238457   4.617   4.437   2.747 -0.9767 -0.3671  0.5045
 5681TIP3    H138458   4.529   4.401   2.747 -1.3713  0.5871  0.4286
 5681TIP3    H238459   4.620   4.495   2.671 -0.4642  0.0335  0.8242
 5682TIP3   OH238460   1.994   1.925   5.780 -0.0537 -0.3682  0.0998
 5682TIP3    H138461   1.946   1.973   5.848  0.5134  0.4828 -0.0838
 5682TIP3    H238462   2.046   1.861   5.828 -0.0139 -0.0889  0.4313
 5683TIP3   OH238463   5.321   3.549  16.455  0.2106  0.5316  0.3838
 5683TIP3    H138464   5.239   3.532  16.502  0.4477  0.3254  0.7277
 5683TIP3    H238465   5.339   3.468  16.408  0.4239  0.4358  0.6281
 5684TIP3   OH238466   3.549   3.114  14.277 -0.5409  0.1797 -0.2973
 5684TIP3    H138467   3.488   3.041  14.280 -3.1058  2.2639  0.5084
 5684TIP3    H238468   3.583   3.122  14.366 -0.5322  0.1806 -0.3007
 5685TIP3   OH238469   3.170   4.649   6.878  0.0925  0.4519 -0.6468
 5685TIP3    H138470   3.186   4.743   6.872  0.5705  0.4685  0.8079
 5685TIP3    H238471   3.171   4.619   6.787  1.7034  1.5635 -1.0276
 5686TIP3   OH238472   5.167   5.539  14.106 -0.3900  0.0898 -0.2798
 5686TIP3    H138473   5.257   5.523  14.134 -0.0667  0.1885 -1.2405
 5686TIP3    H238474   5.138   5.456  14.069 -0.6779  0.0746 -0.0264
 5687TIP3   OH238475   6.732   3.002  11.966 -0.1164  0.4776 -0.0495
 5687TIP3    H138476   6.706   3.027  12.055  1.2550 -0.3376  0.5900
 5687TIP3    H238477   6.741   2.907  11.969 -0.2667  0.4250 -1.1199
 5688TIP3   OH238478   0.803   4.965   3.567  0.1968  0.6937 -0.6275
 5688TIP3    H138479   0.755   4.997   3.643  0.1847  0.9490 -0.7420
 5688TIP3    H238480   0.894   4.961   3.596  0.3015  1.5182 -0.8361
 5689TIP3   OH238481   6.604   1.124   4.569 -0.2365 -0.1415  0.0637
 5689TIP3    H138482   6.556   1.043   4.548 -1.4611  0.1053  1.7896
 5689TIP3    H238483   6.582   1.183   4.497  1.2474 -1.5469 -1.5988
 5690TIP3   OH238484   2.089   5.113   5.197 -0.0995  0.3109  0.0584
 5690TIP3    H138485   2.042   5.177   5.143  1.4652  0.5243 -1.0771
 5690TIP3    H238486   2.020   5.070   5.247 -1.3170  1.9595 -0.1414
 5691TIP3   OH238487   4.969   6.553   6.271  0.3779 -0.7093  0.3675
 5691TIP3    H138488   5.009   6.466   6.275  1.4344 -0.2425  0.2898
 5691TIP3    H238489   5.022   6.599   6.206  0.8384  0.4962  1.5855
 5692TIP3   OH238490   4.911   2.108   3.838 -0.0517 -0.1263  0.2902
 5692TIP3    H138491   4.912   2.070   3.926  2.5290  0.6768  0.6540
 5692TIP3    H238492   4.845   2.177   3.843  0.4594  0.2860  1.7728
 5693TIP3   OH238493   5.301   0.825   0.766  0.3636  1.3458  0.0859
 5693TIP3    H138494   5.282   0.913   0.797  1.7914  0.9291  2.2641
 5693TIP3    H238495   5.343   0.781   0.841 -3.3404 -2.2612  0.2472
 5694TIP3   OH238496   3.596   1.866  15.982 -0.1049 -0.7289  0.5444
 5694TIP3    H138497   3.526   1.928  15.959  0.1023 -0.4740  0.5968
 5694TIP3    H238498   3.615   1.885  16.073  1.0367  0.1898  0.1245
 5695TIP3   OH238499   5.498   4.248  16.006  0.0270  0.2561  0.3372
 5695TIP3    H138500   5.495   4.272  16.099  1.3204 -0.4734  0.5788
 5695TIP3    H238501   5.422   4.292  15.968  0.2522  1.6949  1.4769
 5696TIP3   OH238502   0.797   2.232  11.940  0.0023 -0.1757 -0.0765
 5696TIP3    H138503   0.875   2.186  11.909  0.1138 -0.0090 -0.0449
 5696TIP3    H238504   0.811   2.241  12.034  0.0828  0.1188 -0.1171
 5697TIP3   OH238505   0.417   0.473   4.847  0.3370 -0.2650 -0.2358
 5697TIP3    H138506   0.446   0.382   4.837  0.7349 -0.0862 -0.7763
 5697TIP3    H238507   0.374   0.476   4.932  2.4742 -0.3910  0.8780
 5698TIP3   OH238508   3.536   3.639  11.481 -0.2673  0.0324 -0.9023
 5698TIP3    H138509   3.498   3.578  11.544 -1.6901  1.5802 -0.2450
 5698TIP3    H238510   3.533   3.591  11.398 -1.6953 -0.6890 -0.4657
 5699TIP3   OH238511   4.504   2.205   0.700  0.4067 -0.6024 -0.3407
 5699TIP3    H138512   4.535   2.137   0.639 -0.9878  0.1066 -1.8851
 5699TIP3    H238513   4.443   2.159   0.758 -3.2556 -0.0787 -3.5802
 5700TIP3   OH238514   3.663   0.140   4.172  0.3432  0.4703 -0.3343
 5700TIP3    H138515   3.703   0.219   4.208  1.5830 -1.2327  2.1924
 5700TIP3    H238516   3.730   0.102   4.115  0.6723  0.0032  0.3500
 5701TIP3   OH238517   4.988   2.613  13.648  0.4939 -0.3705 -0.2399
 5701TIP3    H138518   4.974   2.553  13.721 -1.7068  1.2629  0.7296
 5701TIP3    H238519   5.075   2.651  13.665  0.0467 -0.0827  1.4801
 5702TIP3   OH238520   1.541   3.732  11.551 -0.8059  0.2148  0.7808
 5702TIP3    H138521   1.557   3.721  11.645 -0.8285 -1.1164  0.6445
 5702TIP3    H238522   1.459   3.685  11.535 -0.8509  0.5190  0.1146
 5703TIP3   OH238523   4.615   5.192   2.436  0.5723  0.4795  0.1240
 5703TIP3    H138524   4.607   5.177   2.531 -2.4174  0.2285 -0.1100
 5703TIP3    H238525   4.677   5.264   2.429 -0.5854  1.7687  2.4058
 5704TIP3   OH238526   0.993   0.705  14.739  0.0901 -0.0404 -0.2634
 5704TIP3    H138527   0.934   0.768  14.697 -0.0444  0.1316  0.1895
 5704TIP3    H238528   0.987   0.627  14.683 -1.6928 -0.5463  0.5665
 5705TIP3   OH238529   2.070   1.599   1.492 -0.5731 -0.0007 -0.5348
 5705TIP3    H138530   1.993   1.591   1.435  0.1959 -2.6244 -1.2742
 5705TIP3    H238531   2.121   1.519   1.476 -0.4700 -1.0340  4.0405
 5706TIP3   OH238532   2.682   2.527  15.494 -0.3484  0.5183  0.5371
 5706TIP3    H138533   2.647   2.442  15.470 -0.6840  0.2344  1.9865
 5706TIP3    H238534   2.629   2.555  15.569  1.2606  0.9336  1.5502
 5707TIP3   OH238535   6.391   5.408   3.231 -0.1434  0.1850  0.3245
 5707TIP3    H138536   6.421   5.458   3.307  1.2850 -0.9054  0.5094
 5707TIP3    H238537   6.430   5.321   3.243 -0.3113 -0.1409 -1.4064
 5708TIP3   OH238538   3.314   0.956   3.707 -0.3708 -0.4735 -0.1025
 5708TIP3    H138539   3.262   1.004   3.642 -0.8980 -0.1471  0.5591
 5708TIP3    H238540   3.403   0.957   3.672 -0.3925  0.9159 -0.1409
 5709TIP3   OH238541   1.911   4.626   2.078  0.0042 -0.3564 -0.0056
 5709TIP3    H138542   1.956   4.585   2.004 -1.3881 -0.5502 -0.7546
 5709TIP3    H238543   1.834   4.668   2.040  0.4321  1.4301  1.0255
 5710TIP3   OH238544   5.354   6.252   4.220  0.4271 -0.2064  0.2024
 5710TIP3    H138545   5.424   6.247   4.285  0.6134 -1.4353 -0.0940
 5710TIP3    H238546   5.290   6.186   4.249  1.6083 -2.4526 -2.1717
 5711TIP3   OH238547   2.609   0.051  12.932 -0.1925 -0.3488 -0.2072
 5711TIP3    H138548   2.534   0.006  12.972 -0.8401  1.2971  0.4781
 5711TIP3    H238549   2.590   0.050  12.838 -3.4323  4.0157  0.2475
 5712TIP3   OH238550   3.273   4.714  15.233  0.1055 -0.3870  0.0396
 5712TIP3    H138551   3.249   4.652  15.302 -1.4531  0.5035  0.3093
 5712TIP3    H238552   3.277   4.660  15.154  3.5151 -1.7390  1.0294
 5713TIP3   OH238553   4.240   1.676  13.847 -0.7595 -0.2030  0.1430
 5713TIP3    H138554   4.315   1.616  13.849 -1.2693 -0.8446  3.8033
 5713TIP3    H238555   4.178   1.634  13.786  1.0790 -0.5688 -1.5470
 5714TIP3   OH238556   0.566   2.523  12.695 -0.7509 -0.3848 -0.2162
 5714TIP3    H138557   0.658   2.542  12.717 -1.0861 -0.3178  1.1995
 5714TIP3    H238558   0.555   2.557  12.606  0.1292  1.2286  0.2666
 5715TIP3   OH238559   4.624   6.369   2.083 -0.0238  0.1745  0.5512
 5715TIP3    H138560   4.688   6.432   2.048 -0.4728  0.1014 -0.4137
 5715TIP3    H238561   4.555   6.424   2.120 -0.8013  0.2813 -0.9931
 5716TIP3   OH238562   6.136   1.302   2.749 -0.3119 -0.0350 -0.6117
 5716TIP3    H138563   6.114   1.382   2.702  1.9605  2.0347  1.6514
 5716TIP3    H238564   6.057   1.283   2.801 -0.8464  0.7851 -1.1065
 5717TIP3   OH238565   2.178   2.594   1.966  0.4888 -0.0947  0.0607
 5717TIP3    H138566   2.091   2.632   1.954  0.3305 -0.3741  0.3087
 5717TIP3    H238567   2.169   2.536   2.042  0.7804 -0.4556 -0.1743
 5718TIP3   OH238568   0.480   0.062  17.069 -0.5042 -0.0045  0.3947
 5718TIP3    H138569   0.407   0.057  17.131 -1.2972 -0.8283 -0.5993
 5718TIP3    H238570   0.468   0.146  17.025 -0.0392  0.5023  1.2163
 5719TIP3   OH238571   2.010   4.874  12.324 -0.1112  0.1833  0.1742
 5719TIP3    H138572   2.043   4.788  12.299  1.3814  1.0509 -0.9355
 5719TIP3    H238573   2.076   4.935  12.292 -1.0976  1.7385  1.0455
 5720TIP3   OH238574   0.551   2.528  16.227 -0.5575  0.1574  0.3274
 5720TIP3    H138575   0.615   2.560  16.164 -0.1182  0.3794  0.8734
 5720TIP3    H238576   0.547   2.434  16.212 -0.7329  0.2638 -0.2802
 5721TIP3   OH238577   0.108   3.720   6.085  0.1612 -0.0790 -0.0619
 5721TIP3    H138578   0.043   3.667   6.040  0.5697 -0.8113  0.2062
 5721TIP3    H238579   0.184   3.662   6.096 -0.0864 -0.0534  1.9456
 5722TIP3   OH238580   2.473   5.931   5.578  0.5264 -0.3027  0.2845
 5722TIP3    H138581   2.466   5.939   5.482 -0.8539 -1.0472  0.2997
 5722TIP3    H238582   2.554   5.883   5.592  1.3417  0.8380 -0.4574
 5723TIP3   OH238583   5.026   5.715  14.984  0.3220 -0.1133 -0.2324
 5723TIP3    H138584   5.053   5.729  14.893  1.8611 -0.3463  0.1784
 5723TIP3    H238585   4.964   5.643  14.980  0.2242  0.0196 -1.1319
 5724TIP3   OH238586   0.775   4.146   5.839  0.0908 -0.1846 -1.0647
 5724TIP3    H138587   0.756   4.070   5.894 -1.0210 -0.1378 -1.3630
 5724TIP3    H238588   0.772   4.220   5.899 -0.0063 -0.2503 -0.9890
 5725TIP3   OH238589   3.384   5.972   1.568  0.1029  0.5758  0.1479
 5725TIP3    H138590   3.367   6.040   1.503 -0.2244 -0.7735 -1.2173
 5725TIP3    H238591   3.418   5.898   1.518  1.8912  0.2468  1.8022
 5726TIP3   OH238592   3.631   2.835  11.565 -0.2716 -1.0179 -0.4583
 5726TIP3    H138593   3.680   2.763  11.526  0.7999 -1.0800  0.9739
 5726TIP3    H238594   3.660   2.912  11.517 -1.8740 -1.5689 -2.4142
 5727TIP3   OH238595   0.007   2.551  17.000  0.1646  0.1588  0.5790
 5727TIP3    H138596  -0.037   2.551  16.915  0.8783 -0.6669  0.1918
 5727TIP3    H238597  -0.058   2.585  17.061 -0.2014  1.2030 -0.3777
 5728TIP3   OH238598   4.913   4.443   0.876 -0.2211  0.4401 -0.6215
 5728TIP3    H138599   4.982   4.486   0.926 -0.8574 -0.5420  1.1356
 5728TIP3    H238600   4.888   4.507   0.810  0.6475  1.7627  0.3078
 5729TIP3   OH238601   4.196   5.091   6.691  0.4973 -0.2154 -0.5226
 5729TIP3    H138602   4.221   5.083   6.599  0.4037 -1.7299 -0.4200
 5729TIP3    H238603   4.111   5.135   6.689 -1.4350 -3.7855 -1.4161
 5730TIP3   OH238604   0.163   1.689   1.034 -0.4057 -0.0444  0.4755
 5730TIP3    H138605   0.213   1.608   1.021  0.7438  0.9238 -1.4047
 5730TIP3    H238606   0.223   1.746   1.083  0.3146  1.0593 -1.6372
 5731TIP3   OH238607   3.652   1.097   0.069  0.6648 -0.1429  0.2532
 5731TIP3    H138608   3.644   1.169   0.007  2.2690 -0.8581 -0.8095
 5731TIP3    H238609   3.601   1.026   0.030 -0.3370  0.1752  0.9601
 5732TIP3   OH238610   3.278   4.836  10.830  0.0963 -0.5523 -0.1755
 5732TIP3    H138611   3.292   4.741  10.821 -0.4404 -0.6466 -0.0459
 5732TIP3    H238612   3.232   4.845  10.914  1.9360 -0.0012  0.8081
 5733TIP3   OH238613   3.739   2.486  14.093  0.5498 -0.0894 -0.2725
 5733TIP3    H138614   3.735   2.456  14.003 -0.7864 -0.3132 -0.1387
 5733TIP3    H238615   3.825   2.529  14.100 -0.0030  1.3933 -2.1013
 5734TIP3   OH238616   3.685   0.664  11.439 -0.1203  0.0758  0.1731
 5734TIP3    H138617   3.685   0.611  11.359 -2.3972  0.0173  0.1896
 5734TIP3    H238618   3.684   0.754  11.407 -0.4047  0.0606  0.1394
 5735TIP3   OH238619   6.020   1.726  11.225  0.3154 -0.3928 -0.2632
 5735TIP3    H138620   5.966   1.803  11.205  2.3149  1.2909  0.5224
 5735TIP3    H238621   6.072   1.753  11.302  1.9284 -2.0880 -0.7169
 5736TIP3   OH238622   3.177   1.483  16.799 -0.0927 -0.9111  0.3765
 5736TIP3    H138623   3.129   1.491  16.881  0.0327  0.2018  0.3524
 5736TIP3    H238624   3.113   1.449  16.736 -1.1021  1.3184  0.1405
 5737TIP3   OH238625   0.190   3.929  12.982 -0.1245 -0.3376  0.2020
 5737TIP3    H138626   0.245   3.851  12.971  0.2561  0.1243 -1.2648
 5737TIP3    H238627   0.253   4.001  12.994 -0.4469 -0.0226  0.0076
 5738TIP3   OH238628   5.816   1.682   0.860  0.4049  0.1607 -0.4391
 5738TIP3    H138629   5.822   1.703   0.767 -0.2637 -0.5680 -0.6540
 5738TIP3    H238630   5.820   1.766   0.904  2.1933  0.4140 -1.0446
 5739TIP3   OH238631   5.398   0.563   2.566 -0.7705 -0.2774 -0.2535
 5739TIP3    H138632   5.425   0.475   2.590 -0.8291 -0.2874 -0.2248
 5739TIP3    H238633   5.317   0.551   2.517 -0.1715 -0.3354 -1.2682
 5740TIP3   OH238634   0.120   5.350  14.261  0.4581  0.1222 -0.2951
 5740TIP3    H138635   0.027   5.363  14.276  0.5023 -0.3579  0.4459
 5740TIP3    H238636   0.157   5.335  14.348  1.7342  3.3391 -0.2270
 5741TIP3   OH238637   0.424   2.128  15.784 -0.2560 -0.1968  0.2501
 5741TIP3    H138638   0.374   2.184  15.724 -1.3775  0.6600  1.9435
 5741TIP3    H238639   0.381   2.042  15.777 -0.6022 -0.0138  0.0817
 5742TIP3   OH238640   4.933   5.081   4.478  0.1809  0.4016  0.3472
 5742TIP3    H138641   4.904   5.157   4.430  2.5796  1.8839  1.1386
 5742TIP3    H238642   4.998   5.039   4.421  0.7076  0.3853  0.9426
 5743TIP3   OH238643   0.204   5.658  11.871  0.3425 -0.2288  0.0822
 5743TIP3    H138644   0.240   5.747  11.875  0.2156 -0.2142  0.9209
 5743TIP3    H238645   0.138   5.662  11.801 -0.1332  0.5094  0.5667
 5744TIP3   OH238646   0.019   6.579   3.649 -0.0186 -0.3054 -0.8896
 5744TIP3    H138647   0.046   6.516   3.715 -0.1212  1.2654  0.6799
 5744TIP3    H238648  -0.053   6.536   3.603  1.3956 -2.2336 -1.3574
 5745TIP3   OH238649   5.303   4.772  16.339  0.4730  0.0722  0.2833
 5745TIP3    H138650   5.238   4.750  16.406 -0.7613 -1.6340 -1.4033
 5745TIP3    H238651   5.299   4.867  16.332 -0.9234  0.0947  1.1431
 5746TIP3   OH238652   3.928   3.884   5.634  0.0006  0.1469 -0.3642
 5746TIP3    H138653   3.845   3.929   5.618  0.5455  1.2804 -0.0619
 5746TIP3    H238654   3.969   3.933   5.705  0.3919 -1.1375  0.3259
 5747TIP3   OH238655   0.115   1.555  12.839 -0.6553 -0.1688 -0.3647
 5747TIP3    H138656   0.152   1.641  12.819  0.5726 -0.3921  0.9021
 5747TIP3    H238657   0.071   1.567  12.923 -0.5665 -0.7600 -0.2334
 5748TIP3   OH238658   0.779   6.124   0.857 -0.2139  1.0398 -0.1408
 5748TIP3    H138659   0.783   6.168   0.773  1.0349  0.5852 -0.3422
 5748TIP3    H238660   0.746   6.190   0.918 -1.3869  1.2802 -1.0317
 5749TIP3   OH238661   3.326   2.509   4.247 -0.2933  0.1056 -0.3657
 5749TIP3    H138662   3.238   2.543   4.232 -1.0841 -2.2812 -1.4589
 5749TIP3    H238663   3.344   2.456   4.169  0.8193 -2.0288  1.2866
 5750TIP3   OH238664   0.093   5.293   1.436 -0.3786  0.0456  0.0957
 5750TIP3    H138665   0.030   5.260   1.371  0.1893 -0.6230 -0.1146
 5750TIP3    H238666   0.137   5.366   1.392 -1.3508  0.8529  0.4215
 5751TIP3   OH238667   1.528   2.303   6.049  0.1209  0.3033  0.1807
 5751TIP3    H138668   1.515   2.221   6.097 -0.2270  0.1295 -0.2069
 5751TIP3    H238669   1.579   2.358   6.108  2.3821 -1.0475 -0.4377
 5752TIP3   OH238670   2.005   6.549  15.535 -0.9850  0.0879 -0.2156
 5752TIP3    H138671   2.011   6.563  15.629 -0.8665  0.2381 -0.2447
 5752TIP3    H238672   1.916   6.517  15.521 -1.4323  1.3071 -0.2059
 5753TIP3   OH238673   4.630   2.930   0.644  0.1094  0.1522  0.4091
 5753TIP3    H138674   4.663   3.014   0.610  2.4173 -0.6852  0.4475
 5753TIP3    H238675   4.688   2.910   0.717  0.6507 -2.2640 -0.6336
 5754TIP3   OH238676   2.746   4.851   4.752 -0.3341  0.5248  0.1925
 5754TIP3    H138677   2.777   4.920   4.694  2.0300  0.2971  1.1594
 5754TIP3    H238678   2.798   4.774   4.729  0.7460  0.4634  2.6724
 5755TIP3   OH238679   4.152   3.862   2.657  0.3145 -0.8798 -0.0940
 5755TIP3    H138680   4.094   3.935   2.637  1.0188  0.5521  2.7881
 5755TIP3    H238681   4.228   3.876   2.601  1.4634  2.0036  2.0568
 5756TIP3   OH238682   3.292   6.410  14.033 -0.8066  0.1598  0.7394
 5756TIP3    H138683   3.334   6.324  14.024 -1.7499 -0.2859  0.6214
 5756TIP3    H238684   3.349   6.457  14.095  1.1530  0.3784 -1.1597
 5757TIP3   OH238685   4.679   3.006  13.937 -0.8331  0.2936 -0.7246
 5757TIP3    H138686   4.720   3.058  13.868 -1.2323  0.0294 -1.1636
 5757TIP3    H238687   4.703   2.916  13.916  0.8752  0.3792  0.7070
 5758TIP3   OH238688   5.815   3.357  12.471 -0.5329 -0.5694  0.0766
 5758TIP3    H138689   5.740   3.397  12.426 -0.4896 -0.4107  0.1465
 5758TIP3    H238690   5.841   3.421  12.536  0.4012 -0.1103 -0.7332
 5759TIP3   OH238691   4.048   1.342   5.621 -0.0412 -0.1317  0.0555
 5759TIP3    H138692   4.137   1.367   5.647 -0.2260  0.0520  0.5223
 5759TIP3    H238693   3.999   1.341   5.703 -0.4411 -0.3590 -0.1855
 5760TIP3   OH238694   2.110   5.475   0.712  0.0298 -0.0929  0.1412
 5760TIP3    H138695   2.185   5.427   0.678  1.3533  0.9851  1.4477
 5760TIP3    H238696   2.143   5.564   0.728 -1.1089  0.0008  2.1737
 5761TIP3   OH238697   3.898   1.197   0.712  0.1602 -0.0245 -0.4702
 5761TIP3    H138698   3.842   1.136   0.663  1.0655 -0.5234 -0.8942
 5761TIP3    H238699   3.855   1.281   0.702 -0.8082 -0.4962 -0.3491
 5762TIP3   OH238700   1.588   2.072  13.424 -0.3208  0.0957 -0.1242
 5762TIP3    H138701   1.603   2.026  13.341  1.0034 -1.1108  0.7788
 5762TIP3    H238702   1.572   2.003  13.487 -2.1841  1.0429  0.4977
 5763TIP3   OH238703   6.169   2.232   4.863  0.5981 -0.2307 -0.5814
 5763TIP3    H138704   6.135   2.185   4.939  3.5673 -0.7972  0.4569
 5763TIP3    H238705   6.121   2.315   4.864 -0.4815 -0.8392  1.0078
 5764TIP3   OH238706   4.675   4.585   2.542  0.0928 -0.2941  0.4189
 5764TIP3    H138707   4.613   4.658   2.536 -1.8349 -1.8200  1.1677
 5764TIP3    H238708   4.750   4.613   2.489 -1.5041  1.3215 -1.0551
 5765TIP3   OH238709   4.088   3.696   2.432 -0.3428 -0.5021  0.7744
 5765TIP3    H138710   4.159   3.633   2.440  2.4458  2.2233 -1.2811
 5765TIP3    H238711   4.093   3.748   2.512 -0.2871 -0.6058  0.8377
 5766TIP3   OH238712   2.878   5.771  16.840 -0.1320  0.2584 -0.5985
 5766TIP3    H138713   2.816   5.728  16.781 -0.8007  1.4620 -0.7657
 5766TIP3    H238714   2.909   5.847  16.792  1.2356 -0.1505 -0.3906
 5767TIP3   OH238715   3.812   3.095  12.710 -0.1898 -0.3820 -0.3323
 5767TIP3    H138716   3.764   3.119  12.790  1.3271  2.7258 -0.2675
 5767TIP3    H238717   3.750   3.044  12.659 -1.1552 -2.6170  2.8993
 5768TIP3   OH238718   3.077   1.485  16.446  0.2996  0.1814 -0.1573
 5768TIP3    H138719   3.159   1.438  16.433  1.1314  1.1903  1.3012
 5768TIP3    H238720   3.086   1.526  16.532 -0.8454  2.0702 -0.8918
 5769TIP3   OH238721   5.691   3.034  15.616  0.9700 -0.2639  0.7777
 5769TIP3    H138722   5.678   3.029  15.521  0.7184  2.6859  0.6123
 5769TIP3    H238723   5.610   2.998  15.653  0.4949 -0.1424 -0.1228
 5770TIP3   OH238724   3.200   6.025  13.547 -0.5701 -0.0324 -0.2939
 5770TIP3    H138725   3.157   6.107  13.570 -1.4250 -0.0701 -1.7594
 5770TIP3    H238726   3.251   6.045  13.469 -1.4918 -1.1150 -1.1906
 5771TIP3   OH238727   0.800   5.002  13.682  0.1367  0.7004 -0.1392
 5771TIP3    H138728   0.845   5.009  13.598 -0.1430  1.1323 -0.2584
 5771TIP3    H238729   0.782   5.093  13.707  0.0977  0.5687  0.3202
 5772TIP3   OH238730   6.562   1.253   4.087  0.0650 -0.5983  0.3183
 5772TIP3    H138731   6.648   1.276   4.053  0.5424 -2.7840 -0.0179
 5772TIP3    H238732   6.527   1.190   4.023 -1.3173 -0.5476  1.0105
 5773TIP3   OH238733   1.012   5.247   4.877  0.2010  0.0747 -0.0241
 5773TIP3    H138734   1.053   5.277   4.958 -0.0033  1.4607 -0.4147
 5773TIP3    H238735   1.083   5.247   4.813 -0.2982  2.2320 -0.6382
 5774TIP3   OH238736   6.654   6.205  14.947  0.2155 -0.0035 -0.2839
 5774TIP3    H138737   6.561   6.214  14.928 -0.3389 -1.8174  1.3768
 5774TIP3    H238738   6.661   6.225  15.040  1.3537 -0.8041 -0.1921
 5775TIP3   OH238739   2.081   0.893  14.040  0.4139 -0.0458  0.3596
 5775TIP3    H138740   2.074   0.973  13.989 -1.4112 -0.1940  0.3720
 5775TIP3    H238741   2.105   0.826  13.975  1.0780  0.3328  0.2065
 5776TIP3   OH238742   5.287   4.710   5.159  0.5843 -0.3103 -1.0068
 5776TIP3    H138743   5.234   4.773   5.208 -0.0011  0.0911 -2.1125
 5776TIP3    H238744   5.238   4.697   5.077  1.8442 -0.4579 -1.7524
 5777TIP3   OH238745   6.382   4.611  16.270 -0.0061 -0.1549 -0.1504
 5777TIP3    H138746   6.434   4.661  16.207 -1.0007  0.8627 -0.1750
 5777TIP3    H238747   6.328   4.676  16.313 -0.5157 -1.0701  0.6079
 5778TIP3   OH238748   1.459   3.833  13.289  0.3512 -0.1436  0.2858
 5778TIP3    H138749   1.388   3.806  13.347 -1.6910  2.3709 -0.9859
 5778TIP3    H238750   1.418   3.848  13.204  2.3339  1.5503 -0.4343
 5779TIP3   OH238751   2.860   4.367  11.341 -0.0077  0.0415  0.0436
 5779TIP3    H138752   2.916   4.314  11.284  1.9284  0.0039  1.9496
 5779TIP3    H238753   2.880   4.458  11.316  1.7436  0.0700  1.4390
 5780TIP3   OH238754   6.492   2.574  14.183 -0.2668  0.2028 -0.1946
 5780TIP3    H138755   6.467   2.654  14.229 -0.9342 -0.1837  0.1310
 5780TIP3    H238756   6.539   2.522  14.249 -1.4674 -0.4718  0.1374
 5781TIP3   OH238757   1.379   2.630  15.615  0.5439 -0.4883  0.6362
 5781TIP3    H138758   1.391   2.723  15.635 -1.9868  0.0587 -0.2225
 5781TIP3    H238759   1.323   2.598  15.686  0.0803 -0.9711  0.0540
 5782TIP3   OH238760   4.610   1.021   4.102 -0.4229 -0.0221 -0.0519
 5782TIP3    H138761   4.662   0.988   4.175 -1.1429  0.5472  0.7247
 5782TIP3    H238762   4.674   1.035   4.032  0.1068 -1.6151  0.0961
 5783TIP3   OH238763   1.031   1.235  10.794  0.4705  0.3065  0.4597
 5783TIP3    H138764   0.979   1.157  10.811  0.6160  0.2482  0.6402
 5783TIP3    H238765   1.041   1.237  10.698  1.4849 -0.5687  0.5357
 5784TIP3   OH238766   1.500   1.713   1.916 -0.3037 -0.3334 -0.1500
 5784TIP3    H138767   1.484   1.802   1.949 -1.1511  0.1054 -1.6883
 5784TIP3    H238768   1.527   1.726   1.825  0.2341 -1.6218 -0.1777
 5785TIP3   OH238769   0.707   6.746   0.277 -0.8257 -0.0476 -0.4902
 5785TIP3    H138770   0.639   6.789   0.225 -0.7204  0.5434 -0.1456
 5785TIP3    H238771   0.730   6.668   0.227  0.5529  1.4355 -2.2376
 5786TIP3   OH238772   1.859   4.550   4.783  0.0414  0.4260 -0.3257
 5786TIP3    H138773   1.861   4.472   4.728 -0.4998  0.3844 -0.2891
 5786TIP3    H238774   1.904   4.617   4.732 -1.6638  0.7589 -1.3966
 5787TIP3   OH238775   2.558   4.304  11.857 -0.7530 -0.2131  0.8899
 5787TIP3    H138776   2.499   4.229  11.856 -4.3727  2.4812 -0.0480
 5787TIP3    H238777   2.561   4.334  11.767  0.2271  1.0335  1.3234
 5788TIP3   OH238778   1.613   0.381   3.692  0.0038 -0.0246 -0.1812
 5788TIP3    H138779   1.631   0.471   3.719  1.4384 -0.5756  0.7129
 5788TIP3    H238780   1.631   0.328   3.769 -0.8458 -1.0934 -0.7000
 5789TIP3   OH238781   4.079   0.826   2.737 -0.4531 -0.3847 -1.0150
 5789TIP3    H138782   4.105   0.773   2.813 -0.8013 -1.8619 -1.9150
 5789TIP3    H238783   4.056   0.911   2.774  0.9975 -0.5708  0.3515
 5790TIP3   OH238784   4.821   3.132   0.593 -0.1142 -0.2121 -0.2463
 5790TIP3    H138785   4.797   3.138   0.685 -0.5641 -0.9811 -0.3133
 5790TIP3    H238786   4.866   3.215   0.575 -0.7673  0.3002  0.4438
 5791TIP3   OH238787   6.658   5.997   5.820  0.3959  0.4112 -0.1130
 5791TIP3    H138788   6.743   6.001   5.864  1.1960  0.5756 -1.6413
 5791TIP3    H238789   6.665   6.062   5.750 -1.0760  0.5846 -0.0945
 5792TIP3   OH238790   4.128   4.072  16.298  0.0466  0.3583  0.0537
 5792TIP3    H138791   4.141   3.985  16.260 -0.4356  0.5309 -0.5122
 5792TIP3    H238792   4.084   4.055  16.381 -1.0282  0.1201 -0.5486
 5793TIP3   OH238793   5.074   6.665   1.942  0.3628 -0.3531 -0.0985
 5793TIP3    H138794   5.071   6.728   1.870  0.1115  0.3721  0.5388
 5793TIP3    H238795   4.991   6.678   1.988  0.4183 -0.9869  0.1745
 5794TIP3   OH238796   2.180   5.698  12.382 -0.0155  0.8316 -0.1478
 5794TIP3    H138797   2.224   5.783  12.375 -1.1057  1.2341 -2.4079
 5794TIP3    H238798   2.151   5.679  12.293 -0.2284 -1.6876  0.4414
 5795TIP3   OH238799   4.772   2.020  17.022  0.0392 -0.2052  0.0335
 5795TIP3    H138800   4.734   2.042  16.937  0.2052  1.0349  0.2736
 5795TIP3    H238801   4.828   1.944  17.004 -1.6166 -1.3116 -0.5346
 5796TIP3   OH238802   5.791   3.767   1.656 -0.1654  0.7780 -0.1135
 5796TIP3    H138803   5.725   3.711   1.696 -1.4586  0.0280 -3.2091
 5796TIP3    H238804   5.756   3.856   1.666 -0.2749  0.6456  0.7449
 5797TIP3   OH238805   5.237   5.795   4.494  0.2561 -0.2908 -0.3660
 5797TIP3    H138806   5.287   5.715   4.486 -1.7571 -1.8803  2.0191
 5797TIP3    H238807   5.145   5.767   4.485 -0.4303  1.8402 -0.2850
 5798TIP3   OH238808   5.452   0.348   6.016  0.3009  0.1067  0.2523
 5798TIP3    H138809   5.402   0.359   5.935  1.7448 -2.1764 -1.0069
 5798TIP3    H238810   5.390   0.369   6.086 -1.7370 -0.4445 -1.3448
 5799TIP3   OH238811   3.076   1.859   5.766  0.4076  0.4110  0.2766
 5799TIP3    H138812   3.140   1.899   5.708  1.3063  0.8017  1.5243
 5799TIP3    H238813   3.088   1.765   5.755 -1.6170  0.4017 -2.5694
 5800TIP3   OH238814   1.129   4.659  13.639  0.1553 -0.1288 -0.4028
 5800TIP3    H138815   1.088   4.733  13.685 -0.0631  1.0211 -2.3998
 5800TIP3    H238816   1.059   4.594  13.630  0.5840 -0.9944  2.1639
 5801TIP3   OH238817   2.373   1.102   0.397  0.4201 -0.3749  0.2936
 5801TIP3    H138818   2.455   1.113   0.347  0.8129  2.1693  1.4336
 5801TIP3    H238819   2.316   1.172   0.366 -0.4415 -0.6291  1.2653
 5802TIP3   OH238820   0.468   6.179   2.727 -0.2387  0.5608 -0.3860
 5802TIP3    H138821   0.519   6.143   2.799  1.0763  0.4959 -1.3365
 5802TIP3    H238822   0.430   6.259   2.763  1.5055  1.2545 -0.0179
 5803TIP3   OH238823   1.185   2.875  14.065  0.1589 -0.6127 -0.1847
 5803TIP3    H138824   1.171   2.961  14.104 -1.3184 -0.5352 -0.8283
 5803TIP3    H238825   1.117   2.869  13.997  0.4574 -2.1499 -0.3573
 5804TIP3   OH238826   2.592   6.040   1.327  0.3034  0.3852  0.3741
 5804TIP3    H138827   2.580   6.007   1.416  3.1178 -2.6027 -0.2385
 5804TIP3    H238828   2.553   5.973   1.271 -1.2124  2.1088 -0.6950
 5805TIP3   OH238829   0.257   4.207  13.177 -0.2153 -0.1588 -0.1665
 5805TIP3    H138830   0.165   4.183  13.192 -0.5425  1.1011 -0.1407
 5805TIP3    H238831   0.254   4.294  13.139  1.0678  1.2336  2.7295
 5806TIP3   OH238832   3.506   1.745  11.849  0.3733 -0.2248 -0.0042
 5806TIP3    H138833   3.594   1.730  11.883  0.5562  0.2562 -0.2566
 5806TIP3    H238834   3.513   1.827  11.800 -0.7345  1.0292  1.8662
 5807TIP3   OH238835   5.811   2.556  16.219  0.4914  0.2188 -0.3023
 5807TIP3    H138836   5.738   2.555  16.157 -0.0560 -1.5164  0.3551
 5807TIP3    H238837   5.809   2.644  16.256 -0.7812  0.4338 -0.8526
 5808TIP3   OH238838   2.423   4.945   2.883 -0.0152  0.4461  0.2019
 5808TIP3    H138839   2.439   5.038   2.902 -0.6040  0.5613  0.1424
 5808TIP3    H238840   2.424   4.939   2.788  0.3744  0.3311  0.2152
 5809TIP3   OH238841   4.116   6.619  13.021  0.1271 -0.6225 -0.1805
 5809TIP3    H138842   4.119   6.701  12.972 -0.3877  0.0776  0.9357
 5809TIP3    H238843   4.062   6.561  12.968 -0.3215  0.0882 -0.5081
 5810TIP3   OH238844   6.200   5.074   2.190 -0.2733  0.4092  0.4404
 5810TIP3    H138845   6.284   5.029   2.201  0.4527  1.3824 -1.0051
 5810TIP3    H238846   6.140   5.006   2.160  0.2518 -0.0578  0.4469
 5811TIP3   OH238847   1.195   4.660   5.840  0.2832 -0.2153 -0.2752
 5811TIP3    H138848   1.171   4.751   5.852  0.4452 -0.3465  1.0514
 5811TIP3    H238849   1.187   4.646   5.745  1.0375  1.3856 -0.6006
 5812TIP3   OH238850   0.892   1.271  14.814  0.2739 -0.1553 -1.0833
 5812TIP3    H138851   0.938   1.290  14.732  1.7616 -0.2743 -0.2991
 5812TIP3    H238852   0.806   1.240  14.787  0.8153 -0.3676 -2.6019
 5813TIP3   OH238853   2.572   2.692  14.608 -0.4501  0.4042  0.0404
 5813TIP3    H138854   2.663   2.708  14.632 -0.2939 -1.0501  0.4697
 5813TIP3    H238855   2.530   2.665  14.689 -0.9924 -0.0469 -0.3846
 5814TIP3   OH238856   6.259   2.446   5.742 -0.0687 -0.0444  0.7783
 5814TIP3    H138857   6.289   2.427   5.831  1.6314  1.9403  0.6766
 5814TIP3    H238858   6.287   2.370   5.691 -0.9625 -1.1445  1.9067
 5815TIP3   OH238859   3.506   2.193   6.043 -0.2761 -0.0685  0.3597
 5815TIP3    H138860   3.472   2.261   5.985 -0.6342 -0.4173  0.1570
 5815TIP3    H238861   3.441   2.186   6.113  0.8721  1.3632  1.5826
 5816TIP3   OH238862   4.247   2.125   2.984 -0.1984 -0.7867  0.2784
 5816TIP3    H138863   4.190   2.159   2.915 -0.9122  0.0514  1.2617
 5816TIP3    H238864   4.237   2.030   2.979  0.2812 -0.7692 -1.1999
 5817TIP3   OH238865   1.076   5.181   4.453 -0.3686 -0.0934 -0.3247
 5817TIP3    H138866   1.007   5.237   4.486 -0.3244  0.6412 -1.4521
 5817TIP3    H238867   1.048   5.158   4.364  0.4694 -0.3880 -0.5190
 5818TIP3   OH238868   1.679   5.413  17.008  0.1867 -0.4324 -0.2512
 5818TIP3    H138869   1.686   5.323  16.976 -1.1439 -0.5487 -0.2532
 5818TIP3    H238870   1.730   5.414  17.088  0.2946 -1.1661 -0.3088
 5819TIP3   OH238871   0.766   6.427   1.503 -0.2875  0.4193 -0.1374
 5819TIP3    H138872   0.847   6.437   1.552  0.3601 -0.3546 -1.0386
 5819TIP3    H238873   0.702   6.480   1.551  0.3422 -0.2854  1.4910
 5820TIP3   OH238874   5.355   1.375   3.937 -0.4564 -0.2733  0.2535
 5820TIP3    H138875   5.421   1.306   3.927 -1.2516 -0.9822 -0.1975
 5820TIP3    H238876   5.403   1.450   3.971  0.2442 -1.3796  1.7552
 5821TIP3   OH238877   1.598   5.737   5.602  0.3323  0.0562 -0.9599
 5821TIP3    H138878   1.604   5.826   5.566  0.2341  0.5349  0.1899
 5821TIP3    H238879   1.583   5.681   5.526 -0.4539  1.1246 -1.6046
 5822TIP3   OH238880   1.951   5.525  10.372  0.0810 -0.7561 -0.1449
 5822TIP3    H138881   2.012   5.466  10.416  0.4244  0.3095  0.8376
 5822TIP3    H238882   1.865   5.498  10.404  0.0754 -1.8280 -1.0210
 5823TIP3   OH238883   2.942   2.131   4.882  0.2152  0.1104 -0.3695
 5823TIP3    H138884   2.948   2.090   4.968 -0.2229  1.0740  0.1368
 5823TIP3    H238885   3.017   2.098   4.834  0.1244 -0.9156  0.1748
 5824TIP3   OH238886   4.653   3.969  16.239  0.3609  0.5239  0.7034
 5824TIP3    H138887   4.655   4.065  16.242  1.6439  0.4966  1.1184
 5824TIP3    H238888   4.693   3.947  16.155 -0.1355  0.3571  0.5114
 5825TIP3   OH238889   6.006   4.267  15.341  0.1328  0.3155  0.1147
 5825TIP3    H138890   6.018   4.200  15.408  1.3521  2.5373  2.2098
 5825TIP3    H238891   5.922   4.309  15.363 -0.0542  0.2592 -0.4707
 5826TIP3   OH238892   5.310   0.520  12.596  0.1135 -0.0572  0.2370
 5826TIP3    H138893   5.342   0.436  12.630  0.4158  0.0121  0.1270
 5826TIP3    H238894   5.298   0.505  12.503 -2.6728 -0.8546  0.6901
 5827TIP3   OH238895   3.579   1.418  11.265  0.5712  0.0245  0.2309
 5827TIP3    H138896   3.633   1.440  11.189 -1.6070  4.3258 -0.2630
 5827TIP3    H238897   3.501   1.378  11.228  0.5456 -0.0842  0.4036
 5828TIP3   OH238898   1.710   3.580  12.044 -0.0454 -0.6579  0.4473
 5828TIP3    H138899   1.768   3.508  12.070  0.3720 -0.6920 -0.5720
 5828TIP3    H238900   1.700   3.571  11.950 -1.5634 -0.5259  0.5819
 5829TIP3   OH238901   1.428   6.719   1.063 -0.0663  0.6767 -0.1840
 5829TIP3    H138902   1.364   6.786   1.035  0.2596  1.1515  0.1980
 5829TIP3    H238903   1.466   6.687   0.981 -0.8649  0.3215 -0.4190
 5830TIP3   OH238904   4.888   6.465   1.873 -0.0793  0.6135  0.0479
 5830TIP3    H138905   4.923   6.418   1.797 -0.9023 -2.3470  1.3960
 5830TIP3    H238906   4.962   6.518   1.904  1.0048 -0.0144 -1.3511
 5831TIP3   OH238907   4.346   4.990  15.688 -0.3393 -0.0584  0.8746
 5831TIP3    H138908   4.417   4.963  15.630 -0.3521 -2.7601  2.0659
 5831TIP3    H238909   4.272   5.006  15.629  0.7572  1.2232 -0.2112
 5832TIP3   OH238910   1.871   2.286  14.090 -0.3518  0.4258 -0.0990
 5832TIP3    H138911   1.779   2.257  14.090 -0.1975 -0.1179 -2.3878
 5832TIP3    H238912   1.921   2.207  14.073  0.4450  1.0209 -0.5297
 5833TIP3   OH238913   2.194   2.580  14.542 -0.6933 -0.6801  0.3561
 5833TIP3    H138914   2.279   2.556  14.577  1.0478  2.4089 -1.5447
 5833TIP3    H238915   2.174   2.511  14.479  1.2813 -0.5183 -0.4885
 5834TIP3   OH238916   0.824   3.812  16.329 -0.6438  0.0065 -0.5201
 5834TIP3    H138917   0.779   3.749  16.274 -0.3863 -0.6460  0.0118
 5834TIP3    H238918   0.758   3.839  16.393 -0.3435 -0.8047  0.1384
 5835TIP3   OH238919   4.575   4.245   3.671 -0.3758  0.1285 -0.1197
 5835TIP3    H138920   4.534   4.332   3.671  1.2384  0.9097 -0.8054
 5835TIP3    H238921   4.575   4.219   3.579 -1.8535 -1.0923  0.2122
 5836TIP3   OH238922   3.435   6.300  12.610 -0.3537  0.0745 -0.2394
 5836TIP3    H138923   3.357   6.295  12.554 -0.9243 -1.5380  0.6598
 5836TIP3    H238924   3.491   6.228  12.580 -0.7215 -0.8928  1.2974
 5837TIP3   OH238925   6.175   0.601  13.570  0.2305 -0.1677 -0.5127
 5837TIP3    H138926   6.100   0.544  13.556 -1.1158  1.7578 -1.4280
 5837TIP3    H238927   6.232   0.552  13.630 -1.5762 -1.8105 -0.0905
 5838TIP3   OH238928   6.025   3.194  17.099  0.8792 -0.3046  0.2840
 5838TIP3    H138929   5.954   3.144  17.060  0.0022  0.8239  0.4159
 5838TIP3    H238930   6.043   3.150  17.182 -1.1278  0.6450  1.2572
 5839TIP3   OH238931   2.401   3.754  12.212  0.2159 -0.2850 -0.1634
 5839TIP3    H138932   2.335   3.761  12.281 -0.9346 -1.6632 -1.0865
 5839TIP3    H238933   2.411   3.844  12.179 -1.3570 -0.0895 -0.1506
 5840TIP3   OH238934   5.153   5.698   1.230 -0.1482 -0.3858  0.3042
 5840TIP3    H138935   5.216   5.758   1.190 -1.6576  0.6225 -0.6411
 5840TIP3    H238936   5.146   5.626   1.168 -0.1999 -0.3069  0.2177
 5841TIP3   OH238937   3.097   4.304  13.547  0.5046  0.8412 -0.3111
 5841TIP3    H138938   3.037   4.375  13.568  0.9995  0.8823  1.0514
 5841TIP3    H238939   3.183   4.338  13.572  0.8113 -0.0171 -0.1935
 5842TIP3   OH238940   3.908   0.923   4.714  0.4715 -0.1425  0.7141
 5842TIP3    H138941   4.004   0.920   4.712  0.4769  0.7578 -1.1136
 5842TIP3    H238942   3.881   0.843   4.669  0.3637  0.1027  0.3461
 5843TIP3   OH238943   6.500   1.143   5.774 -0.3304 -0.3387 -0.2141
 5843TIP3    H138944   6.557   1.220   5.777  0.2641 -0.6614 -2.7620
 5843TIP3    H238945   6.489   1.119   5.866  1.4503  1.3355  0.4774
 5844TIP3   OH238946   5.182   5.187  14.157  0.2675 -0.6535  0.1877
 5844TIP3    H138947   5.157   5.230  14.075 -1.7949 -0.7126  0.7581
 5844TIP3    H238948   5.104   5.193  14.212  1.0732 -2.1266  1.5304
 5845TIP3   OH238949   5.997   3.290   3.759 -0.3042  0.0868 -0.0886
 5845TIP3    H138950   6.015   3.372   3.805 -2.0009  0.3920  0.0588
 5845TIP3    H238951   5.991   3.224   3.828 -0.6916  0.1527 -0.0603
 5846TIP3   OH238952   0.653   4.599   5.099  0.3334 -0.1562  0.0197
 5846TIP3    H138953   0.710   4.544   5.152 -1.1804 -2.6228 -0.8501
 5846TIP3    H238954   0.567   4.593   5.142  0.1434  1.5171 -0.1031
 5847TIP3   OH238955   6.074   5.024  13.123 -0.4875  0.4275  0.1334
 5847TIP3    H138956   6.039   5.015  13.212 -0.7831 -1.8918 -0.1923
 5847TIP3    H238957   5.998   5.016  13.066 -0.2280  1.4245 -0.3695
 5848TIP3   OH238958   5.247   2.077  15.816 -0.4007 -0.3591 -0.0345
 5848TIP3    H138959   5.183   2.142  15.844 -1.4495 -1.9183  1.2364
 5848TIP3    H238960   5.217   1.994  15.853  0.5464 -1.7307 -2.1898
 5849TIP3   OH238961   0.370   2.757   0.968 -0.0257  0.4734  0.4020
 5849TIP3    H138962   0.340   2.697   1.036 -0.7694  1.3485  0.8692
 5849TIP3    H238963   0.310   2.832   0.975  1.1187  1.4245  0.0855
 5850TIP3   OH238964   3.919   5.087  14.501 -0.2606  0.2250 -0.3038
 5850TIP3    H138965   3.982   5.053  14.564 -0.5921 -0.9845 -0.6034
 5850TIP3    H238966   3.843   5.029  14.509 -0.4564  0.2913 -1.5156
 5851TIP3   OH238967   2.568   4.674   4.014 -0.3124  0.2494  0.0416
 5851TIP3    H138968   2.610   4.693   4.098 -0.6418  0.8936  0.0617
 5851TIP3    H238969   2.477   4.657   4.035 -0.2199 -0.4309 -0.0902
 5852TIP3   OH238970   3.939   2.299   3.798  0.3713 -0.4946  0.1544
 5852TIP3    H138971   4.023   2.292   3.843  0.6619  0.4986 -0.2167
 5852TIP3    H238972   3.941   2.385   3.757 -0.4867 -0.8007 -0.5542
 5853TIP3   OH238973   6.368   4.340   2.966  0.0941  0.5721 -0.0533
 5853TIP3    H138974   6.277   4.315   2.980  0.0941  0.8692  0.4878
 5853TIP3    H238975   6.383   4.413   3.026  0.6575  0.5911 -0.2103
 5854TIP3   OH238976   6.455   5.332   0.407  0.1975  0.4176 -0.0691
 5854TIP3    H138977   6.440   5.369   0.494 -0.2735  0.9154 -0.3596
 5854TIP3    H238978   6.549   5.315   0.404  0.3149  0.9981  0.3035
 5855TIP3   OH238979   4.404   1.535  10.905 -0.1958  0.3007 -0.4790
 5855TIP3    H138980   4.369   1.485  10.831  0.1257 -1.2305  0.3951
 5855TIP3    H238981   4.328   1.582  10.939 -0.8819 -1.0318 -0.1603
 5856TIP3   OH238982   2.611   6.607  14.617 -0.0187  0.0005 -0.0816
 5856TIP3    H138983   2.640   6.676  14.676 -0.9070  1.2092 -1.0443
 5856TIP3    H238984   2.555   6.551  14.671  1.5275 -0.5697  0.9638
 5857TIP3   OH238985   6.071   3.200  12.423 -0.0964  0.3982 -0.3551
 5857TIP3    H138986   6.083   3.175  12.331  0.9221  0.5526 -0.2691
 5857TIP3    H238987   6.022   3.282  12.419 -0.6448  0.0561 -0.7383
 5858TIP3   OH238988   4.427   6.597   0.962  0.3727 -0.1995  0.0942
 5858TIP3    H138989   4.417   6.512   1.006 -1.1495 -0.4316 -0.6745
 5858TIP3    H238990   4.499   6.639   1.009 -0.3461 -0.9889  1.9582
 5859TIP3   OH238991   2.873   4.668  15.280  0.2276  0.1992 -0.4772
 5859TIP3    H138992   2.897   4.732  15.213 -1.3543  0.2769 -0.9853
 5859TIP3    H238993   2.824   4.601  15.233  0.0558 -0.3080  0.4160
 5860TIP3   OH238994   2.451   3.114  15.564  0.0218 -0.8806 -0.4722
 5860TIP3    H138995   2.492   3.042  15.516  0.6216 -0.0160 -1.2803
 5860TIP3    H238996   2.366   3.126  15.521  1.3208  1.1149 -2.5645
 5861TIP3   OH238997   5.496   0.521  15.726  0.5157  0.4644 -0.3961
 5861TIP3    H138998   5.402   0.523  15.742  0.3605 -1.3827 -0.9781
 5861TIP3    H238999   5.511   0.441  15.677  2.5431  0.1849  0.6084
 5862TIP3   OH239000   3.820   6.393   4.534  0.8596  0.7779 -0.5562
 5862TIP3    H139001   3.867   6.392   4.450  0.0996 -2.6207 -1.0470
 5862TIP3    H239002   3.876   6.343   4.593  0.2163  1.0236  0.2639
 5863TIP3   OH239003   6.524   0.015  12.332  0.0581 -0.4880  0.2021
 5863TIP3    H139004   6.522  -0.046  12.406 -3.6189 -1.3657 -0.5335
 5863TIP3    H239005   6.450   0.074  12.348  0.3620  0.4602 -1.8156
 5864TIP3   OH239006   6.115   1.605   2.952 -0.4487 -0.3146 -0.1766
 5864TIP3    H139007   6.030   1.571   2.981 -1.9286  2.5953 -0.9560
 5864TIP3    H239008   6.148   1.655   3.026  0.0617 -0.5003 -0.2768
 5865TIP3   OH239009   4.520   5.012  16.111 -0.1082  0.6336  0.0830
 5865TIP3    H139010   4.574   4.964  16.048  1.8303  1.8369  0.7854
 5865TIP3    H239011   4.572   5.013  16.191 -2.3372 -0.4630  1.5959
 5866TIP3   OH239012   5.193   3.445  15.769 -0.2263 -0.3117 -0.2977
 5866TIP3    H139013   5.135   3.450  15.693  0.2546 -1.3325 -0.7382
 5866TIP3    H239014   5.186   3.354  15.799  0.4369 -0.2021  0.2012
 5867TIP3   OH239015   4.596   5.948   2.938  0.0576  0.1042 -0.8532
 5867TIP3    H139016   4.666   5.883   2.944 -3.1263 -3.3778  0.8265
 5867TIP3    H239017   4.567   5.944   2.847  1.3456  0.8537 -1.3093
 5868TIP3   OH239018   1.894   0.812  13.154 -0.1159  0.4701  0.0605
 5868TIP3    H139019   1.968   0.866  13.182  0.0230  1.7978 -2.6810
 5868TIP3    H239020   1.926   0.764  13.078 -2.2054  1.5555 -1.5628
 5869TIP3   OH239021   4.510   2.656   0.783 -0.4473  0.0579 -0.6061
 5869TIP3    H139022   4.444   2.722   0.806 -0.3120  0.0807 -0.2797
 5869TIP3    H239023   4.553   2.635   0.867 -2.3642 -2.4768 -0.2082
 5870TIP3   OH239024   3.165   1.612  13.806 -0.2739 -0.3966 -0.3363
 5870TIP3    H139025   3.139   1.638  13.895 -0.7474 -2.6988  0.2382
 5870TIP3    H239026   3.161   1.693  13.755 -1.5396  0.6645  1.3902
 5871TIP3   OH239027   1.045   2.065  11.946  0.7886 -0.0698  0.5230
 5871TIP3    H139028   1.008   1.977  11.958  1.8329 -0.4190  1.2437
 5871TIP3    H239029   1.112   2.053  11.879  0.8492  0.2029  0.5381
 5872TIP3   OH239030   4.685   1.969   1.173  0.0364  0.3588  0.4288
 5872TIP3    H139031   4.776   1.947   1.154 -0.1712  1.0873 -1.5635
 5872TIP3    H239032   4.667   1.927   1.257  2.2285  0.2736  0.8984
 5873TIP3   OH239033   0.875   0.155   0.630 -0.8582  0.2620  0.3014
 5873TIP3    H139034   0.839   0.161   0.718 -0.3509 -2.2860  0.6980
 5873TIP3    H239035   0.917   0.240   0.616 -0.7008  0.5982  2.6073
 5874TIP3   OH239036   4.077   0.175  12.044 -0.3790 -0.5121 -0.0545
 5874TIP3    H139037   4.044   0.263  12.062 -0.2575 -0.5003  0.1146
 5874TIP3    H239038   4.120   0.148  12.126 -0.1986 -0.6301 -0.1863
 5875TIP3   OH239039   3.039   2.855   3.185  0.1393 -0.5029  0.2863
 5875TIP3    H139040   3.094   2.817   3.254 -1.7902 -0.5122  1.8543
 5875TIP3    H239041   3.044   2.949   3.201  2.1929 -0.2810 -1.5110
 5876TIP3   OH239042   4.724   2.222  13.343  0.1306 -0.1726 -0.3448
 5876TIP3    H139043   4.697   2.166  13.271 -0.0502 -1.4517  0.6887
 5876TIP3    H239044   4.659   2.206  13.412  0.5449  0.6811  0.2612
 5877TIP3   OH239045   4.200   1.677  16.075 -0.2636 -0.6573 -0.4056
 5877TIP3    H139046   4.122   1.620  16.080  1.4595 -3.2023 -1.3772
 5877TIP3    H239047   4.208   1.714  16.163 -3.4748  0.9184 -0.7110
 5878TIP3   OH239048   0.970   4.638  10.778  0.5309  0.2452  0.5359
 5878TIP3    H139049   1.033   4.594  10.721 -0.7581 -0.5706 -0.2682
 5878TIP3    H239050   0.905   4.674  10.719 -1.3950 -1.4885  1.5348
 5879TIP3   OH239051   4.729   2.332  12.304  0.0653 -0.4336  0.4409
 5879TIP3    H139052   4.658   2.272  12.325 -0.2895 -0.4190 -0.6516
 5879TIP3    H239053   4.789   2.279  12.251 -0.4174  0.2377 -0.8132
 5880TIP3   OH239054   6.178   3.899  12.701 -0.6245  0.3914  0.0436
 5880TIP3    H139055   6.168   3.993  12.715 -1.8505  0.0320  1.8231
 5880TIP3    H239056   6.097   3.861  12.734 -0.3090 -1.2638 -1.0183
 5881TIP3   OH239057   2.874   1.053  16.335  0.0044  0.0686  0.0401
 5881TIP3    H139058   2.886   1.088  16.423  1.2538  0.4124 -0.2572
 5881TIP3    H239059   2.871   0.958  16.348  1.5357  0.0422  0.3217
 5882TIP3   OH239060   3.713   6.388  16.567  0.1553  0.2882 -0.0755
 5882TIP3    H139061   3.762   6.418  16.490  0.7558  1.5569  0.7844
 5882TIP3    H239062   3.762   6.424  16.641  1.1266 -3.1200  1.0213
 5883TIP3   OH239063   4.518   0.945   2.211  0.0837 -0.2322 -0.6593
 5883TIP3    H139064   4.531   0.972   2.120  0.0037  1.4984 -0.1831
 5883TIP3    H239065   4.423   0.932   2.220 -0.0229  0.5342 -0.5945
 5884TIP3   OH239066   2.345   0.239   0.120  0.3432 -0.0565  0.1351
 5884TIP3    H139067   2.413   0.211   0.058 -0.0686 -0.9255  0.0778
 5884TIP3    H239068   2.381   0.318   0.161  1.7472 -0.9694  0.6977
 5885TIP3   OH239069   3.446   5.251  13.368  0.0003  0.6380  0.0972
 5885TIP3    H139070   3.367   5.303  13.377 -1.7395 -1.9898  0.3125
 5885TIP3    H239071   3.440   5.212  13.281  1.1501  0.5341  0.0509
 5886TIP3   OH239072   2.444   6.279  13.966  0.4108  0.5952 -0.1701
 5886TIP3    H139073   2.514   6.271  13.901 -0.2050 -2.4599 -0.5724
 5886TIP3    H239074   2.450   6.197  14.017 -1.4873  1.2602  1.1842
 5887TIP3   OH239075   4.558   5.133  14.374  0.1772 -0.1918 -0.7003
 5887TIP3    H139076   4.637   5.127  14.428  1.1751  1.0682 -1.9678
 5887TIP3    H239077   4.504   5.199  14.418  1.0150  0.8809 -1.2518
 5888TIP3   OH239078   5.383   4.176   1.587 -0.1696  0.4135  0.7365
 5888TIP3    H139079   5.323   4.220   1.528  0.5361  1.2291  0.6222
 5888TIP3    H239080   5.403   4.093   1.543  1.2365  1.4923 -0.7324
 5889TIP3   OH239081   3.740   4.105   0.588  0.1576 -0.2699  0.2128
 5889TIP3    H139082   3.675   4.175   0.580 -1.1041 -1.3610  0.7188
 5889TIP3    H239083   3.795   4.131   0.662  0.6317  0.9076 -0.5322
 5890TIP3   OH239084   1.710   1.272  16.017  0.0960 -0.1081 -0.1499
 5890TIP3    H139085   1.761   1.200  16.054 -0.6639 -0.5482  0.0515
 5890TIP3    H239086   1.737   1.349  16.069  0.6819 -0.2997 -0.1679
 5891TIP3   OH239087   4.850   1.251  14.402 -0.5139 -0.1454  0.1438
 5891TIP3    H139088   4.879   1.284  14.487  1.0782  0.3519 -0.5595
 5891TIP3    H239089   4.922   1.274  14.342 -1.5424 -0.6194 -1.2972
 5892TIP3   OH239090   6.232   3.004  14.116  0.2251 -0.1375  0.0220
 5892TIP3    H139091   6.192   2.919  14.133 -0.7721  0.3700  0.2728
 5892TIP3    H239092   6.293   3.017  14.188 -0.3538 -0.2037  0.5280
 5893TIP3   OH239093   3.880   6.292  15.697 -0.3495  0.1976 -0.4756
 5893TIP3    H139094   3.799   6.340  15.677 -0.0272  1.3741  0.9652
 5893TIP3    H239095   3.945   6.361  15.712  1.0632 -0.7412 -2.1169
 5894TIP3   OH239096   3.257   1.724  13.293  0.0357 -0.1655 -0.4220
 5894TIP3    H139097   3.262   1.668  13.215  0.4030 -0.6570 -0.0542
 5894TIP3    H239098   3.169   1.708  13.327  0.0435 -0.3170 -0.4684
 5895TIP3   OH239099   5.729   0.275   1.837 -0.0615 -0.0660  0.0424
 5895TIP3    H139100   5.743   0.325   1.917  1.9910  1.4229 -1.2005
 5895TIP3    H239101   5.738   0.184   1.865  1.7265  0.4740  1.3160
 5896TIP3   OH239102   0.742   2.731  12.483  0.4299  0.8283 -0.0605
 5896TIP3    H139103   0.803   2.713  12.411  1.9341  2.2183  0.8196
 5896TIP3    H239104   0.785   2.694  12.560 -1.2099 -0.7164  0.1345
 5897TIP3   OH239105   5.143   6.087  15.213  0.1225  0.0492 -0.2858
 5897TIP3    H139106   5.220   6.087  15.271 -0.2567  1.5730  0.2206
 5897TIP3    H239107   5.159   6.013  15.154  0.9538 -0.9646  1.1701
 5898TIP3   OH239108   4.991   3.759   1.904 -0.5226 -0.0624  0.0889
 5898TIP3    H139109   5.030   3.826   1.960 -0.3303  0.4835 -0.6796
 5898TIP3    H239110   4.911   3.733   1.949  0.0767 -0.2702  1.0495
 5899TIP3   OH239111   0.768   1.039   0.840  0.2495 -0.9778 -0.8291
 5899TIP3    H139112   0.728   0.954   0.824 -0.6326 -0.5094 -1.1595
 5899TIP3    H239113   0.703   1.102   0.810 -0.6427 -0.0777  2.7647
 5900TIP3   OH239114   2.986   5.138  14.376 -0.4366 -0.1742  0.2173
 5900TIP3    H139115   3.042   5.180  14.441 -0.5395  0.6316 -0.2068
 5900TIP3    H239116   2.900   5.135  14.418 -0.0624 -1.5578  0.9299
 5901TIP3   OH239117   2.268   0.510  12.818 -0.0194  0.2071 -0.5424
 5901TIP3    H139118   2.314   0.426  12.814  2.4439  1.3271  2.3564
 5901TIP3    H239119   2.331   0.572  12.782 -0.3359  1.3741  0.8923
 5902TIP3   OH239120   6.763   1.943  12.336 -0.1096  0.4052  0.2280
 5902TIP3    H139121   6.764   1.850  12.312  2.0611  0.4707 -0.0440
 5902TIP3    H239122   6.773   1.943  12.431 -1.3387  0.3320  0.3596
 5903TIP3   OH239123   2.829   5.352   6.242 -0.5543 -0.0789 -0.1951
 5903TIP3    H139124   2.895   5.420   6.228  0.6686 -1.0538  0.7150
 5903TIP3    H239125   2.775   5.385   6.314  0.5873 -0.4557  0.8492
 5904TIP3   OH239126   1.994   2.227  11.496  0.4065  0.1253 -0.1841
 5904TIP3    H139127   2.068   2.286  11.481  0.8776 -0.1036  1.1579
 5904TIP3    H239128   1.927   2.283  11.537  1.0012 -0.3602  1.4498
 5905TIP3   OH239129   6.019   4.798  10.975  0.1704 -0.2195  0.5045
 5905TIP3    H139130   5.926   4.813  10.957  0.7228  1.0500 -1.4197
 5905TIP3    H239131   6.052   4.755  10.897  1.9102  2.3969 -0.2536
 5906TIP3   OH239132   4.763   6.489   5.755  0.4525 -0.8589 -0.1907
 5906TIP3    H139133   4.772   6.524   5.844 -1.8274  0.5813 -0.4910
 5906TIP3    H239134   4.724   6.403   5.767  0.9371 -1.0196  0.2524
 5907TIP3   OH239135   3.668   5.136  11.492  0.3003  0.1145 -0.0231
 5907TIP3    H139136   3.713   5.218  11.510  1.9596 -0.4420 -1.4856
 5907TIP3    H239137   3.604   5.158  11.424 -0.3059  0.4933  0.6614
 5908TIP3   OH239138   1.997   2.017  11.712  0.1311 -0.0649 -0.0574
 5908TIP3    H139139   2.010   2.082  11.642  0.4756 -0.9984 -0.8719
 5908TIP3    H239140   2.081   2.016  11.759  0.4169 -0.5215 -0.5676
 5909TIP3   OH239141   0.637   5.482  13.125  0.1335  0.2339 -0.5102
 5909TIP3    H139142   0.621   5.547  13.056  1.5757  0.1886 -0.8888
 5909TIP3    H239143   0.655   5.401  13.079 -1.8871 -0.5127 -0.0283
 5910TIP3   OH239144   5.388   1.305   4.627 -0.2667  0.1956 -0.0517
 5910TIP3    H139145   5.418   1.388   4.665  1.1148 -1.1678  1.9232
 5910TIP3    H239146   5.435   1.298   4.544 -0.6869  1.5620 -0.4210
 5911TIP3   OH239147   1.998   3.728   0.436  0.5747  0.2940 -0.4516
 5911TIP3    H139148   1.956   3.677   0.367 -1.6029 -1.3417  2.0045
 5911TIP3    H239149   1.925   3.756   0.493  2.4503  0.2989  2.0259
 5912TIP3   OH239150   5.022   5.218   2.425 -0.5132  0.4123 -0.5540
 5912TIP3    H139151   5.113   5.245   2.438 -0.6766  1.0531 -0.7427
 5912TIP3    H239152   4.970   5.283   2.472 -0.9093  0.4929 -1.0943
 5913TIP3   OH239153   6.003   1.744  17.187  0.0501 -0.0119 -0.6051
 5913TIP3    H139154   5.951   1.808  17.140 -1.9772  0.8108  2.6381
 5913TIP3    H239155   5.942   1.673  17.208  0.3443  0.5194  2.3846
 5914TIP3   OH239156   0.015   2.143   3.761  0.4047 -0.2949  0.1367
 5914TIP3    H139157   0.032   2.066   3.815 -2.0946  1.5771  3.7683
 5914TIP3    H239158   0.094   2.197   3.769  0.4250 -0.4742  1.1769
 5915TIP3   OH239159   2.014   5.967  13.324  0.2080 -0.2181  0.1586
 5915TIP3    H139160   2.005   6.047  13.375 -1.4107 -2.3005  3.3131
 5915TIP3    H239161   2.105   5.942  13.334 -0.2076 -0.8797  2.5441
 5916TIP3   OH239162   5.995   4.258   3.193  0.0230 -0.1581 -0.2418
 5916TIP3    H139163   5.954   4.172   3.183  0.1833 -0.1785 -0.7002
 5916TIP3    H239164   5.921   4.317   3.211 -0.0594 -0.4317  0.3614
 5917TIP3   OH239165   4.231   3.812   0.646  1.0107  0.0671  0.1384
 5917TIP3    H139166   4.136   3.806   0.646  0.9598  0.8639  0.3799
 5917TIP3    H239167   4.251   3.892   0.695  1.7958 -0.0157 -0.0287
 5918TIP3   OH239168   2.090   5.754  10.505  0.1502 -0.4943  0.1419
 5918TIP3    H139169   2.049   5.681  10.459 -0.6684 -1.2041  1.9632
 5918TIP3    H239170   2.163   5.714  10.553  1.0629  0.2553 -0.6091
 5919TIP3   OH239171   4.932   2.433   3.317  0.3802 -0.4036 -0.2588
 5919TIP3    H139172   4.860   2.385   3.277 -0.2382  0.2371  0.0871
 5919TIP3    H239173   4.899   2.522   3.329  1.1364 -0.1678  0.1385
 5920TIP3   OH239174   3.404   4.303  12.259 -0.1677  0.3199 -0.1629
 5920TIP3    H139175   3.386   4.210  12.249 -1.4997  0.4046  1.2407
 5920TIP3    H239176   3.498   4.312  12.243  0.1032 -1.3715  0.4562
 5921TIP3   OH239177   5.262   6.197   3.935 -0.9576 -0.7087 -1.0418
 5921TIP3    H139178   5.198   6.266   3.916  1.9638  1.6876 -2.3524
 5921TIP3    H239179   5.308   6.228   4.013  0.2604 -1.2701 -1.5299
 5922TIP3   OH239180   0.698   3.186   2.580 -0.4816 -0.2612 -0.3056
 5922TIP3    H139181   0.732   3.171   2.492 -2.7551 -1.1395 -1.0703
 5922TIP3    H239182   0.724   3.108   2.629 -2.0946 -1.3386 -1.1208
 5923TIP3   OH239183   2.456   4.439   3.337 -0.4254 -0.2577  0.2639
 5923TIP3    H139184   2.382   4.476   3.289  0.1014  0.5698  0.0696
 5923TIP3    H239185   2.425   4.432   3.427 -1.9954 -3.3997 -0.4700
 5924TIP3   OH239186   6.059   6.175   1.083  0.3201  0.1307 -0.6432
 5924TIP3    H139187   6.116   6.111   1.127 -0.6227 -0.0081  0.4033
 5924TIP3    H239188   5.991   6.122   1.041  0.5300  0.3385 -1.2459
 5925TIP3   OH239189   0.205   0.050  11.204 -0.0291  0.2430 -0.0990
 5925TIP3    H139190   0.254   0.033  11.123 -1.1936  2.3264 -1.2711
 5925TIP3    H239191   0.260   0.111  11.252 -0.3143  0.6261 -0.2634
 5926TIP3   OH239192   6.238   3.611   4.169  0.1198 -0.5356  0.0025
 5926TIP3    H139193   6.249   3.689   4.223  1.7232 -1.4136  1.0201
 5926TIP3    H239194   6.293   3.626   4.092 -0.3572 -0.2483 -0.2840
 5927TIP3   OH239195   6.262   4.131   1.862  0.0744  0.1374 -0.0380
 5927TIP3    H139196   6.343   4.132   1.913  0.1277  0.4255 -0.1318
 5927TIP3    H239197   6.193   4.132   1.928  0.1401  1.0675  0.0219
 5928TIP3   OH239198   2.809   0.014   0.225  0.0956  0.3786 -0.1434
 5928TIP3    H139199   2.820  -0.080   0.240 -2.5022  0.2041  0.8175
 5928TIP3    H239200   2.745   0.042   0.290 -0.4667  2.4795 -1.5469
 5929TIP3   OH239201   2.570   1.649   4.554 -0.0631  0.7487 -0.1663
 5929TIP3    H139202   2.565   1.701   4.475 -0.6180 -0.9329 -1.2647
 5929TIP3    H239203   2.572   1.558   4.524  1.0981  0.1069  1.6792
 5930TIP3   OH239204   5.635   0.424   1.298  0.1623  0.4679  0.4132
 5930TIP3    H139205   5.721   0.461   1.281 -0.4995  1.2460 -1.4351
 5930TIP3    H239206   5.581   0.453   1.224 -1.8219  0.4391  1.7851
 5931TIP3   OH239207   4.959   2.351   0.089 -0.2136 -0.1176 -0.4077
 5931TIP3    H139208   4.896   2.417   0.058 -0.0668 -0.3314 -1.1867
 5931TIP3    H239209   4.930   2.330   0.177  0.3552  1.7655  0.2541
 5932TIP3   OH239210   6.194   2.859   0.080  0.0452 -0.2274 -0.2633
 5932TIP3    H139211   6.223   2.873  -0.010  0.4078 -1.5066 -0.3502
 5932TIP3    H239212   6.114   2.910   0.088  1.1687  1.6345 -0.6632
 5933TIP3   OH239213   5.154   1.042  11.991  0.0289 -0.4254  0.5223
 5933TIP3    H139214   5.179   1.093  11.914  1.8058  0.6229  1.7418
 5933TIP3    H239215   5.144   0.953  11.958  1.1558 -0.0650 -0.8674
 5934TIP3   OH239216   5.505   0.016  14.993 -0.2270 -0.2669 -0.2952
 5934TIP3    H139217   5.452  -0.055  14.957 -1.8672  0.5734  0.4222
 5934TIP3    H239218   5.588  -0.026  15.016 -0.3526 -1.4928 -1.9288
 5935TIP3   OH239219   0.228   2.540  12.215  0.5331 -0.0007  0.2725
 5935TIP3    H139220   0.297   2.575  12.159  0.2361 -1.9466 -1.3684
 5935TIP3    H239221   0.149   2.543  12.161 -0.1295 -0.1971  1.2217
 5936TIP3   OH239222   4.516   6.637  12.878 -0.0916  0.3160 -0.3415
 5936TIP3    H139223   4.491   6.556  12.835 -1.7524 -0.1917  1.4933
 5936TIP3    H239224   4.466   6.706  12.833  0.0937  0.1149 -0.8509
 5937TIP3   OH239225   3.076   0.970  12.158  0.1652 -0.0230  0.3090
 5937TIP3    H139226   3.151   0.951  12.213 -1.4676 -0.8627  2.3093
 5937TIP3    H239227   3.043   0.883  12.131  0.9701  0.3685 -2.0602
 5938TIP3   OH239228   6.398   3.321   1.660  0.3113  0.0534  0.2187
 5938TIP3    H139229   6.435   3.307   1.748 -1.8788  1.1466  1.3564
 5938TIP3    H239230   6.455   3.387   1.621  1.0886 -0.1611  0.9585
 5939TIP3   OH239231   4.380   0.328   2.216 -0.4970  0.1058 -0.1230
 5939TIP3    H139232   4.332   0.308   2.135 -2.2399  1.3804  0.5568
 5939TIP3    H239233   4.315   0.316   2.286  1.1331 -1.5316  1.1749
 5940TIP3   OH239234   0.750   6.449  15.664 -0.2637 -0.0076  0.3290
 5940TIP3    H139235   0.769   6.492  15.580  1.0887 -0.7696  0.2155
 5940TIP3    H239236   0.683   6.384  15.644  0.8264 -0.9231 -0.3971
 5941TIP3   OH239237   2.091   4.055   3.061  0.6573 -0.2725 -0.2408
 5941TIP3    H139238   2.174   4.009   3.052  0.1007 -1.3256 -0.0799
 5941TIP3    H239239   2.060   4.069   2.972  0.5973 -0.6527 -0.2815
 5942TIP3   OH239240   1.479   1.194  12.244  0.3386 -0.5160 -0.2640
 5942TIP3    H139241   1.418   1.129  12.209  1.0760 -2.0039  1.1453
 5942TIP3    H239242   1.427   1.274  12.253 -1.2150 -1.5718  0.2484
 5943TIP3   OH239243   0.175   3.640   6.560 -0.1173 -0.8545 -0.5058
 5943TIP3    H139244   0.086   3.621   6.588 -0.5840 -0.0185 -1.4104
 5943TIP3    H239245   0.175   3.623   6.466  0.7427 -1.0975 -0.4650
 5944TIP3   OH239246   1.833   4.728  10.683 -0.8008  0.2023 -0.3074
 5944TIP3    H139247   1.871   4.645  10.711 -0.7799 -0.0127 -0.9656
 5944TIP3    H239248   1.740   4.721  10.706 -0.8036 -0.0129 -0.3806
 5945TIP3   OH239249   0.585   5.375  16.101 -0.3616  0.0456  0.1565
 5945TIP3    H139250   0.516   5.438  16.122  0.4120  0.4720  1.5302
 5945TIP3    H239251   0.599   5.327  16.183  0.3174 -0.6580 -0.3718
 5946TIP3   OH239252   2.026   4.082   3.655 -0.0901 -0.2604  0.3570
 5946TIP3    H139253   2.082   4.106   3.581  0.9027 -0.4160  1.0380
 5946TIP3    H239254   1.970   4.013   3.622 -0.3238  0.3467 -0.5244
 5947TIP3   OH239255   1.439   5.160   3.036  0.2939  0.1817 -0.6124
 5947TIP3    H139256   1.383   5.235   3.054  0.3245 -0.3015  1.7460
 5947TIP3    H239257   1.488   5.184   2.958 -0.6151  2.0857 -0.6246
 5948TIP3   OH239258   4.716   3.143  11.540  0.3761 -0.2527  0.4661
 5948TIP3    H139259   4.714   3.186  11.625  0.8477 -3.4507  2.1795
 5948TIP3    H239260   4.630   3.102  11.532 -0.2179  1.2693 -1.3207
 5949TIP3   OH239261   2.326   3.926  13.498  0.4601 -0.1313 -0.4669
 5949TIP3    H139262   2.282   4.011  13.494 -0.3781 -0.5237  0.2562
 5949TIP3    H239263   2.379   3.923  13.419 -0.9330  0.2912 -1.4356
 5950TIP3   OH239264   0.318   6.143   5.415 -0.5742 -0.2596 -0.2292
 5950TIP3    H139265   0.367   6.217   5.450  1.4710 -0.6485 -2.1910
 5950TIP3    H239266   0.239   6.182   5.377  0.4840  0.9055 -1.2376
 5951TIP3   OH239267   6.197   4.074   5.027  0.3363 -0.6301  0.0405
 5951TIP3    H139268   6.102   4.086   5.026  0.3849 -0.1180  0.8670
 5951TIP3    H239269   6.218   4.061   5.120  1.1558 -0.0259 -0.0633
 5952TIP3   OH239270   0.246   2.279  14.410 -0.1852  0.1772  0.5369
 5952TIP3    H139271   0.300   2.292  14.332 -0.1919  0.1805  0.5324
 5952TIP3    H239272   0.156   2.293  14.380 -0.1554  0.5792  0.6372
 5953TIP3   OH239273   4.524   5.430   4.660  0.2621  0.2411  0.2590
 5953TIP3    H139274   4.495   5.402   4.573 -0.3983 -0.8348  0.8161
 5953TIP3    H239275   4.596   5.371   4.682 -1.3424 -1.3022  1.5720
 5954TIP3   OH239276   3.178   1.966  14.800 -0.3665  0.2386  0.0422
 5954TIP3    H139277   3.202   1.983  14.891 -1.4901  1.5302  0.1061
 5954TIP3    H239278   3.215   1.880  14.781 -1.6388 -0.8221  2.2487
 5955TIP3   OH239279   2.729   2.305   0.390 -1.1920  0.2406 -0.8659
 5955TIP3    H139280   2.674   2.228   0.376 -1.4902  0.4763 -0.9848
 5955TIP3    H239281   2.800   2.273   0.447 -1.0017 -0.2616 -1.3701
 5956TIP3   OH239282   4.813   6.742  12.200 -0.4642  0.4072  0.0631
 5956TIP3    H139283   4.767   6.662  12.225 -1.7725  2.1512  3.5917
 5956TIP3    H239284   4.772   6.768  12.117 -0.0795 -2.4324 -1.0888
 5957TIP3   OH239285   2.398   1.657  14.313 -0.3149 -0.2453  0.2266
 5957TIP3    H139286   2.390   1.701  14.397  1.6947  0.0721  0.2749
 5957TIP3    H239287   2.448   1.578  14.332 -0.7553 -0.7118 -0.5052
 5958TIP3   OH239288   4.798   3.820   3.098 -0.2358 -0.3274 -0.3286
 5958TIP3    H139289   4.841   3.866   3.026 -1.0287 -0.4227 -0.8807
 5958TIP3    H239290   4.865   3.811   3.165 -0.2666  2.3627  0.1295
 5959TIP3   OH239291   2.173   6.491  13.902  0.3415  0.4105 -0.2351
 5959TIP3    H139292   2.256   6.474  13.945 -0.0307  0.3511  0.4762
 5959TIP3    H239293   2.131   6.557  13.958 -0.5187 -0.2993 -0.0311
 5960TIP3   OH239294   4.360   1.560  11.828 -0.0627  0.1691  0.5582
 5960TIP3    H139295   4.270   1.568  11.795 -0.0195  0.4997  0.5222
 5960TIP3    H239296   4.354   1.492  11.896  0.0243 -1.1594 -0.7471
 5961TIP3   OH239297   4.390   3.459   4.685  0.1922  0.0187 -0.8634
 5961TIP3    H139298   4.368   3.548   4.713 -0.4809 -0.8959  1.7573
 5961TIP3    H239299   4.324   3.437   4.620 -0.8368  0.7453 -0.0838
 5962TIP3   OH239300   3.062   5.757  14.048 -0.3355  0.1035 -0.3831
 5962TIP3    H139301   3.024   5.765  14.136  1.3280  0.7690  0.3016
 5962TIP3    H239302   3.109   5.674  14.051  0.1612  0.3830 -0.4722
 5963TIP3   OH239303   5.465   1.363   3.567 -0.0518  0.0312  0.0816
 5963TIP3    H139304   5.373   1.338   3.554 -0.2971  0.3953  1.0922
 5963TIP3    H239305   5.512   1.279   3.569 -0.3557 -0.1550 -0.4597
 5964TIP3   OH239306   2.477   3.889  12.618 -0.1873  0.1448 -0.0372
 5964TIP3    H139307   2.465   3.958  12.553  0.9282  0.7578  0.3947
 5964TIP3    H239308   2.426   3.816  12.585 -0.0918  0.6372 -1.3080
 5965TIP3   OH239309   2.023   5.542  15.599  0.1819 -0.3428 -0.0045
 5965TIP3    H139310   1.973   5.501  15.669  0.1044 -0.2572 -0.0092
 5965TIP3    H239311   2.096   5.482  15.583 -0.0982 -0.6254 -0.2216
 5966TIP3   OH239312   6.710   3.992   2.302  0.9216  0.3161 -0.3219
 5966TIP3    H139313   6.620   3.972   2.330  0.9011  0.5494 -0.2187
 5966TIP3    H239314   6.713   4.087   2.300  0.5238  0.3232 -2.3871
 5967TIP3   OH239315   2.177   2.072  16.488  0.0427 -0.1967  0.5175
 5967TIP3    H139316   2.201   2.165  16.489  1.4994 -0.5454 -0.5251
 5967TIP3    H239317   2.131   2.060  16.405  2.2170 -0.9512 -0.6213
 5968TIP3   OH239318   1.806   4.650   5.565 -0.1649  0.9381 -0.2574
 5968TIP3    H139319   1.740   4.720   5.562 -0.3113  0.8623  1.0788
 5968TIP3    H239320   1.889   4.695   5.552 -0.2079  1.4374  1.1733
 5969TIP3   OH239321   1.764   3.480  11.630 -0.1813 -0.4259  0.3515
 5969TIP3    H139322   1.842   3.536  11.629 -0.6291  0.2426  1.8002
 5969TIP3    H239323   1.703   3.524  11.571 -0.3349  0.3485  1.0717
 5970TIP3   OH239324   1.025   6.259  13.265  0.0701  0.6912 -0.4493
 5970TIP3    H139325   1.119   6.267  13.283  0.0483  0.1461 -0.0817
 5970TIP3    H239326   1.019   6.253  13.170  0.4822 -0.2697 -0.4168
 5971TIP3   OH239327   2.391   4.966   2.324 -0.0126 -0.1785  0.1258
 5971TIP3    H139328   2.306   4.942   2.361  1.0767 -2.8417  1.0200
 5971TIP3    H239329   2.405   4.902   2.254  1.1605  0.3634 -0.1380
 5972TIP3   OH239330   4.872   1.983  13.961  0.2005  0.7287  0.0707
 5972TIP3    H139331   4.845   2.000  13.871  2.2726 -1.8664 -1.0720
 5972TIP3    H239332   4.825   1.904  13.986  1.6895 -0.0809  0.3463
 5973TIP3   OH239333   2.896   4.382  11.825 -0.2174  0.0354 -0.1656
 5973TIP3    H139334   2.872   4.318  11.891  2.5099 -1.6560 -0.7475
 5973TIP3    H239335   2.893   4.466  11.871 -0.9164 -0.8347  1.4111
 5974TIP3   OH239336   3.917   3.259  13.150 -0.6839 -0.8701  0.1328
 5974TIP3    H139337   3.944   3.171  13.123 -0.2297 -1.4077  2.2141
 5974TIP3    H239338   3.994   3.314  13.136 -0.5806 -1.0630 -0.0430
 5975TIP3   OH239339   3.000   6.642   0.511  0.1123  0.4961  1.2272
 5975TIP3    H139340   2.999   6.709   0.444  1.4832  0.2539  0.9500
 5975TIP3    H239341   3.053   6.571   0.474 -0.5815 -0.3724  1.8568
 5976TIP3   OH239342   4.605   1.486   3.533 -0.0645 -0.5146 -0.3851
 5976TIP3    H139343   4.626   1.562   3.587  1.9507 -2.2500  1.3911
 5976TIP3    H239344   4.676   1.482   3.469 -0.6152 -0.4056 -1.0016
 5977TIP3   OH239345   2.017   4.283  17.195 -0.2967  0.5059  0.3018
 5977TIP3    H139346   2.036   4.375  17.215  0.3540  0.2425  0.9083
 5977TIP3    H239347   1.986   4.246  17.278 -1.1904  0.3359 -0.0955
 5978TIP3   OH239348   2.487   6.757  11.994 -0.0394  0.1647 -0.0034
 5978TIP3    H139349   2.554   6.729  11.931  1.2709  0.6953  1.1380
 5978TIP3    H239350   2.493   6.852  11.995 -2.2446  0.3594 -1.4221
 5979TIP3   OH239351   5.470   4.907  17.105  0.1573  0.0563  0.9291
 5979TIP3    H139352   5.400   4.851  17.073  0.4656  1.5153 -2.4469
 5979TIP3    H239353   5.425   4.974  17.156 -0.8635  0.5468 -0.5844
 5980TIP3   OH239354   5.675   5.443   1.429  0.3773  0.3694  0.4083
 5980TIP3    H139355   5.597   5.475   1.474 -1.4847 -2.8927 -0.3175
 5980TIP3    H239356   5.738   5.426   1.499 -0.1763  1.3469  1.1678
 5981TIP3   OH239357   3.164   4.831  16.565  0.4179  0.6391  0.1966
 5981TIP3    H139358   3.093   4.836  16.629  0.1411 -0.8174  0.0020
 5981TIP3    H239359   3.193   4.922  16.556 -1.3610  1.2448  0.3244
 5982TIP3   OH239360   0.205   2.811  14.758  0.9558 -0.0372 -0.8246
 5982TIP3    H139361   0.148   2.885  14.777  1.6105  0.2827 -0.1042
 5982TIP3    H239362   0.203   2.803  14.663 -0.1575  0.0740 -0.8177
 5983TIP3   OH239363   0.022   5.140   3.757 -0.1402 -0.0605  0.0743
 5983TIP3    H139364  -0.056   5.194   3.745 -0.5126 -0.4151  0.8373
 5983TIP3    H239365  -0.003   5.077   3.826  0.8180 -0.1689  0.3285
 5984TIP3   OH239366   6.244   3.441  11.201 -0.0061 -0.4420  0.4583
 5984TIP3    H139367   6.311   3.507  11.186 -0.8889  0.0285 -1.7295
 5984TIP3    H239368   6.161   3.489  11.195 -0.5665 -1.1180  2.5035
 5985TIP3   OH239369   4.039   2.833  14.262  0.0939  0.1273  0.4687
 5985TIP3    H139370   4.045   2.915  14.213  0.7681  0.4024  1.0120
 5985TIP3    H239371   4.041   2.765  14.196  1.0565  0.4966  0.1162
 5986TIP3   OH239372   4.431   0.371   5.097 -0.2634  0.2634 -0.1728
 5986TIP3    H139373   4.398   0.357   5.008  1.4132 -0.9444 -0.6325
 5986TIP3    H239374   4.432   0.466   5.107 -3.0971  0.3726 -0.4107
 5987TIP3   OH239375   3.242   0.711  15.747  0.2355 -0.3009 -0.4762
 5987TIP3    H139376   3.312   0.774  15.730 -0.3980  0.3199 -0.8142
 5987TIP3    H239377   3.241   0.656  15.669  1.1849 -1.1074  0.0762
 5988TIP3   OH239378   4.356   1.922  12.063 -0.9430 -0.4596  0.0172
 5988TIP3    H139379   4.450   1.936  12.067 -0.7331 -1.4115 -0.9821
 5988TIP3    H239380   4.320   1.969  12.138  0.6704 -2.9036  2.4222
 5989TIP3   OH239381   0.479   1.413  17.112  0.0439 -0.1671  0.3439
 5989TIP3    H139382   0.544   1.388  17.046 -0.6172 -1.8311  0.3094
 5989TIP3    H239383   0.460   1.332  17.159 -1.8983  0.3289  0.4422
 5990TIP3   OH239384   0.818   4.736  15.432 -0.0707  0.0288 -0.9136
 5990TIP3    H139385   0.833   4.714  15.340 -1.1250  1.3008 -1.4161
 5990TIP3    H239386   0.863   4.668  15.481  0.6634 -0.5622 -2.3774
 5991TIP3   OH239387   6.673   0.895  12.558 -0.2451 -0.3661 -0.2619
 5991TIP3    H139388   6.580   0.884  12.542 -0.6303 -0.7337  2.0557
 5991TIP3    H239389   6.694   0.834  12.628  1.5306  0.4088 -0.0635
 5992TIP3   OH239390   0.151   2.121   1.702  0.2268 -0.3847  0.1239
 5992TIP3    H139391   0.114   2.209   1.706 -0.2624 -0.6437  1.8418
 5992TIP3    H239392   0.246   2.135   1.694  0.3731  0.3267  2.8103
 5993TIP3   OH239393   4.649   6.414   6.263 -0.6664  0.2697  0.4239
 5993TIP3    H139394   4.576   6.382   6.210 -2.0117 -0.7034  2.7674
 5993TIP3    H239395   4.707   6.338   6.272  0.9137  1.1598 -1.7985
 5994TIP3   OH239396   3.787   0.006   1.685  0.2309  0.3622  0.0587
 5994TIP3    H139397   3.791   0.024   1.592  1.0017 -0.2128 -0.0210
 5994TIP3    H239398   3.726  -0.068   1.692  0.0507  0.5086  0.0238
 5995TIP3   OH239399   4.737   5.877  12.604  0.1870 -0.8062  0.1295
 5995TIP3    H139400   4.692   5.842  12.682  1.5531  0.8558  1.7067
 5995TIP3    H239401   4.708   5.968  12.600  1.3279 -0.4672 -0.4113
 5996TIP3   OH239402   4.466   0.551  11.578  0.0889  0.2739 -0.1506
 5996TIP3    H139403   4.426   0.572  11.662  1.0157 -1.1353  0.6737
 5996TIP3    H239404   4.559   0.537  11.599  0.6978  1.7745 -1.7260
 5997TIP3   OH239405   1.267   2.476  16.755 -0.3645  0.2100  0.4967
 5997TIP3    H139406   1.234   2.532  16.684  1.1286 -0.2062 -0.5529
 5997TIP3    H239407   1.335   2.529  16.797 -0.8469  0.2315  1.2646
 5998TIP3   OH239408   4.101   1.860  17.142  0.1112 -0.3584  0.2545
 5998TIP3    H139409   4.157   1.916  17.195 -0.6157 -0.5545  1.2414
 5998TIP3    H239410   4.130   1.771  17.161 -1.4401 -0.5563  1.8722
 5999TIP3   OH239411   4.526   5.304   5.282  0.2680  0.2070 -0.3604
 5999TIP3    H139412   4.565   5.288   5.197  3.4864 -2.6102  1.5550
 5999TIP3    H239413   4.553   5.394   5.304  3.4979 -0.7236 -0.2795
 6000TIP3   OH239414   1.971   3.564   5.136  0.1822 -0.1408 -0.1837
 6000TIP3    H139415   1.997   3.624   5.066 -0.2906 -0.7068 -0.8557
 6000TIP3    H239416   1.982   3.614   5.216 -1.2035  1.2163 -0.8083
 6001TIP3   OH239417   0.579   6.123  14.146 -0.3267 -0.1637  0.0944
 6001TIP3    H139418   0.526   6.064  14.201 -1.1654 -0.5339 -1.0991
 6001TIP3    H239419   0.516   6.164  14.087  0.6753 -0.3542 -1.1206
 6002TIP3   OH239420   0.935   4.882   5.078 -0.2813  0.0095 -0.4487
 6002TIP3    H139421   0.948   4.798   5.034 -0.8038  0.6701 -1.8660
 6002TIP3    H239422   0.844   4.906   5.058 -0.4168  0.5067  0.6723
 6003TIP3   OH239423   5.526   0.833  12.828 -0.5405 -0.0854 -0.4225
 6003TIP3    H139424   5.541   0.802  12.738  0.4138 -0.6740 -0.0629
 6003TIP3    H239425   5.602   0.888  12.847 -0.4524 -0.4357  0.2379
 6004TIP3   OH239426   2.220   1.848  13.592  0.2733  0.4773  0.2742
 6004TIP3    H139427   2.300   1.890  13.561  1.2049 -1.7519 -0.4488
 6004TIP3    H239428   2.155   1.866  13.524  0.0305  2.6600  1.0756
 6005TIP3   OH239429   1.550   3.715  14.982 -0.2007  0.4802 -0.6841
 6005TIP3    H139430   1.479   3.657  15.008  0.4359  0.0337  0.0572
 6005TIP3    H239431   1.584   3.751  15.064 -1.0756  2.4959 -1.1558
 6006TIP3   OH239432   3.087   5.482   4.222  0.4737 -0.3197 -0.4527
 6006TIP3    H139433   3.010   5.449   4.268 -0.5134  2.3215 -0.1558
 6006TIP3    H239434   3.114   5.409   4.166 -2.1898 -1.3367 -0.4818
 6007TIP3   OH239435   0.678   5.246  13.759  0.5317 -0.2923  0.2967
 6007TIP3    H139436   0.705   5.309  13.825 -0.0515 -0.5997  0.8237
 6007TIP3    H239437   0.648   5.300  13.685 -0.1899  0.0475  0.8345
 6008TIP3   OH239438   0.262   4.758  10.736  0.4337  0.1441 -0.3974
 6008TIP3    H139439   0.189   4.697  10.722  0.1966  0.5923 -1.0717
 6008TIP3    H239440   0.291   4.783  10.649  0.6376  0.8888 -0.1203
 6009TIP3   OH239441   2.796   5.475   4.789 -0.1443 -0.1714  0.1171
 6009TIP3    H139442   2.889   5.481   4.811 -0.0822  0.0946 -0.2087
 6009TIP3    H239443   2.795   5.450   4.697 -0.4013 -1.5494  0.4829
 6010TIP3   OH239444   1.402   2.805   1.578  0.1948 -0.0226 -0.5729
 6010TIP3    H139445   1.390   2.813   1.672 -0.6054 -0.0830 -0.6687
 6010TIP3    H239446   1.494   2.825   1.564  0.2115  0.4225  0.1705
 6011TIP3   OH239447   1.408   4.199  12.624 -0.5103 -0.5443 -0.0399
 6011TIP3    H139448   1.498   4.175  12.648 -0.3156 -0.7301 -0.9201
 6011TIP3    H239449   1.418   4.248  12.542 -1.1910 -0.2972  0.0228
 6012TIP3   OH239450   5.347   3.403  15.203  0.2959  0.2003  0.0065
 6012TIP3    H139451   5.282   3.474  15.200  0.5622  0.5631  1.8924
 6012TIP3    H239452   5.396   3.420  15.283  0.5766 -1.9514  0.3180
 6013TIP3   OH239453   6.442   3.502   4.429  0.0971  0.1311  0.1952
 6013TIP3    H139454   6.356   3.461   4.427 -0.9242  2.1742  1.0442
 6013TIP3    H239455   6.428   3.590   4.395  2.3270 -0.2898 -1.9932
 6014TIP3   OH239456   5.590   4.267   0.239 -0.1163  0.4987 -0.2592
 6014TIP3    H139457   5.685   4.264   0.227  0.0308 -0.4635  1.0621
 6014TIP3    H239458   5.561   4.178   0.223 -0.8544  0.8627 -0.9814
 6015TIP3   OH239459   3.478   1.069   1.530  0.4891  0.0765 -0.2905
 6015TIP3    H139460   3.392   1.084   1.568  0.9902 -1.5764  1.5892
 6015TIP3    H239461   3.462   1.052   1.438 -1.0437  1.3273 -0.2703
 6016TIP3   OH239462   3.101   1.651   2.518 -0.4761  0.8404 -0.2824
 6016TIP3    H139463   3.085   1.626   2.427  2.3039 -0.6345 -0.4247
 6016TIP3    H239464   3.080   1.572   2.569  4.1400 -0.6209 -0.3329
 6017TIP3   OH239465   2.518   6.531   2.617 -0.0044  0.4616  0.1475
 6017TIP3    H139466   2.568   6.601   2.576 -0.2049  1.2827  1.2850
 6017TIP3    H239467   2.581   6.461   2.631  0.0161  0.0483 -1.7983
 6018TIP3   OH239468   0.422   3.681   5.985 -0.8170  0.2507 -0.2247
 6018TIP3    H139469   0.489   3.618   6.009 -1.2529 -0.3027 -0.4585
 6018TIP3    H239470   0.446   3.760   6.034 -1.1553 -0.5662  1.3094
 6019TIP3   OH239471   2.666   0.669  14.967  0.4791  0.0457  0.0111
 6019TIP3    H139472   2.751   0.635  14.940  0.4672  0.2693 -0.3145
 6019TIP3    H239473   2.642   0.731  14.898 -0.5329 -0.9639 -0.5627
 6020TIP3   OH239474   0.231   6.722   5.295 -0.5859  0.2781  0.3592
 6020TIP3    H139475   0.281   6.775   5.233 -0.1626 -0.2581  0.2424
 6020TIP3    H239476   0.165   6.678   5.241  0.5607 -1.1456  0.0892
 6021TIP3   OH239477   3.655   0.560  12.055 -0.4983 -0.2912  0.0930
 6021TIP3    H139478   3.636   0.539  12.147  1.9208  1.0547  0.9472
 6021TIP3    H239479   3.632   0.653  12.047  0.4199 -0.0958 -0.3220
 6022TIP3   OH239480   5.677   4.715   2.417 -0.4255 -0.1236  0.0203
 6022TIP3    H139481   5.739   4.643   2.421 -0.0403  0.1741 -0.4675
 6022TIP3    H239482   5.621   4.704   2.494 -0.6635 -1.2011 -0.3115
 6023TIP3   OH239483   3.855   4.439  13.331 -0.2302 -0.1039 -0.2905
 6023TIP3    H139484   3.798   4.397  13.265  3.5060 -1.4084 -2.8727
 6023TIP3    H239485   3.882   4.521  13.290  3.1550 -1.5206 -1.0787
 6024TIP3   OH239486   4.622   2.832  12.355 -0.2588  0.6154  0.9454
 6024TIP3    H139487   4.659   2.910  12.314 -0.7342 -0.2060 -1.1240
 6024TIP3    H239488   4.666   2.759  12.311 -1.7781 -0.3062  0.9296
 6025TIP3   OH239489   2.135   4.542   6.389  0.2659 -0.1204 -0.5147
 6025TIP3    H139490   2.216   4.582   6.357  0.3157  0.2852  0.1076
 6025TIP3    H239491   2.072   4.614   6.393  0.5488  0.0570  1.2687
 6026TIP3   OH239492   3.998   0.209   1.312  0.1975  0.5127 -0.3591
 6026TIP3    H139493   4.085   0.185   1.345 -0.8034 -0.8864  1.3328
 6026TIP3    H239494   4.011   0.294   1.270  2.1269  0.9039  0.9736
 6027TIP3   OH239495   1.559   0.789  16.507 -0.6223 -0.5187  0.7686
 6027TIP3    H139496   1.490   0.854  16.495  0.4057  0.8950  2.3193
 6027TIP3    H239497   1.523   0.709  16.470 -2.2811  0.6948 -0.3208
 6028TIP3   OH239498   1.266   3.924   0.907  0.3034 -0.6417  0.1503
 6028TIP3    H139499   1.343   3.973   0.937 -0.9622  3.2773 -2.6507
 6028TIP3    H239500   1.275   3.920   0.812 -2.3843 -1.0666 -0.1372
 6029TIP3   OH239501   3.583   1.615   2.642 -0.3825  0.5354  0.5467
 6029TIP3    H139502   3.604   1.568   2.561  0.3285  2.2838 -0.3014
 6029TIP3    H239503   3.501   1.660   2.623 -0.1057  1.1217  0.7165
 6030TIP3   OH239504   0.272   5.295   1.777  0.0647 -0.2880 -0.5788
 6030TIP3    H139505   0.301   5.295   1.868  1.1768 -1.2678 -0.9092
 6030TIP3    H239506   0.336   5.350   1.732  0.1652 -0.6915 -0.9380
 6031TIP3   OH239507   4.828   1.315  15.739 -0.3581  0.3724 -0.4135
 6031TIP3    H139508   4.851   1.343  15.650 -0.1695  2.2721  0.1970
 6031TIP3    H239509   4.912   1.315  15.786 -0.8039  1.8533  0.3965
 6032TIP3   OH239510   4.189   6.043  14.451  0.4485  0.2038 -1.1025
 6032TIP3    H139511   4.152   6.074  14.368 -0.5014 -0.2481 -0.8605
 6032TIP3    H239512   4.183   6.119  14.509 -1.7196 -0.3371 -0.5587
 6033TIP3   OH239513   3.453   1.675  12.281 -0.7091 -0.2575 -0.1653
 6033TIP3    H139514   3.530   1.727  12.304 -0.7724  0.0709 -0.6900
 6033TIP3    H239515   3.389   1.739  12.251 -1.2875 -0.5004  0.5362
 6034TIP3   OH239516   5.693   1.723  12.457  0.8347  0.1215  0.2951
 6034TIP3    H139517   5.653   1.809  12.468  1.9769  0.5752  0.9661
 6034TIP3    H239518   5.642   1.681  12.387 -0.0833  1.1130  0.3668
 6035TIP3   OH239519   5.124   0.729  17.115 -0.1019  0.0688  0.1778
 6035TIP3    H139520   5.201   0.786  17.124 -0.9873  1.2499  0.4207
 6035TIP3    H239521   5.112   0.718  17.021  0.2526  0.0314  0.1361
 6036TIP3   OH239522   5.949   4.291  15.900 -0.0393  0.5819  0.4244
 6036TIP3    H139523   5.869   4.243  15.879 -0.4954  0.9865  1.2232
 6036TIP3    H239524   5.964   4.346  15.822  0.4736 -0.8141 -0.4768
 6037TIP3   OH239525   0.549   2.185   3.701 -0.3170  0.3904  0.1177
 6037TIP3    H139526   0.527   2.099   3.667 -2.0873  0.6547  0.5669
 6037TIP3    H239527   0.610   2.167   3.773  0.0292 -0.4218 -0.3752
 6038TIP3   OH239528   0.361   6.035  12.762  0.2237 -0.5541  0.2776
 6038TIP3    H139529   0.329   6.111  12.713 -1.4497 -0.8382  0.9228
 6038TIP3    H239530   0.315   5.961  12.723  0.3703 -1.0072  0.9654
 6039TIP3   OH239531   4.365   4.405  12.854  0.2529  0.5952  0.3330
 6039TIP3    H139532   4.455   4.393  12.885 -0.0628  0.4072  1.1966
 6039TIP3    H239533   4.372   4.405  12.759  1.1878  0.7204  0.3951
 6040TIP3   OH239534   6.572   2.175  12.548  0.9353  0.1562 -0.3396
 6040TIP3    H139535   6.502   2.207  12.605  2.7168  0.8896  1.4875
 6040TIP3    H239536   6.551   2.082  12.535 -0.8404  0.5555 -0.5730
 6041TIP3   OH239537   5.589   2.288  11.539  0.1272 -0.2946  0.5917
 6041TIP3    H139538   5.586   2.270  11.445  0.6392 -0.5712  0.6236
 6041TIP3    H239539   5.497   2.289  11.566  0.0480 -2.5686  0.5164
 6042TIP3   OH239540   4.214   3.625   3.679  0.0866  0.0424  0.0413
 6042TIP3    H139541   4.264   3.630   3.760 -1.1389 -0.4351  0.8308
 6042TIP3    H239542   4.243   3.542   3.639  0.3697  0.0677  0.1901
 6043TIP3   OH239543   6.136   0.605   5.930  0.5621 -0.2597  0.1472
 6043TIP3    H139544   6.185   0.524   5.938 -0.5260 -0.8509  0.8642
 6043TIP3    H239545   6.113   0.628   6.020 -0.2148  0.1727 -0.1611
 6044TIP3   OH239546   3.071   2.527   2.883  0.2202 -0.1081 -0.9448
 6044TIP3    H139547   2.999   2.524   2.946  1.0144  1.4317  0.0722
 6044TIP3    H239548   3.056   2.608   2.834  1.6171  0.5554 -0.2885
 6045TIP3   OH239549   5.274   6.676  15.169 -0.9671  0.4345 -0.3039
 6045TIP3    H139550   5.359   6.691  15.126 -0.6193  1.1962  0.6352
 6045TIP3    H239551   5.284   6.714  15.256 -1.6909 -1.0219  0.4393
 6046TIP3   OH239552   2.141   4.757  15.629  0.3931 -0.0582 -0.3957
 6046TIP3    H139553   2.225   4.794  15.659 -0.1282 -0.4606  1.6280
 6046TIP3    H239554   2.109   4.707  15.704 -1.5358 -0.1352 -1.2558
 6047TIP3   OH239555   6.695   4.701  14.888 -0.2512  0.6086  0.1869
 6047TIP3    H139556   6.724   4.646  14.815 -0.3498 -0.0355  0.6211
 6047TIP3    H239557   6.632   4.762  14.849 -0.3263  0.2452 -0.2601
 6048TIP3   OH239558   3.943   0.886  10.394 -0.7212 -0.1310  0.0413
 6048TIP3    H139559   3.994   0.806  10.400 -0.3180  0.1882  1.0695
 6048TIP3    H239560   3.939   0.906  10.301 -0.6020 -1.2011 -0.1870
 6049TIP3   OH239561   2.269   0.010   3.552 -0.2811  0.0605 -0.3719
 6049TIP3    H139562   2.351  -0.038   3.569  0.7488  1.4606 -1.2545
 6049TIP3    H239563   2.209  -0.022   3.619  0.9390 -1.1284  0.1935
 6050TIP3   OH239564   5.129   5.452  13.492  1.0670  0.0089 -0.1935
 6050TIP3    H139565   5.085   5.492  13.417 -0.7642 -0.9310  0.3358
 6050TIP3    H239566   5.114   5.358  13.480 -1.3839 -0.0181  2.5909
 6051TIP3   OH239567   3.742   2.750  14.385 -0.1337  0.1656  0.4710
 6051TIP3    H139568   3.655   2.736  14.423  0.0199  2.0694  1.5484
 6051TIP3    H239569   3.791   2.672  14.411 -0.9192  0.0235  1.6106
 6052TIP3   OH239570   5.532   1.820  16.871  0.6108  0.3908  0.1241
 6052TIP3    H139571   5.518   1.792  16.961 -1.1774 -0.9504 -0.5418
 6052TIP3    H239572   5.444   1.839  16.837  0.9245 -2.0421 -2.2325
 6053TIP3   OH239573   2.793   5.157   0.187 -0.1326  0.5624  0.2647
 6053TIP3    H139574   2.819   5.084   0.243  0.9500  1.5298  1.0581
 6053TIP3    H239575   2.849   5.149   0.110 -0.0241  0.5404  0.3452
 6054TIP3   OH239576   0.582   4.969  16.884  0.3156  0.1130 -0.5652
 6054TIP3    H139577   0.609   4.969  16.976  0.4705  0.1526 -0.6098
 6054TIP3    H239578   0.631   5.041  16.845  0.0132  0.2965 -0.6133
 6055TIP3   OH239579   2.435   4.169   5.722 -0.2428 -0.1528 -0.0204
 6055TIP3    H139580   2.445   4.164   5.817 -1.8692  1.8649  0.2925
 6055TIP3    H239581   2.371   4.101   5.701 -1.1503  0.5281  0.5380
 6056TIP3   OH239582   3.236   0.246   1.503  0.2834 -0.3212  0.5673
 6056TIP3    H139583   3.246   0.153   1.483 -1.1804  0.0909 -2.3975
 6056TIP3    H239584   3.245   0.290   1.418  0.9443  2.2507  1.9180
 6057TIP3   OH239585   3.353   0.814   3.381  0.3573 -0.1173  0.9125
 6057TIP3    H139586   3.311   0.735   3.346  0.0387  0.6935 -0.5913
 6057TIP3    H239587   3.446   0.801   3.363  0.0528  0.9561 -1.6999
 6058TIP3   OH239588   4.975   5.562  13.289 -0.6672 -0.7028 -0.1032
 6058TIP3    H139589   4.894   5.583  13.334 -1.6829 -2.4198 -1.1026
 6058TIP3    H239590   4.994   5.640  13.236 -1.2657 -0.0281  0.6558
 6059TIP3   OH239591   4.529   1.669   3.145 -0.0308 -0.4055  0.2981
 6059TIP3    H139592   4.470   1.687   3.072 -1.6241  1.0161  1.8766
 6059TIP3    H239593   4.514   1.741   3.206  1.8730 -1.1234  1.6653
 6060TIP3   OH239594   5.014   2.025  13.246  0.0218 -0.1141  0.0971
 6060TIP3    H139595   5.090   2.083  13.244 -0.2664  0.3130  1.1064
 6060TIP3    H239596   4.956   2.059  13.178  0.9463 -0.7467 -1.0199
 6061TIP3   OH239597   6.229   2.237   1.902  0.5541  0.0723 -0.5693
 6061TIP3    H139598   6.317   2.243   1.865  0.9335 -1.7520 -0.0151
 6061TIP3    H239599   6.204   2.146   1.889 -0.8826  0.3553  0.1298
 6062TIP3   OH239600   1.454   5.352  14.370  0.2204 -0.4799  0.4267
 6062TIP3    H139601   1.405   5.376  14.291  0.6615  0.6202  0.4787
 6062TIP3    H239602   1.387   5.345  14.438  0.0332  0.2353  0.3236
 6063TIP3   OH239603   0.936   2.642  10.696  0.5013  0.0758  0.3864
 6063TIP3    H139604   0.848   2.677  10.709  0.6131  0.8457 -0.8662
 6063TIP3    H239605   0.992   2.719  10.694  1.1489 -0.3839  0.7161
 6064TIP3   OH239606   3.892   1.645   3.335  0.4486 -0.1326  0.0937
 6064TIP3    H139607   3.896   1.639   3.240 -1.2051 -1.2432  0.0590
 6064TIP3    H239608   3.948   1.720   3.357 -0.3440  1.0974 -1.8686
 6065TIP3   OH239609   5.076   5.192  11.679 -0.0489  0.2702  0.0241
 6065TIP3    H139610   5.047   5.281  11.657 -0.1360  0.3070  0.2836
 6065TIP3    H239611   5.070   5.144  11.597  0.1616  0.5500 -0.1552
 6066TIP3   OH239612   1.014   4.519   5.574  0.3109  0.0958  0.3669
 6066TIP3    H139613   1.063   4.482   5.648  0.7324 -0.9032 -0.3949
 6066TIP3    H239614   0.923   4.514   5.601  0.4367 -0.5768  0.6733
 6067TIP3   OH239615   3.721   0.025   4.538  0.1390  0.3134 -0.1868
 6067TIP3    H139616   3.746   0.030   4.630 -3.8746  0.4833  0.9840
 6067TIP3    H239617   3.742   0.111   4.502  1.9721  0.1616  0.4558
 6068TIP3   OH239618   2.995   6.216  13.102 -0.3991  0.4182  0.5493
 6068TIP3    H139619   2.906   6.226  13.070 -0.0184  1.2078 -0.2729
 6068TIP3    H239620   3.031   6.143  13.051 -0.2519  0.7436  0.1928
 6069TIP3   OH239621   1.180   5.702  16.466 -0.5058 -0.3931 -0.2637
 6069TIP3    H139622   1.156   5.781  16.514 -1.3310 -0.3865 -0.6860
 6069TIP3    H239623   1.264   5.724  16.424 -0.4816  0.0775  0.0331
 6070TIP3   OH239624   6.551   1.413  11.836 -0.4433  0.2954 -0.9971
 6070TIP3    H139625   6.496   1.490  11.824 -2.7871 -1.2129 -0.2454
 6070TIP3    H239626   6.520   1.350  11.771  0.0715 -0.7309 -0.2727
 6071TIP3   OH239627   4.540   0.661   6.151  0.2527 -0.1608  0.5298
 6071TIP3    H139628   4.483   0.603   6.200  1.4672 -1.0239  0.9492
 6071TIP3    H239629   4.536   0.744   6.199  0.0277 -0.4702  1.0490
 6072TIP3   OH239630   0.550   6.261   0.183 -0.5670  0.1967 -0.2425
 6072TIP3    H139631   0.612   6.191   0.203 -1.4590 -0.7656 -0.8147
 6072TIP3    H239632   0.566   6.327   0.250  1.2353  0.0691 -0.5040
 6073TIP3   OH239633   6.414   5.884  12.344  0.6593 -0.9027 -0.1131
 6073TIP3    H139634   6.363   5.887  12.425  0.6146 -2.0056 -0.0869
 6073TIP3    H239635   6.492   5.936  12.363 -1.1281  2.0845 -0.6544
 6074TIP3   OH239636   1.699   3.125  13.044 -0.1409 -0.4608 -0.0823
 6074TIP3    H139637   1.608   3.109  13.017  0.0802 -0.5990 -0.7474
 6074TIP3    H239638   1.697   3.211  13.086 -0.4801 -0.2273 -0.5724
 6075TIP3   OH239639   1.766   1.477  12.542  0.0603 -0.0490 -0.3457
 6075TIP3    H139640   1.809   1.560  12.525  1.0391 -0.0739  1.7638
 6075TIP3    H239641   1.701   1.497  12.610  1.0181 -1.1584  0.9413
 6076TIP3   OH239642   2.066   0.703  15.511  0.2940  0.4442 -0.8897
 6076TIP3    H139643   2.062   0.786  15.558  0.4179 -0.4979  0.8453
 6076TIP3    H239644   2.126   0.649  15.562  0.3197 -0.6710 -2.0583
 6077TIP3   OH239645   1.858   0.722  14.986  0.5011 -0.3048 -0.4437
 6077TIP3    H139646   1.883   0.682  15.069 -0.5242 -0.6814 -0.3141
 6077TIP3    H239647   1.778   0.676  14.960 -1.8301  2.9982  0.6685
 6078TIP3   OH239648   4.576   2.681  13.093  0.0468  0.1120 -0.1051
 6078TIP3    H139649   4.624   2.642  13.019 -1.0685 -0.7052 -0.4228
 6078TIP3    H239650   4.526   2.608  13.129 -1.3873  1.0632 -0.1361
 6079TIP3   OH239651   2.772   3.328  13.063 -0.1130 -0.0369 -0.1037
 6079TIP3    H139652   2.771   3.234  13.045  0.5501  0.1036 -0.9155
 6079TIP3    H239653   2.863   3.354  13.051  0.2779  0.1843  3.0593
 6080TIP3   OH239654   0.407   3.726   1.126  0.1615 -0.3464  0.0729
 6080TIP3    H139655   0.398   3.676   1.045  1.0559  0.2595 -0.4086
 6080TIP3    H239656   0.323   3.714   1.171  0.0024 -1.4422 -0.5057
 6081TIP3   OH239657   6.098   1.524   0.079 -0.4714 -0.2413  0.5620
 6081TIP3    H139658   6.073   1.598   0.025 -0.8552 -0.5660  0.2909
 6081TIP3    H239659   6.122   1.455   0.017 -0.6291 -0.5186  0.8051
 6082TIP3   OH239660   4.967   2.760  14.258  0.6310  0.2945 -0.1159
 6082TIP3    H139661   4.935   2.812  14.332  0.0644 -0.0194 -0.1458
 6082TIP3    H239662   5.042   2.811  14.225  0.1092  1.0757 -0.1168
 6083TIP3   OH239663   5.688   6.526   3.929  0.1510  0.0939  0.3075
 6083TIP3    H139664   5.722   6.520   4.018  1.0907  1.4508  0.0515
 6083TIP3    H239665   5.699   6.437   3.893 -1.9578 -0.9498  2.1259
 6084TIP3   OH239666   1.665   4.073   6.570 -0.1181 -0.3929 -0.1488
 6084TIP3    H139667   1.611   4.020   6.628  2.7947 -1.9152  1.3230
 6084TIP3    H239668   1.688   4.014   6.498  1.7341 -0.6458  0.6194
 6085TIP3   OH239669   1.306   5.657   5.269 -0.4800  0.1756 -0.2390
 6085TIP3    H139670   1.296   5.750   5.289 -0.6372 -0.2005  1.4876
 6085TIP3    H239671   1.218   5.629   5.244 -0.5090  0.4024 -0.3976
 6086TIP3   OH239672   1.747   5.742  14.823  0.5098  0.4432 -0.2131
 6086TIP3    H139673   1.666   5.728  14.872  0.0735 -0.4380 -1.1820
 6086TIP3    H239674   1.734   5.825  14.777 -0.3678 -0.3778 -1.4374
 6087TIP3   OH239675   0.029   5.391  15.374  0.4229 -0.4810  0.0939
 6087TIP3    H139676   0.037   5.486  15.366 -2.4983 -0.0561  1.4476
 6087TIP3    H239677  -0.033   5.379  15.447  0.0707 -3.3942 -0.6396
 6088TIP3   OH239678   5.453   4.020   2.533  0.2903 -0.2079  0.0555
 6088TIP3    H139679   5.407   4.093   2.575  1.9122  0.3116  1.0098
 6088TIP3    H239680   5.388   3.979   2.477 -1.3073  0.5093  1.3428
 6089TIP3   OH239681   4.900   2.585   3.655  0.1324  0.1938  0.8239
 6089TIP3    H139682   4.979   2.543   3.689 -1.0296 -2.5315  0.2867
 6089TIP3    H239683   4.843   2.596   3.731  0.4091  0.7651  0.9525
 6090TIP3   OH239684   0.832   0.620   3.195  0.7256  0.2102  0.2642
 6090TIP3    H139685   0.870   0.693   3.146  1.0765 -0.3906 -0.3739
 6090TIP3    H239686   0.890   0.610   3.271  0.8491  0.4068  0.1965
 6091TIP3   OH239687   5.194   6.108  14.129 -0.2438 -0.3652 -0.0249
 6091TIP3    H139688   5.253   6.173  14.168 -0.5290  1.0311 -1.7904
 6091TIP3    H239689   5.238   6.025  14.141  0.5164  0.2503  1.6041
 6092TIP3   OH239690   0.734   4.051   1.315 -0.0900  0.1406  0.1317
 6092TIP3    H139691   0.644   4.085   1.316 -0.3747 -0.5491 -0.9280
 6092TIP3    H239692   0.724   3.958   1.294  0.8986  0.1373 -0.3583
 6093TIP3   OH239693   5.218   5.934  16.141  0.0392  0.4150 -0.2036
 6093TIP3    H139694   5.309   5.953  16.161  0.1160  0.1022 -0.2651
 6093TIP3    H239695   5.206   5.966  16.051  0.1407  0.2678 -0.2686
 6094TIP3   OH239696   4.104   0.238   3.995 -0.1727 -0.1214 -0.0865
 6094TIP3    H139697   4.018   0.267   4.023 -0.0337  0.1382  0.0807
 6094TIP3    H239698   4.142   0.197   4.073  0.4693  1.1895  0.3059
 6095TIP3   OH239699   1.142   2.864   1.923 -0.5171 -0.4796 -0.1866
 6095TIP3    H139700   1.131   2.897   2.012 -2.4139  0.2915 -0.6822
 6095TIP3    H239701   1.087   2.785   1.921  1.0803 -1.6218 -0.1064
 6096TIP3   OH239702   6.576   2.694  17.213 -0.0744  0.0139 -0.2204
 6096TIP3    H139703   6.619   2.644  17.282 -0.1570  0.1370 -0.0797
 6096TIP3    H239704   6.491   2.651  17.202 -0.4255  0.5405  0.3842
 6097TIP3   OH239705   5.895   1.302   2.922  0.3653 -0.8876 -0.0735
 6097TIP3    H139706   5.847   1.329   2.844  1.6466  0.1652 -0.5251
 6097TIP3    H239707   5.891   1.378   2.980  2.7741 -0.1988 -0.7570
 6098TIP3   OH239708   6.561   0.849  13.369 -0.1005  0.5746  0.2894
 6098TIP3    H139709   6.531   0.861  13.459  1.9660  2.9507  0.7162
 6098TIP3    H239710   6.653   0.875  13.370  0.1757 -0.1143 -2.3572
 6099TIP3   OH239711   6.199   6.691  15.503  0.1858 -0.2647 -0.5642
 6099TIP3    H139712   6.160   6.751  15.567  0.2010 -0.6157 -0.2254
 6099TIP3    H239713   6.143   6.699  15.426  0.4829  0.5655 -0.6971
 6100TIP3   OH239714   3.165   1.713  14.453  0.3790  0.5818 -0.2862
 6100TIP3    H139715   3.178   1.658  14.377 -0.3481 -2.5734  1.7872
 6100TIP3    H239716   3.130   1.795  14.418  2.5215  0.1922 -3.5315
 6101TIP3   OH239717   6.145   5.676   5.510  0.0073  0.6496 -0.3703
 6101TIP3    H139718   6.186   5.758   5.536 -0.1957  1.7629 -3.3817
 6101TIP3    H239719   6.078   5.660   5.576  0.2452  2.7549  0.4124
 6102TIP3   OH239720   3.392   5.598   2.430 -0.0402  0.3125 -0.1906
 6102TIP3    H139721   3.356   5.662   2.370  0.1264  0.7704  0.1965
 6102TIP3    H239722   3.453   5.647   2.485 -0.0937 -0.1254  0.2688
 6103TIP3   OH239723   0.708   0.554  16.775 -0.1125  0.2827  0.4293
 6103TIP3    H139724   0.780   0.609  16.743 -0.4065 -0.0310 -0.7677
 6103TIP3    H239725   0.648   0.616  16.817 -0.0333  0.7723 -0.1737
 6104TIP3   OH239726   3.483   4.844  16.312 -0.4860 -0.0338 -0.6827
 6104TIP3    H139727   3.533   4.836  16.231 -0.1673  2.6364 -0.8026
 6104TIP3    H239728   3.522   4.920  16.357 -2.9809  0.7351  0.2570
 6105TIP3   OH239729   2.741   5.469   2.439  0.2881 -0.2831  0.3468
 6105TIP3    H139730   2.716   5.463   2.531  0.0872 -1.6420  0.2052
 6105TIP3    H239731   2.806   5.400   2.426 -1.2953 -1.5612 -1.0394
 6106TIP3   OH239732   2.821   1.349  12.353  0.0925  0.1208  0.4835
 6106TIP3    H139733   2.907   1.318  12.382 -1.1132 -0.7636  3.2676
 6106TIP3    H239734   2.775   1.270  12.324  0.5273  0.7248 -1.9726
 6107TIP3   OH239735   1.505   6.444  16.786 -0.1031 -0.4203  0.4118
 6107TIP3    H139736   1.470   6.457  16.874 -1.5283  1.5069 -0.4050
 6107TIP3    H239737   1.548   6.527  16.764 -0.0042 -0.7779 -0.8072
 6108TIP3   OH239738   1.467   5.173   0.965 -0.3042 -0.2744 -0.0653
 6108TIP3    H139739   1.409   5.107   0.928 -1.9918  1.1138  0.0318
 6108TIP3    H239740   1.417   5.211   1.038  1.9559 -1.2213  2.0689
 6109TIP3   OH239741   6.114   0.888   5.846 -0.5492 -0.6499 -0.6617
 6109TIP3    H139742   6.068   0.806   5.864  0.9289 -1.0339  1.5341
 6109TIP3    H239743   6.134   0.924   5.932 -0.4297  1.6112 -1.6004
 6110TIP3   OH239744   5.265   1.713   5.609  0.0947 -0.4113  0.2357
 6110TIP3    H139745   5.289   1.682   5.521 -0.9739 -1.0680  0.1695
 6110TIP3    H239746   5.346   1.709   5.659  0.0739 -2.9899  0.1305
 6111TIP3   OH239747   1.003   6.544  16.453  0.1649 -0.3637 -0.4593
 6111TIP3    H139748   0.932   6.514  16.397 -1.9316  1.0251  1.3626
 6111TIP3    H239749   0.966   6.618  16.502  2.8409  0.3639  0.5821
 6112TIP3   OH239750   1.933   1.224  17.167 -1.3256 -0.0297  0.2112
 6112TIP3    H139751   1.997   1.246  17.100 -2.9374  0.5064 -1.1813
 6112TIP3    H239752   1.954   1.134  17.192  0.8189  0.6142  0.7928
 6113TIP3   OH239753   5.771   5.695  15.176  0.2550  0.0329 -0.3211
 6113TIP3    H139754   5.797   5.638  15.104 -1.6175  0.7264 -1.5879
 6113TIP3    H239755   5.798   5.783  15.149 -2.0018  0.5609 -1.0351
 6114TIP3   OH239756   2.147   4.783   6.646  0.1561  0.0349 -0.0784
 6114TIP3    H139757   2.064   4.761   6.687  0.8087 -0.1522  1.1614
 6114TIP3    H239758   2.133   4.765   6.553 -0.3896 -2.4628  0.4410
 6115TIP3   OH239759   4.859   0.614  16.121  0.4134 -0.4741  0.4083
 6115TIP3    H139760   4.946   0.652  16.110  0.9470 -1.6268  0.6731
 6115TIP3    H239761   4.851   0.600  16.215 -1.0208  1.8931  0.6761
 6116TIP3   OH239762   5.563   3.834  15.811  0.2310 -0.4953 -0.0567
 6116TIP3    H139763   5.519   3.908  15.769 -0.2852 -0.8624 -0.1650
 6116TIP3    H239764   5.521   3.757  15.773  0.1898 -0.8341  0.6881
 6117TIP3   OH239765   3.907   1.055   2.748 -0.0528 -0.2332  0.5287
 6117TIP3    H139766   3.951   1.139   2.760 -1.5670  0.3171  2.3891
 6117TIP3    H239767   3.868   1.061   2.661 -0.4871  1.1696  0.8010
 6118TIP3   OH239768   1.413   3.149   3.638 -0.3978  0.2453 -0.1902
 6118TIP3    H139769   1.421   3.195   3.721  0.0117 -0.2111  0.0245
 6118TIP3    H239770   1.418   3.218   3.572 -1.3664  0.6774  0.1819
 6119TIP3   OH239771   3.477   3.228   3.724 -0.2834  0.0859 -0.1977
 6119TIP3    H139772   3.519   3.250   3.808 -0.9612  2.1649 -0.3877
 6119TIP3    H239773   3.548   3.191   3.672  0.5063  0.2379  0.7464
 6120TIP3   OH239774   0.877   2.361   2.294 -0.2449 -0.0422 -0.3871
 6120TIP3    H139775   0.803   2.420   2.307 -0.5462 -0.8571  1.8887
 6120TIP3    H239776   0.953   2.412   2.322 -0.2454 -0.0321 -0.4040
 6121TIP3   OH239777   1.818   3.496   4.295 -0.3516 -0.2329  0.1306
 6121TIP3    H139778   1.729   3.532   4.295  0.1705  1.1203 -1.0297
 6121TIP3    H239779   1.874   3.571   4.316  0.5764 -0.9476  0.2500
 6122TIP3   OH239780   1.230   3.620  16.408  0.2849 -0.1174  0.4403
 6122TIP3    H139781   1.321   3.600  16.428  0.8642  1.4998 -0.4684
 6122TIP3    H239782   1.207   3.562  16.335  0.6780 -0.3162  0.4765
 6123TIP3   OH239783   1.034   3.585   5.938 -0.4150 -0.1182 -0.4685
 6123TIP3    H139784   0.978   3.610   6.012 -1.4664 -0.6671 -1.0658
 6123TIP3    H239785   1.120   3.620   5.960 -0.2585 -1.8600  1.9193
 6124TIP3   OH239786   4.395   4.622   2.513  0.5583  0.0295 -0.0701
 6124TIP3    H139787   4.384   4.717   2.523  0.1049  0.1088 -1.3745
 6124TIP3    H239788   4.309   4.590   2.489  0.5352 -0.8265  1.1281
 6125TIP3   OH239789   4.174   2.209   5.505 -0.2140 -0.1488 -0.0787
 6125TIP3    H139790   4.141   2.124   5.534 -1.6363  0.1544 -0.7267
 6125TIP3    H239791   4.253   2.223   5.556 -0.9063 -1.0786  1.2914
 6126TIP3   OH239792   2.214   2.050   6.389 -0.3654 -0.2232  0.4868
 6126TIP3    H139793   2.129   2.088   6.409 -1.1559  0.0944 -3.1987
 6126TIP3    H239794   2.215   1.967   6.437 -3.0722 -0.5942 -0.0500
 6127TIP3   OH239795   6.349   1.333   3.714  0.0342 -0.4697  0.0052
 6127TIP3    H139796   6.255   1.350   3.704 -0.0688 -0.0667  1.6367
 6127TIP3    H239797   6.387   1.417   3.740  0.4727 -1.1739  1.7320
 6128TIP3   OH239798   4.486   1.809  16.542  0.2815 -0.3776  0.1172
 6128TIP3    H139799   4.529   1.731  16.576  1.5980  0.1973 -0.1904
 6128TIP3    H239800   4.499   1.805  16.447  1.5411  0.8724  0.2070
 6129TIP3   OH239801   2.427   2.964  16.096  0.4284 -0.6511 -0.2833
 6129TIP3    H139802   2.369   2.889  16.083 -1.0963  1.0287 -3.8451
 6129TIP3    H239803   2.446   2.995  16.007  2.0678  2.4121  1.0718
 6130TIP3   OH239804   5.166   5.106   1.131  0.2324 -0.2931  0.0297
 6130TIP3    H139805   5.143   5.098   1.038 -1.2041 -0.0813  0.3645
 6130TIP3    H239806   5.119   5.184   1.160 -0.9254 -1.5083  1.4410
 6131TIP3   OH239807   3.243   3.247  12.352 -0.1989  0.0265  0.0976
 6131TIP3    H139808   3.317   3.247  12.291  0.0571 -0.3774  0.4029
 6131TIP3    H239809   3.239   3.337  12.385  2.7658 -0.8856  3.1864
 6132TIP3   OH239810   1.049   3.919   4.830  0.3457 -0.2950  0.1688
 6132TIP3    H139811   1.072   3.919   4.737 -0.0990  1.6246  0.0476
 6132TIP3    H239812   0.953   3.919   4.831  0.3253 -2.8462  0.6537
 6133TIP3   OH239813   5.708   4.478  15.875 -0.5413  0.6362  0.6338
 6133TIP3    H139814   5.650   4.532  15.929  0.6040  1.5977  0.9247
 6133TIP3    H239815   5.792   4.524  15.876 -0.2430  0.1900 -1.2144
 6134TIP3   OH239816   3.895   0.386  13.415  0.2027  0.1116 -0.0283
 6134TIP3    H139817   3.989   0.403  13.422  0.5033 -0.7860 -1.6328
 6134TIP3    H239818   3.861   0.403  13.503  1.7006  1.3869  0.3177
 6135TIP3   OH239819   1.004   3.595  11.672  0.1124 -0.1083  0.0351
 6135TIP3    H139820   0.915   3.601  11.707 -0.3018  0.2152 -1.0451
 6135TIP3    H239821   1.061   3.616  11.746 -0.7102 -0.2692  0.7230
 6136TIP3   OH239822   4.057   3.122   5.328 -0.2719 -0.1076 -0.7302
 6136TIP3    H139823   4.052   3.113   5.233 -1.4323 -1.4939 -0.5528
 6136TIP3    H239824   3.968   3.147   5.354 -0.1144 -0.3782  0.0582
 6137TIP3   OH239825   6.048   5.199  17.098 -0.0313  0.2623 -0.3307
 6137TIP3    H139826   6.117   5.215  17.163 -1.3931  0.4895  1.0930
 6137TIP3    H239827   6.058   5.107  17.075 -0.3457 -0.1631  1.1779
 6138TIP3   OH239828   0.986   3.627   2.570 -0.0967 -0.4224  0.3587
 6138TIP3    H139829   0.926   3.570   2.522  1.0394 -0.0855 -1.5148
 6138TIP3    H239830   1.019   3.572   2.641 -0.9056 -1.3138  0.0609
 6139TIP3   OH239831   1.253   4.461   3.151  0.5668  0.5434 -0.2399
 6139TIP3    H139832   1.208   4.526   3.205  2.1393 -0.3483  2.2149
 6139TIP3    H239833   1.337   4.503   3.129  0.2905  0.5631 -1.2801
 6140TIP3   OH239834   3.700   3.002   2.071 -0.4924 -0.3562 -0.6227
 6140TIP3    H139835   3.618   3.001   2.120 -0.1239 -1.8380 -0.0221
 6140TIP3    H239836   3.692   3.077   2.013 -1.7526  0.2577  0.3194
 6141TIP3   OH239837   3.795   2.375   0.094 -0.4723 -0.1877 -0.3319
 6141TIP3    H139838   3.781   2.281   0.099  0.8844 -0.3402  0.9083
 6141TIP3    H239839   3.735   2.411   0.160 -0.3482 -0.2447 -0.1894
 6142TIP3   OH239840   2.373   2.268   0.620  0.2126  0.1183  0.3996
 6142TIP3    H139841   2.308   2.333   0.594  1.2420  1.7211  1.6908
 6142TIP3    H239842   2.353   2.250   0.712 -0.3653 -1.7847 -0.0829
 6143TIP3   OH239843   2.198   2.230  14.800 -0.4852  0.5678 -0.1831
 6143TIP3    H139844   2.187   2.204  14.708 -0.5699  1.6475 -0.4861
 6143TIP3    H239845   2.110   2.225  14.837 -0.5233  0.5787 -0.2723
 6144TIP3   OH239846   0.725   2.203  10.718 -0.4102 -0.4642 -0.2065
 6144TIP3    H139847   0.645   2.246  10.687 -0.5900  0.0186  0.8969
 6144TIP3    H239848   0.781   2.275  10.747 -0.0326 -0.8739  0.0836
 6145TIP3   OH239849   1.273   4.876   6.308 -0.0519 -0.8060  0.2778
 6145TIP3    H139850   1.216   4.926   6.250  0.4952 -1.0340 -0.4650
 6145TIP3    H239851   1.267   4.786   6.275  1.1199 -0.7467 -0.1055
 6146TIP3   OH239852   0.147   2.969  16.695 -0.4246 -0.2400 -0.6409
 6146TIP3    H139853   0.209   2.899  16.714  0.0864 -0.0303 -1.5319
 6146TIP3    H239854   0.090   2.933  16.627  0.1859  0.3977 -1.5026
 6147TIP3   OH239855   5.635   3.982   4.320 -0.4596 -0.0306  0.1818
 6147TIP3    H139856   5.548   3.941   4.316  0.3615 -1.6681 -1.3570
 6147TIP3    H239857   5.679   3.938   4.393 -0.6032  0.1663  0.3877
 6148TIP3   OH239858   5.243   6.462  16.340  0.4111  0.4280  0.3858
 6148TIP3    H139859   5.162   6.511  16.349  0.9688  1.0043  2.5339
 6148TIP3    H239860   5.241   6.397  16.410  1.9284  0.6165  0.6193
 6149TIP3   OH239861   3.284   3.297  12.897 -0.2699  0.2165  0.1880
 6149TIP3    H139862   3.192   3.320  12.891  0.0502  1.1930 -1.0807
 6149TIP3    H239863   3.326   3.374  12.935  0.3406  0.6183 -1.2605
 6150TIP3   OH239864   4.528   2.981  16.446 -0.4780 -0.1198  0.3549
 6150TIP3    H139865   4.512   2.895  16.406 -0.7568 -0.0410  0.2922
 6150TIP3    H239866   4.585   3.026  16.384  1.2657 -0.9733  1.3189
 6151TIP3   OH239867   2.938   6.105  11.284  1.0065 -0.4636 -0.3269
 6151TIP3    H139868   2.953   6.147  11.199 -0.8896 -0.2463 -0.5794
 6151TIP3    H239869   2.857   6.144  11.316  2.5210  0.6132  2.3429
 6152TIP3   OH239870   1.618   4.872   0.259  0.7253 -0.1904  0.5218
 6152TIP3    H139871   1.630   4.882   0.353 -0.5437  0.7604  0.5983
 6152TIP3    H239872   1.707   4.862   0.224  1.3173  1.0616  1.6483
 6153TIP3   OH239873   3.523   4.896   2.144 -0.5428  0.0797 -0.3722
 6153TIP3    H139874   3.531   4.894   2.240 -1.2123 -1.4306 -0.3283
 6153TIP3    H239875   3.591   4.837   2.113  0.3786  1.4174 -0.8874
 6154TIP3   OH239876   3.533   0.706  13.404  0.0997  0.1614  0.0566
 6154TIP3    H139877   3.457   0.724  13.459 -0.0958  0.3026 -0.2540
 6154TIP3    H239878   3.557   0.792  13.368 -2.4318 -0.4715 -3.5085
 6155TIP3   OH239879   5.517   1.305   4.387 -0.4319  0.1163  0.0919
 6155TIP3    H139880   5.486   1.351   4.309  0.7426 -1.9924 -1.6880
 6155TIP3    H239881   5.473   1.220   4.383  0.7449 -0.5407  0.9199
 6156TIP3   OH239882   3.065   0.983  15.973  0.1726  0.2048 -0.6131
 6156TIP3    H139883   3.047   1.063  16.023  0.1113 -0.2185  0.0469
 6156TIP3    H239884   3.159   0.989  15.952  0.1948  0.3917 -0.4636
 6157TIP3   OH239885   6.028   5.724   0.676 -0.2652 -0.0099  0.1866
 6157TIP3    H139886   6.068   5.801   0.717  0.5828  0.5457 -1.6209
 6157TIP3    H239887   5.947   5.757   0.637 -0.0160 -0.0523 -0.3873
 6158TIP3   OH239888   4.363   5.478   5.135 -0.5011  0.0698  0.3050
 6158TIP3    H139889   4.438   5.523   5.099 -0.8631  0.4082 -0.0329
 6158TIP3    H239890   4.389   5.386   5.138 -0.0591  0.1929  0.2414
 6159TIP3   OH239891   1.864   5.476   4.517  0.2014 -0.2294  0.8179
 6159TIP3    H139892   1.801   5.433   4.575 -0.6935  2.7810  2.1840
 6159TIP3    H239893   1.947   5.472   4.565  0.2562 -0.9007  0.6779
 6160TIP3   OH239894   0.540   3.321   2.243  0.0650 -0.1581 -0.1716
 6160TIP3    H139895   0.481   3.392   2.216 -1.6004 -1.6012 -0.4203
 6160TIP3    H239896   0.567   3.280   2.161  0.0904 -0.5508  0.0330
 6161TIP3   OH239897   5.931   2.515  11.830 -0.1532 -0.1945 -0.1338
 6161TIP3    H139898   5.889   2.500  11.746 -1.0532  0.2965  0.2257
 6161TIP3    H239899   5.859   2.529  11.892  0.4119 -2.6938  1.1639
 6162TIP3   OH239900   1.681   1.150   0.456 -0.6415  0.5574  0.7333
 6162TIP3    H139901   1.718   1.211   0.519 -0.4819  0.4772  0.7160
 6162TIP3    H239902   1.751   1.135   0.392  0.5254 -2.3699  2.6202
 6163TIP3   OH239903   3.558   2.498   3.598 -0.0745  0.1452 -0.2070
 6163TIP3    H139904   3.601   2.416   3.623 -0.6109 -0.5354 -1.4660
 6163TIP3    H239905   3.585   2.561   3.666  0.8007 -0.9178  0.4534
 6164TIP3   OH239906   3.540   2.989  15.119  0.0634 -0.1301  0.1374
 6164TIP3    H139907   3.609   2.991  15.054 -0.5812 -0.4862 -0.5646
 6164TIP3    H239908   3.479   3.057  15.091 -1.2233 -1.6266 -0.7607
 6165TIP3   OH239909   3.099   2.940   0.784  0.2541 -0.5181 -0.2510
 6165TIP3    H139910   3.157   2.889   0.726 -0.4643  0.4914 -1.9039
 6165TIP3    H239911   3.124   3.031   0.769 -0.6107 -0.1848  0.3153
 6166TIP3   OH239912   4.183   5.758   5.124  0.1309  0.4487 -0.4235
 6166TIP3    H139913   4.205   5.718   5.208 -0.9817  0.7557  0.0095
 6166TIP3    H239914   4.206   5.691   5.060  0.3683 -0.0367  0.1631
 6167TIP3   OH239915   1.947   3.078   2.783 -0.3686  0.4014 -0.3755
 6167TIP3    H139916   1.998   3.089   2.702  3.3492 -2.1979  1.4483
 6167TIP3    H239917   1.985   3.140   2.844 -0.4139 -0.4489  0.5368
 6168TIP3   OH239918   4.345   5.660   0.230 -0.5299  0.3379 -0.2523
 6168TIP3    H139919   4.395   5.668   0.148  0.0646  0.3500  0.1129
 6168TIP3    H239920   4.254   5.670   0.202 -0.3522  0.0813 -0.9542
 6169TIP3   OH239921   3.990   2.038  14.543 -0.2813 -0.3471 -0.1182
 6169TIP3    H139922   4.059   2.086  14.498 -1.2991  0.8006 -0.5026
 6169TIP3    H239923   4.010   2.049  14.636 -0.8386  1.3744 -0.1827
 6170TIP3   OH239924   2.339   6.514   2.127 -0.2072 -0.1282 -0.8135
 6170TIP3    H139925   2.308   6.483   2.211  1.3147 -1.7339 -0.8058
 6170TIP3    H239926   2.315   6.445   2.065 -0.5029  0.6127 -1.5383
 6171TIP3   OH239927   0.557   2.927   0.457  0.2153  0.1869 -0.5826
 6171TIP3    H139928   0.526   2.912   0.546 -1.6978  0.2622 -1.2084
 6171TIP3    H239929   0.528   3.015   0.436  1.9061  0.7063 -0.7890
 6172TIP3   OH239930   2.513   6.506   4.380 -0.1671 -0.1049  0.2226
 6172TIP3    H139931   2.490   6.478   4.468 -2.1443  0.5594 -0.0501
 6172TIP3    H239932   2.511   6.602   4.383 -1.9081 -0.0773 -0.9207
 6173TIP3   OH239933   1.796   0.557  15.626  0.0174 -0.0929 -0.1608
 6173TIP3    H139934   1.846   0.599  15.697 -1.1258  0.3333  0.4018
 6173TIP3    H239935   1.836   0.471  15.617  1.6978  0.6954 -0.5854
 6174TIP3   OH239936   5.729   1.771   3.447  0.3613 -0.2574 -0.1756
 6174TIP3    H139937   5.704   1.680   3.461  0.0143  0.0727  1.4842
 6174TIP3    H239938   5.813   1.766   3.401  1.0543 -1.4365  1.1651
 6175TIP3   OH239939   1.474   4.530   3.809  0.1431 -0.1448  0.4717
 6175TIP3    H139940   1.494   4.524   3.715  0.4037  0.0928  0.5080
 6175TIP3    H239941   1.490   4.442   3.843 -2.4532 -0.8908 -0.1660
 6176TIP3   OH239942   0.773   0.527   1.139 -0.3009  0.1178  0.2880
 6176TIP3    H139943   0.775   0.593   1.208 -0.4149  1.4665 -0.9710
 6176TIP3    H239944   0.683   0.493   1.141 -0.9935  1.7995 -0.6863
 6177TIP3   OH239945   2.243   0.680  13.177 -0.8170 -0.4732  0.0499
 6177TIP3    H139946   2.188   0.754  13.151 -1.8503 -1.0397  0.5942
 6177TIP3    H239947   2.268   0.699  13.267  1.0810  0.4870 -0.6660
 6178TIP3   OH239948   5.618   1.961   1.545  0.3145  0.4769 -0.0637
 6178TIP3    H139949   5.662   2.028   1.492 -0.9413  0.3134 -1.3493
 6178TIP3    H239950   5.594   2.007   1.626 -0.7459  1.6726 -1.0253
 6179TIP3   OH239951   2.315   1.030   6.024  0.0660  0.0340 -0.0102
 6179TIP3    H139952   2.240   1.070   6.069 -0.8106 -2.7385  1.1756
 6179TIP3    H239953   2.388   1.043   6.084  0.3815  2.1352 -0.8430
 6180TIP3   OH239954   1.720   3.810  16.919 -0.0880 -0.7084 -0.4244
 6180TIP3    H139955   1.783   3.798  16.848 -0.9514 -2.4586 -0.9374
 6180TIP3    H239956   1.662   3.733  16.913 -1.5280  0.2496  0.7787
 6181TIP3   OH239957   5.138   4.774   3.861  0.3718  0.1967 -0.5272
 6181TIP3    H139958   5.230   4.777   3.887  0.3984 -2.0886 -0.2626
 6181TIP3    H239959   5.091   4.802   3.940  0.7614 -0.2648 -0.1224
 6182TIP3   OH239960   3.551   2.713   5.657  0.2034  0.3621 -0.4344
 6182TIP3    H139961   3.625   2.670   5.614  0.7515  0.8805 -0.0258
 6182TIP3    H239962   3.502   2.753   5.586  1.6560  2.0724 -0.5083
 6183TIP3   OH239963   4.088   5.032  12.996 -0.1361 -0.6353 -0.4155
 6183TIP3    H139964   4.171   5.036  13.042  0.0720 -0.7652 -0.7830
 6183TIP3    H239965   4.070   5.122  12.969 -1.3133 -0.1577  1.7915
 6184TIP3   OH239966   5.154   0.831  15.605  0.0879 -0.9053 -0.0535
 6184TIP3    H139967   5.178   0.913  15.563  0.9219 -0.8309  0.5490
 6184TIP3    H239968   5.061   0.838  15.623  0.0964 -0.2242 -0.2932
 6185TIP3   OH239969   0.705   4.521  13.910  0.4613 -0.4372 -0.3508
 6185TIP3    H139970   0.611   4.528  13.895  0.1769 -0.4201  1.2719
 6185TIP3    H239971   0.745   4.535  13.824 -0.8861  2.3621 -0.5809
 6186TIP3   OH239972   0.191   1.636  16.660 -0.6766 -0.7473  0.7335
 6186TIP3    H139973   0.263   1.612  16.717 -1.5643 -0.2316  2.0842
 6186TIP3    H239974   0.210   1.591  16.577  0.8138 -1.1700  1.2957
 6187TIP3   OH239975   6.398   4.541   2.499  0.2770  0.6394  0.1962
 6187TIP3    H139976   6.431   4.471   2.554 -2.5226 -0.6203  0.3734
 6187TIP3    H239977   6.467   4.557   2.435  1.2490 -1.7914  0.6104
 6188TIP3   OH239978   2.106   6.220   4.359  0.3012  0.0329 -0.3568
 6188TIP3    H139979   2.142   6.307   4.377  1.5236 -0.2496 -1.4022
 6188TIP3    H239980   2.155   6.162   4.417 -1.1947  0.1423  1.0656
 6189TIP3   OH239981   1.855   5.419  17.212 -0.4459  0.3903  0.1348
 6189TIP3    H139982   1.923   5.354  17.227  0.7028  1.5723  0.1855
 6189TIP3    H239983   1.809   5.427  17.295 -1.0047 -0.8015 -0.0523
 6190TIP3   OH239984   0.098   3.133   3.127  0.2043 -0.3214  0.1233
 6190TIP3    H139985   0.029   3.076   3.093  0.3243  0.4057 -1.3903
 6190TIP3    H239986   0.094   3.211   3.071 -0.3011  1.3921  2.4807
 6191TIP3   OH239987   2.871   5.505   1.035 -0.2212 -0.2654 -0.4925
 6191TIP3    H139988   2.902   5.432   0.981 -0.4745  0.2218 -1.2940
 6191TIP3    H239989   2.936   5.512   1.104  1.6421  0.9504 -2.3379
 6192TIP3   OH239990   2.214   1.060  12.136  0.1310 -0.0739  0.1661
 6192TIP3    H139991   2.196   1.107  12.218 -2.0269  2.3159 -1.5901
 6192TIP3    H239992   2.307   1.076  12.120  0.3725  0.1732  1.6865
 6193TIP3   OH239993   5.361   4.728  13.423 -0.1453  0.0109  0.4470
 6193TIP3    H139994   5.452   4.744  13.396  0.2949 -0.3147  1.6865
 6193TIP3    H239995   5.321   4.684  13.348  0.1813  1.8563 -0.8615
 6194TIP3   OH239996   3.833   6.386   2.894  0.0103  1.0346  0.4052
 6194TIP3    H139997   3.897   6.328   2.853 -0.8448  1.0657 -0.9804
 6194TIP3    H239998   3.886   6.448   2.944  1.0653  1.2091 -0.9184
 6195TIP3   OH239999   3.501   5.810   4.038  0.3425 -0.1035 -0.5133
 6195TIP3    H140000   3.471   5.901   4.045 -1.2579 -0.6588  0.2919
 6195TIP3    H240001   3.446   5.772   3.970 -1.2511 -1.3011  1.3808
 6196TIP3   OH240002   0.592   0.860  15.341 -0.0391  0.1212 -0.6314
 6196TIP3    H140003   0.665   0.856  15.280  0.8983 -0.8547  0.5448
 6196TIP3    H240004   0.619   0.806  15.415 -2.4130 -1.2073 -0.6851
 6197TIP3   OH240005   6.334   0.041  13.340  0.3685 -0.3579 -0.2765
 6197TIP3    H140006   6.418   0.060  13.383  0.0081 -2.9803  1.6634
 6197TIP3    H240007   6.321  -0.052  13.353 -1.4717 -0.5636 -3.1504
 6198TIP3   OH240008   0.516   3.893  17.222 -0.1534 -0.1158  0.4397
 6198TIP3    H140009   0.530   3.877  17.129 -1.6827  0.8661  0.0179
 6198TIP3    H240010   0.587   3.846  17.265  0.5117 -0.6748 -1.2118
 6199TIP3   OH240011   6.445   0.632   0.988  0.0763  0.4220  0.5733
 6199TIP3    H140012   6.349   0.633   0.979  0.1188  2.8140  0.1257
 6199TIP3    H240013   6.462   0.679   1.070  0.9043  0.7904  0.1919
 6200TIP3   OH240014   6.425   2.973   0.500 -0.1024 -0.5051 -0.0661
 6200TIP3    H140015   6.378   3.000   0.578 -2.3695 -1.8336 -0.9237
 6200TIP3    H240016   6.372   3.006   0.427  1.3049 -0.3771 -1.0639
 6201TIP3   OH240017   6.281   5.305  17.214  0.0109 -0.5164  0.9923
 6201TIP3    H140018   6.337   5.372  17.252 -0.3157 -0.2735  1.0452
 6201TIP3    H240019   6.342   5.238  17.181  0.2835 -0.8351  2.1414
 6202TIP3   OH240020   5.782   3.494   2.534  0.0992  0.1989 -0.4254
 6202TIP3    H140021   5.762   3.586   2.552 -0.2786  0.2088 -0.8858
 6202TIP3    H240022   5.863   3.477   2.581  0.7237  1.0596 -1.1749
 6203TIP3   OH240023   2.546   0.697   2.779 -0.6767  0.5180 -0.1969
 6203TIP3    H140024   2.618   0.704   2.842  0.0642 -1.9053 -0.7363
 6203TIP3    H240025   2.534   0.787   2.747  2.3298  0.9430 -0.3180
 6204TIP3   OH240026   2.494   0.229  14.161  0.0173 -0.0262 -0.6385
 6204TIP3    H140027   2.509   0.175  14.083 -1.6101  0.6817 -1.4822
 6204TIP3    H240028   2.581   0.253  14.191  0.6906 -0.9846 -1.7802
 6205TIP3   OH240029   3.286   2.456   1.032 -0.9692 -0.1021  0.5305
 6205TIP3    H140030   3.328   2.524   0.979 -1.3667  0.6444  1.1702
 6205TIP3    H240031   3.358   2.414   1.078 -0.6321 -0.6745 -0.4946
 6206TIP3   OH240032   2.049   2.521  17.182 -0.1865  0.3997 -0.5273
 6206TIP3    H140033   1.973   2.464  17.175 -0.2138  0.4068 -0.2881
 6206TIP3    H240034   2.112   2.471  17.233 -1.2994  1.7075  2.2164
 6207TIP3   OH240035   3.758   6.340  11.372  0.0631 -0.8204 -0.0388
 6207TIP3    H140036   3.835   6.286  11.356  1.1215  0.5786  0.2425
 6207TIP3    H240037   3.736   6.375  11.285  1.2438  0.7364  0.2691
 6208TIP3   OH240038   2.791   5.959   5.946  0.0952  0.4515  0.0506
 6208TIP3    H140039   2.767   5.872   5.914 -1.4019  1.5853 -2.1425
 6208TIP3    H240040   2.713   5.989   5.993  1.3317 -0.1519  2.5186
 6209TIP3   OH240041   5.272   0.040  13.674 -0.2277 -0.7125 -0.3300
 6209TIP3    H140042   5.303  -0.040  13.717 -1.1491  0.2933  2.3420
 6209TIP3    H240043   5.336   0.107  13.698 -0.0769 -0.3777 -1.6093
 6210TIP3   OH240044   1.336   0.609  12.315  0.2288  0.6454  0.3821
 6210TIP3    H140045   1.269   0.555  12.273  2.0362  0.1731 -2.0477
 6210TIP3    H240046   1.402   0.546  12.345  0.8024  1.2728  0.4405
 6211TIP3   OH240047   2.372   5.056   5.422 -0.2263 -0.4857 -0.2933
 6211TIP3    H140048   2.311   5.003   5.474  0.4055 -1.4479 -0.5054
 6211TIP3    H240049   2.348   5.037   5.331  0.1995 -0.6476 -0.3732
 6212TIP3   OH240050   0.415   5.938   0.678  0.5724  0.7072  0.7463
 6212TIP3    H140051   0.425   5.936   0.773  0.8050 -1.0075  0.6916
 6212TIP3    H240052   0.485   5.883   0.644  0.6990  1.5695 -0.4554
 6213TIP3   OH240053   5.732   1.211   3.868  0.3598 -0.2086 -0.0806
 6213TIP3    H140054   5.748   1.288   3.922  2.1998 -1.5779  1.4028
 6213TIP3    H240055   5.791   1.144   3.904 -0.2355 -1.9058 -2.1741
 6214TIP3   OH240056   6.280   5.584  10.944  0.3252 -0.7220  0.0667
 6214TIP3    H140057   6.313   5.673  10.936 -1.6611  0.1385  1.0457
 6214TIP3    H240058   6.261   5.557  10.854  0.5169  0.0066 -0.1974
 6215TIP3   OH240059   0.812   3.473  13.631 -0.0500 -0.5687  0.2515
 6215TIP3    H140060   0.895   3.436  13.662  0.6822  0.8174  0.0009
 6215TIP3    H240061   0.837   3.527  13.556 -1.1381  0.1020  0.3716
 6216TIP3   OH240062   5.368   0.888   1.472 -0.5372  0.1119  0.5022
 6216TIP3    H140063   5.306   0.868   1.542 -0.2027 -0.4461  0.6324
 6216TIP3    H240064   5.452   0.858   1.504 -0.3346  0.1208 -0.0216
 6217TIP3   OH240065   3.368   1.594   3.937  0.3850  0.2482 -0.8044
 6217TIP3    H140066   3.361   1.684   3.970  0.9693  0.0263 -0.0396
 6217TIP3    H240067   3.449   1.593   3.886  0.3786  0.1569 -0.8133
 6218TIP3   OH240068   5.650   2.024  16.713  0.2219 -0.2873 -0.4649
 6218TIP3    H140069   5.579   2.069  16.759 -0.8063 -0.8684 -1.4549
 6218TIP3    H240070   5.723   2.025  16.774 -0.8636 -0.3091  0.8438
 6219TIP3   OH240071   6.168   3.755  14.067  0.5220 -0.0443 -0.4990
 6219TIP3    H140072   6.169   3.840  14.113 -0.4709  0.3820 -1.2383
 6219TIP3    H240073   6.081   3.719  14.086  0.7940 -0.7104 -0.5205
 6220TIP3   OH240074   4.290   6.747  16.208  0.7399  0.3087 -0.0903
 6220TIP3    H140075   4.209   6.721  16.163  1.7981  0.7674 -2.2920
 6220TIP3    H240076   4.262   6.768  16.297 -1.4743 -0.1062 -0.6629
 6221TIP3   OH240077   4.142   3.150  12.883  0.1457  0.1016 -0.0273
 6221TIP3    H140078   4.062   3.122  12.929  0.1382  0.4688  0.1790
 6221TIP3    H240079   4.171   3.071  12.837  0.0628 -0.2217  0.4711
 6222TIP3   OH240080   1.627   2.210  14.209  0.7699 -0.4437  0.1209
 6222TIP3    H140081   1.600   2.298  14.180 -1.0500 -0.2935  2.1530
 6222TIP3    H240082   1.637   2.161  14.128 -0.1366  1.1074 -0.9740
 6223TIP3   OH240083   0.783   6.722   2.188  0.3151  0.2727  0.6623
 6223TIP3    H140084   0.777   6.726   2.092 -0.0526  0.7821  0.7063
 6223TIP3    H240085   0.817   6.635   2.206 -1.2031 -0.4295  0.1452
 6224TIP3   OH240086   5.578   6.473  11.415 -0.1370 -0.2497  0.2567
 6224TIP3    H140087   5.631   6.404  11.454 -0.6143 -1.1102 -0.6024
 6224TIP3    H240088   5.550   6.437  11.330 -2.0825  0.1833  0.6834
 6225TIP3   OH240089   2.510   0.861  12.275 -0.2727 -0.6546 -0.0646
 6225TIP3    H140090   2.506   0.919  12.351  1.6592  2.1060 -1.9594
 6225TIP3    H240091   2.561   0.786  12.304  2.2159  1.3222  0.8407
 6226TIP3   OH240092   5.037   0.344  13.257 -0.3567 -0.7178 -0.3280
 6226TIP3    H140093   5.100   0.392  13.202  0.3277 -1.6657 -0.3971
 6226TIP3    H240094   5.087   0.321  13.335 -0.8082 -0.9268 -0.1015
 6227TIP3   OH240095   4.942   4.249  12.106  0.4471  0.1344  0.1769
 6227TIP3    H140096   5.032   4.241  12.074  0.5686 -0.1849  0.5988
 6227TIP3    H240097   4.944   4.329  12.160  0.3261  0.4770 -0.3262
 6228TIP3   OH240098   3.571   5.150  10.579 -0.8686 -0.3795 -0.5955
 6228TIP3    H140099   3.634   5.213  10.612 -1.0024 -0.1450 -0.7827
 6228TIP3    H240100   3.499   5.203  10.545 -0.5289 -0.6021 -1.6677
 6229TIP3   OH240101   4.228   2.336   4.271 -0.0842  0.1171 -0.0050
 6229TIP3    H140102   4.151   2.338   4.214 -0.3296 -1.5273  0.2344
 6229TIP3    H240103   4.253   2.427   4.281 -0.9529  0.5435 -1.5176
 6230TIP3   OH240104   1.689   5.826  16.538 -0.1740  0.6011 -0.1037
 6230TIP3    H140105   1.710   5.919  16.543  0.2835  0.4210  2.3820
 6230TIP3    H240106   1.753   5.784  16.596 -0.8022 -1.1776 -0.6619
 6231TIP3   OH240107   3.289   0.456  17.176  0.1735  0.5458  1.1565
 6231TIP3    H140108   3.227   0.497  17.236 -0.5731 -0.1370  0.8578
 6231TIP3    H240109   3.246   0.462  17.090  0.0652 -0.8363  1.1092
 6232TIP3   OH240110   3.356   1.499   6.024 -0.4862 -0.0612  0.0483
 6232TIP3    H140111   3.373   1.501   5.930  1.6622  1.8556  0.4500
 6232TIP3    H240112   3.321   1.586   6.044  2.2013  0.7409  1.5430
 6233TIP3   OH240113   1.872   2.030   4.093 -0.3133  0.4965  0.1010
 6233TIP3    H140114   1.893   2.101   4.033 -2.6559 -0.0514 -1.4534
 6233TIP3    H240115   1.840   2.074   4.172 -1.2296  1.1902 -0.6440
 6234TIP3   OH240116   3.843   3.211  16.618  0.2966 -0.0500 -0.1304
 6234TIP3    H140117   3.911   3.278  16.608 -1.4421  2.0263  1.4196
 6234TIP3    H240118   3.871   3.161  16.695  0.1120  0.7527  0.4605
 6235TIP3   OH240119   6.119   5.990  12.789 -0.2047 -0.0503  0.4802
 6235TIP3    H140120   6.163   6.075  12.795 -0.0307 -0.2203  1.6622
 6235TIP3    H240121   6.026   6.013  12.779 -0.1784  0.2807  0.9648
 6236TIP3   OH240122   0.266   3.223   1.196 -0.2634  0.1947 -0.2502
 6236TIP3    H140123   0.330   3.249   1.263  2.2661 -0.7645 -2.1979
 6236TIP3    H240124   0.249   3.303   1.148  0.7302  0.1344 -0.7191
 6237TIP3   OH240125   6.092   0.277  15.182  0.6106  0.3972  0.2715
 6237TIP3    H140126   6.040   0.342  15.134 -0.0031  0.8119  1.4688
 6237TIP3    H240127   6.034   0.202  15.192  1.4452 -0.4848 -1.4231
 6238TIP3   OH240128   5.993   5.487  16.137 -0.0353 -0.6064 -0.4244
 6238TIP3    H140129   5.941   5.447  16.207 -0.3317  0.1436 -0.2133
 6238TIP3    H240130   5.979   5.581  16.147  2.7854 -0.2764  0.7403
 6239TIP3   OH240131   5.657   4.036   6.195  0.2336  0.1014 -0.0410
 6239TIP3    H140132   5.660   4.082   6.279 -1.1468 -2.3047  1.4216
 6239TIP3    H240133   5.687   3.947   6.216  1.3343 -0.1262 -2.4284
 6240TIP3   OH240134   5.906   6.155   3.643  0.2003  0.3910 -0.7425
 6240TIP3    H140135   5.964   6.080   3.653 -1.8299 -0.9450  1.7930
 6240TIP3    H240136   5.883   6.156   3.549  1.5509 -1.1365 -1.1017
 6241TIP3   OH240137   0.588   2.200  14.633 -0.4666  0.2031  0.1127
 6241TIP3    H140138   0.528   2.210  14.559  1.0729 -1.1734 -1.3777
 6241TIP3    H240139   0.563   2.117  14.673  0.5002 -0.4215 -0.5721
 6242TIP3   OH240140   5.813   1.656  11.514  0.7002 -0.0354  0.3013
 6242TIP3    H140141   5.811   1.561  11.511 -1.5060  0.0057 -1.0332
 6242TIP3    H240142   5.885   1.681  11.457  1.6275 -0.9115  1.0838
 6243TIP3   OH240143   0.502   5.510  12.004 -0.1724 -0.7966 -0.4521
 6243TIP3    H140144   0.526   5.478  12.091 -1.1375 -1.8564 -0.5620
 6243TIP3    H240145   0.522   5.604  12.007  0.5888 -0.9774  0.6263
 6244TIP3   OH240146   1.851   6.436  14.015  0.5526 -0.3617 -0.5558
 6244TIP3    H140147   1.843   6.341  14.016  3.2967 -0.6429  0.3774
 6244TIP3    H240148   1.864   6.460  14.106  0.5374  0.8397 -0.8640
 6245TIP3   OH240149   4.970   3.323  12.279  0.2954  0.1515 -0.2647
 6245TIP3    H140150   5.061   3.352  12.291  0.4985 -1.0018  1.0797
 6245TIP3    H240151   4.974   3.228  12.290 -1.4943  0.3508  2.4941
 6246TIP3   OH240152   5.625   1.927   2.107  0.2789  0.2058  0.1329
 6246TIP3    H140153   5.666   1.926   2.020 -1.5395 -0.3568 -0.7539
 6246TIP3    H240154   5.692   1.962   2.165  1.9554 -0.5492 -1.2897
 6247TIP3   OH240155   3.652   6.110  11.795  0.4418 -0.1460  0.7057
 6247TIP3    H140156   3.693   6.024  11.797  0.4602 -0.1823 -0.8468
 6247TIP3    H240157   3.711   6.164  11.742 -0.9681  0.0729 -0.6866
 6248TIP3   OH240158   6.546   0.699   3.825  0.1294  0.6716  0.2510
 6248TIP3    H140159   6.483   0.767   3.804  0.4115  0.3024 -1.8665
 6248TIP3    H240160   6.496   0.617   3.816  1.1689  0.3005 -2.6607
 6249TIP3   OH240161   6.410   2.730  15.036 -0.3056  0.3297  0.0972
 6249TIP3    H140162   6.491   2.697  15.075 -0.2557  1.4222  0.9509
 6249TIP3    H240163   6.341   2.694  15.092 -0.3164  0.7752  0.3671
 6250TIP3   OH240164   4.147   1.617   2.796  0.2490  0.0454  0.2281
 6250TIP3    H140165   4.065   1.569   2.787 -1.2663  1.9779  3.0408
 6250TIP3    H240166   4.144   1.683   2.726  0.3361 -1.1005 -0.8767
 6251TIP3   OH240167   2.536   5.029   1.562  0.0247  0.2120 -0.0645
 6251TIP3    H140168   2.542   4.936   1.540  1.0659  0.5881 -1.4194
 6251TIP3    H240169   2.443   5.043   1.582 -0.1988 -1.0382 -0.1942
 6252TIP3   OH240170   0.680   6.742  17.214  0.4497 -0.0975 -0.2082
 6252TIP3    H140171   0.628   6.819  17.190  0.3730  0.4642  1.6292
 6252TIP3    H240172   0.618   6.683  17.256  1.1467  0.3604  1.5373
 6253TIP3   OH240173   1.836   3.578  14.846  0.2154  0.1259  0.6689
 6253TIP3    H140174   1.801   3.600  14.759 -0.1210 -1.0419  0.4976
 6253TIP3    H240175   1.813   3.653  14.901  2.1019  1.7774 -0.6758
 6254TIP3   OH240176   1.353   0.617   5.051  0.0468  0.3000 -0.0167
 6254TIP3    H140177   1.296   0.540   5.045  2.1893 -1.2439 -1.3906
 6254TIP3    H240178   1.301   0.682   5.097 -2.7102 -1.1558 -0.9617
 6255TIP3   OH240179   3.303   4.008  13.947  0.3640 -0.2974  0.3688
 6255TIP3    H140180   3.240   4.059  13.896  0.7764 -0.7010 -0.5596
 6255TIP3    H240181   3.261   3.924  13.962  0.1607 -0.1061  0.8745
 6256TIP3   OH240182   0.998   6.537  17.207  0.0480 -0.8348 -0.3325
 6256TIP3    H140183   0.952   6.472  17.154  0.6409 -1.1208 -0.4998
 6256TIP3    H240184   0.976   6.621  17.167 -0.9985 -0.9047  0.0935
 6257TIP3   OH240185   1.712   2.984  15.676 -0.1420 -0.0880  0.1257
 6257TIP3    H140186   1.746   2.935  15.601  0.7947  0.7880 -0.0182
 6257TIP3    H240187   1.713   2.920  15.748 -1.3548 -1.0312 -0.6618
 6258TIP3   OH240188   2.606   4.486   5.632 -0.1380 -0.0975  0.1668
 6258TIP3    H140189   2.678   4.429   5.657 -0.8762 -0.2304  2.0644
 6258TIP3    H240190   2.623   4.569   5.676 -0.8510  0.0372  0.2040
 6259TIP3   OH240191   1.490   0.012   3.059  0.7334 -0.2093  0.4356
 6259TIP3    H140192   1.485   0.022   2.964  1.9193 -0.8483  0.2936
 6259TIP3    H240193   1.543   0.086   3.088 -0.2068  0.3733  0.6822
 6260TIP3   OH240194   5.559   3.297  11.229  0.1087 -0.1464  0.2954
 6260TIP3    H140195   5.583   3.244  11.152  1.7232  0.4762  0.3533
 6260TIP3    H240196   5.558   3.387  11.198  0.8118  0.1156  1.0201
 6261TIP3   OH240197   4.218   2.741  15.605 -0.1370  0.0358 -0.6203
 6261TIP3    H140198   4.145   2.803  15.604 -1.2052 -1.2152 -1.6111
 6261TIP3    H240199   4.250   2.741  15.514  0.4743 -0.1705 -0.4111
 6262TIP3   OH240200   1.896   4.974  15.700  0.0687 -0.0469 -0.0361
 6262TIP3    H140201   1.943   4.891  15.696  0.8493  0.4210 -0.7081
 6262TIP3    H240202   1.928   5.024  15.625 -2.0419  0.0141 -0.9261
 6263TIP3   OH240203   2.301   1.290  17.211  0.1580 -0.6663 -0.1825
 6263TIP3    H140204   2.230   1.251  17.160 -0.5793  0.1163  0.2439
 6263TIP3    H240205   2.337   1.359  17.154 -0.3669 -0.0990  0.1665
 6264TIP3   OH240206   4.577   3.406   2.477 -0.3573 -0.2877 -0.4714
 6264TIP3    H140207   4.654   3.459   2.497  0.5751 -2.7403  2.9251
 6264TIP3    H240208   4.604   3.352   2.403 -0.0778  1.3825 -1.6096
 6265TIP3   OH240209   1.915   2.586  16.841 -0.5544  0.7962  0.5264
 6265TIP3    H140210   2.006   2.579  16.869 -0.4606 -0.0721  0.0060
 6265TIP3    H240211   1.877   2.500  16.859 -0.6925  0.4548 -1.3032
 6266TIP3   OH240212   6.148   4.346  11.315 -0.3732  0.2099 -0.7068
 6266TIP3    H140213   6.075   4.365  11.374  1.2244  0.2873  1.3127
 6266TIP3    H240214   6.152   4.422  11.257 -0.8598  0.9832  0.2499
 6267TIP3   OH240215   4.093   3.908   5.129  0.0732 -0.4910 -0.1478
 6267TIP3    H140216   4.016   3.910   5.072  0.8217 -2.7255 -1.2895
 6267TIP3    H240217   4.069   3.849   5.200 -0.3283  1.1712  1.1467
 6268TIP3   OH240218   6.451   4.047   2.361  0.0776  0.5236 -0.3472
 6268TIP3    H140219   6.471   4.080   2.449  0.0002 -0.3844  0.0203
 6268TIP3    H240220   6.359   4.020   2.366 -0.4757  2.2000 -1.2554
 6269TIP3   OH240221   3.645   2.445   2.528 -0.1943  0.3513  0.1450
 6269TIP3    H140222   3.640   2.350   2.537  0.1438  0.1858 -1.2029
 6269TIP3    H240223   3.558   2.476   2.554 -0.6768 -0.4367 -0.4742
 6270TIP3   OH240224   6.439   5.846  15.072 -0.2705  0.5128  0.0886
 6270TIP3    H140225   6.380   5.921  15.066  0.5255  1.1675  0.3632
 6270TIP3    H240226   6.402   5.781  15.012 -0.4864  1.4500 -0.7935
 6271TIP3   OH240227   5.875   1.143   3.455 -0.0104 -0.4779 -0.1130
 6271TIP3    H140228   5.966   1.174   3.449  0.0372 -0.7327 -0.7149
 6271TIP3    H240229   5.828   1.215   3.496  0.2500  0.0824 -0.8005
 6272TIP3   OH240230   3.237   2.302   2.364  0.5117  0.4403  0.4821
 6272TIP3    H140231   3.227   2.348   2.447 -0.2390 -0.3989  0.8726
 6272TIP3    H240232   3.308   2.347   2.319 -0.3168  2.0676  0.7865
 6273TIP3   OH240233   0.634   2.195   4.400 -0.1008 -0.0949 -0.0399
 6273TIP3    H140234   0.680   2.277   4.385  1.2556 -0.8854 -0.2204
 6273TIP3    H240235   0.558   2.220   4.453 -0.0906  1.3727 -0.7018
 6274TIP3   OH240236   4.600   3.648   2.967 -0.3373 -1.0977 -0.1591
 6274TIP3    H140237   4.655   3.706   3.019  0.2746 -1.4501 -0.4060
 6274TIP3    H240238   4.618   3.673   2.876 -1.6544 -0.2513 -0.1917
 6275TIP3   OH240239   2.221   1.605   5.399 -0.0009  0.2886 -0.5875
 6275TIP3    H140240   2.301   1.619   5.349  0.1130  0.4273 -0.3669
 6275TIP3    H240241   2.171   1.542   5.348 -0.8372  2.0305 -1.9693
 6276TIP3   OH240242   1.442   1.281  15.969 -0.0900  0.0153 -0.1341
 6276TIP3    H140243   1.426   1.339  16.043 -0.8296 -1.1639  0.6710
 6276TIP3    H240244   1.536   1.267  15.969  0.0578  1.0089 -0.1787
 6277TIP3   OH240245   2.841   3.107  15.278  0.4135  0.0226 -0.5297
 6277TIP3    H140246   2.817   3.199  15.285  0.7580  0.1090 -0.4450
 6277TIP3    H240247   2.885   3.087  15.361  0.7632 -0.0851 -0.7369
 6278TIP3   OH240248   3.145   2.414   1.872  0.4142  0.3474 -0.2446
 6278TIP3    H140249   3.231   2.394   1.835  1.2323 -1.6736  2.6314
 6278TIP3    H240250   3.091   2.340   1.848 -0.3872  1.3234 -1.5073
 6279TIP3   OH240251   4.312   6.400   1.086 -0.1126  0.3322  0.4236
 6279TIP3    H140252   4.231   6.430   1.127  0.3783  0.7656  1.0799
 6279TIP3    H240253   4.367   6.372   1.158  0.1331 -0.4549 -0.0591
 6280TIP3   OH240254   0.790   2.550  14.767 -0.0207  0.0454  0.2941
 6280TIP3    H140255   0.834   2.569  14.850  1.7285  1.4880 -0.9255
 6280TIP3    H240256   0.769   2.457  14.771  0.6358 -0.0354  2.0776
 6281TIP3   OH240257   1.701   1.065  13.147  0.2280  0.5046 -0.2587
 6281TIP3    H140258   1.618   1.097  13.181  0.9146  1.7196  0.2839
 6281TIP3    H240259   1.677   1.015  13.069 -0.7921  2.9858 -1.5662
 6282TIP3   OH240260   2.707   2.097   3.218 -0.0903 -0.8019 -0.1266
 6282TIP3    H140261   2.738   2.125   3.304 -0.1055  2.0778 -1.0158
 6282TIP3    H240262   2.733   2.005   3.212  2.6628 -0.2030  1.6881
 6283TIP3   OH240263   2.093   1.688   2.823 -0.2901  0.9436  0.3873
 6283TIP3    H140264   2.110   1.743   2.899 -3.4272  1.0673  1.0551
 6283TIP3    H240265   2.050   1.746   2.760 -3.8805 -0.6838  1.1966
 6284TIP3   OH240266   4.458   5.785   2.271 -0.0813 -0.1342  0.5330
 6284TIP3    H140267   4.495   5.699   2.288 -1.4292 -0.9238 -0.4614
 6284TIP3    H240268   4.405   5.804   2.348  0.1378 -0.2369  0.7088
 6285TIP3   OH240269   3.073   3.986  12.025 -0.3760  0.1763  0.0260
 6285TIP3    H140270   3.029   4.016  11.946 -0.6551 -1.7117 -0.5610
 6285TIP3    H240271   3.081   3.892  12.013  1.9048  0.2035  1.0879
 6286TIP3   OH240272   0.715   2.341  13.703 -0.2907  0.4938  0.3471
 6286TIP3    H140273   0.803   2.342  13.739 -0.7199 -0.4729  1.4578
 6286TIP3    H240274   0.708   2.422  13.653  1.7643 -0.1877 -1.1025
 6287TIP3   OH240275   2.018   1.154   0.849  0.1835  0.3759 -0.0533
 6287TIP3    H140276   1.988   1.206   0.924  0.5804 -0.3352  0.6043
 6287TIP3    H240277   2.052   1.074   0.888 -1.7207 -1.0093 -1.1444
 6288TIP3   OH240278   3.720   5.268  14.660  0.1400 -0.2003  0.5228
 6288TIP3    H140279   3.804   5.309  14.677  0.7583 -0.3535 -2.0096
 6288TIP3    H240280   3.658   5.316  14.715  1.6826  0.6448  1.5525
 6289TIP3   OH240281   2.443   1.823   3.357  0.3647 -0.9638  0.0857
 6289TIP3    H140282   2.537   1.810   3.346  0.5565 -0.5921  1.2902
 6289TIP3    H240283   2.429   1.823   3.451 -0.9657 -1.8240 -0.1017
 6290TIP3   OH240284   5.380   4.060   3.540 -0.0210 -0.3734 -0.0959
 6290TIP3    H140285   5.396   4.116   3.616 -0.2672  0.1464 -0.4256
 6290TIP3    H240286   5.467   4.044   3.503 -0.0137  0.3303 -0.3861
 6291TIP3   OH240287   3.189   2.330  15.566  0.7086 -0.0061 -0.1693
 6291TIP3    H140288   3.151   2.372  15.489 -0.8754  0.9365  1.0864
 6291TIP3    H240289   3.121   2.268  15.595  0.1902  1.4975  1.9464
 6292TIP3   OH240290   4.971   5.348   5.374 -0.1277 -0.0928  0.3297
 6292TIP3    H140291   4.943   5.337   5.283 -1.0352  1.1357  0.4513
 6292TIP3    H240292   4.953   5.264   5.415  0.2863 -0.6581 -0.6173
 6293TIP3   OH240293   4.814   6.541   4.288 -0.1879  0.3531  0.4852
 6293TIP3    H140294   4.901   6.522   4.253 -0.4966 -0.8100  0.3093
 6293TIP3    H240295   4.766   6.580   4.215 -0.4262 -0.8567 -0.0208
 6294TIP3   OH240296   6.226   1.336  16.539  0.2264  0.4650 -0.4506
 6294TIP3    H140297   6.270   1.383  16.610 -0.1077 -0.5250  0.4108
 6294TIP3    H240298   6.150   1.391  16.518 -0.6234 -0.0955  1.1151
 6295TIP3   OH240299   4.860   3.329   5.425  0.1213 -0.5651  0.4543
 6295TIP3    H140300   4.807   3.271   5.480  0.1623 -1.7754 -0.7582
 6295TIP3    H240301   4.796   3.378   5.373  0.0418  1.3614  2.3214
 6296TIP3   OH240302   6.408   2.394  16.587  0.3647  0.1784  0.0894
 6296TIP3    H140303   6.501   2.375  16.576  0.2490 -0.6478  0.5091
 6296TIP3    H240304   6.363   2.318  16.549 -0.2413  2.3722 -3.9234
 6297TIP3   OH240305   1.697   1.782  16.262 -0.1740  0.2311  0.3913
 6297TIP3    H140306   1.738   1.819  16.184 -1.5081  1.1179  0.0919
 6297TIP3    H240307   1.724   1.840  16.333 -1.4463  1.2493  0.0788
 6298TIP3   OH240308   6.445   5.661   1.333  0.5883  1.0227  0.3449
 6298TIP3    H140309   6.485   5.615   1.407 -0.9036 -0.2808  0.3778
 6298TIP3    H240310   6.367   5.703   1.371  1.0764  2.2807 -0.0188
 6299TIP3   OH240311   5.043   2.628   2.078 -0.1891 -0.2529 -0.2482
 6299TIP3    H140312   5.072   2.677   2.155 -0.4300  0.8917 -0.8805
 6299TIP3    H240313   5.099   2.550   2.077 -0.9533 -0.8359  1.7175
 6300TIP3   OH240314   5.470   5.988  16.253  0.0671 -0.2742  0.2887
 6300TIP3    H140315   5.470   6.078  16.221  0.0366 -0.7506 -1.0733
 6300TIP3    H240316   5.483   5.996  16.348  3.0476  1.0500 -0.1678
 6301TIP3   OH240317   5.646   4.585   1.988  0.4618 -0.5294 -0.2939
 6301TIP3    H140318   5.602   4.607   1.906 -1.0726  0.8114  0.8484
 6301TIP3    H240319   5.652   4.668   2.035  2.7840 -0.9877  0.2963
 6302TIP3   OH240320   6.593   1.676   0.585  0.2498  0.0751 -0.2560
 6302TIP3    H140321   6.568   1.761   0.548  3.5684  0.7860 -1.0485
 6302TIP3    H240322   6.597   1.618   0.510 -1.8279 -0.7989  0.2633
 6303TIP3   OH240323   0.599   3.764  10.686  0.0780 -0.2626 -0.3502
 6303TIP3    H140324   0.595   3.669  10.698 -0.7808 -0.1080  0.6337
 6303TIP3    H240325   0.669   3.792  10.745  0.3807 -0.2748 -0.6938
 6304TIP3   OH240326   5.582   4.808   5.346 -0.3701  0.1695  0.3392
 6304TIP3    H140327   5.575   4.898   5.313 -2.4083 -0.0546  0.0866
 6304TIP3    H240328   5.521   4.805   5.420  0.6052 -0.6825  1.1434
 6305TIP3   OH240329   2.541   5.382  13.624 -0.1128 -0.1108  0.0502
 6305TIP3    H140330   2.509   5.424  13.704  0.5368  0.0211  0.2399
 6305TIP3    H240331   2.636   5.384  13.632 -0.0203  0.5313 -1.0470
 6306TIP3   OH240332   5.437   1.462   5.230  0.0896 -0.1908  0.0133
 6306TIP3    H140333   5.531   1.479   5.230 -0.0332  0.5134  0.3943
 6306TIP3    H240334   5.426   1.386   5.287  0.5274 -0.8738 -0.7992
 6307TIP3   OH240335   3.763   3.211   4.937  0.1083 -0.2521 -0.2037
 6307TIP3    H140336   3.699   3.159   4.889  1.5613  1.0429 -3.6531
 6307TIP3    H240337   3.780   3.287   4.882  0.4017  2.3353  3.2661
 6308TIP3   OH240338   1.282   6.262   3.731  0.3949  0.0578 -0.3385
 6308TIP3    H140339   1.223   6.336   3.744 -0.6804 -0.6245 -1.2367
 6308TIP3    H240340   1.224   6.187   3.715  1.5008 -0.6787 -1.0012
 6309TIP3   OH240341   0.222   0.602  13.050  0.1595  0.3484  0.1947
 6309TIP3    H140342   0.300   0.587  13.104 -0.3835  0.3403  0.9935
 6309TIP3    H240343   0.173   0.669  13.097 -0.5210  0.0457 -0.0836
 6310TIP3   OH240344   1.619   3.228   3.378 -0.0641  0.1505  0.5845
 6310TIP3    H140345   1.573   3.187   3.304  0.0639  2.2070 -0.6561
 6310TIP3    H240346   1.577   3.313   3.387  0.7972  0.4173  2.0755
 6311TIP3   OH240347   1.137   0.841   5.787 -0.3802 -0.5544  0.8621
 6311TIP3    H140348   1.074   0.907   5.814  0.1821  0.7072 -0.8284
 6311TIP3    H240349   1.179   0.813   5.868 -1.8640 -0.1369  1.7932
 6312TIP3   OH240350   3.329   5.526   3.452 -0.1169 -0.4525  0.2188
 6312TIP3    H140351   3.290   5.491   3.373  1.1427  1.2354 -1.1965
 6312TIP3    H240352   3.301   5.618   3.454 -0.6404 -0.6366  2.0563
 6313TIP3   OH240353   5.156   3.184  15.848 -0.1431 -0.2749  0.3776
 6313TIP3    H140354   5.113   3.117  15.900 -0.8830  0.3318  0.5633
 6313TIP3    H240355   5.250   3.172  15.865 -0.1602 -2.2306 -0.7984
 6314TIP3   OH240356   3.854   0.644   1.635  0.0169  0.1183  0.3825
 6314TIP3    H140357   3.803   0.686   1.704  1.9127  2.6949  0.3107
 6314TIP3    H240358   3.945   0.659   1.659  0.7208  0.1640 -2.1164
 6315TIP3   OH240359   0.999   2.614  14.955  0.1701  0.4486  0.2971
 6315TIP3    H140360   1.012   2.693  15.007  0.0059 -0.2158  1.3502
 6315TIP3    H240361   1.073   2.558  14.978  0.7679  0.6282 -1.1010
 6316TIP3   OH240362   3.110   4.108  17.180 -0.5138 -0.4176  0.1388
 6316TIP3    H140363   3.114   4.127  17.086  0.7968  1.6182  0.5851
 6316TIP3    H240364   3.058   4.028  17.186 -0.8030 -0.4421 -2.3054
 6317TIP3   OH240365   5.807   4.489   4.051  0.7444 -0.4301 -0.0362
 6317TIP3    H140366   5.870   4.450   4.112  0.1067 -2.0030 -0.3537
 6317TIP3    H240367   5.747   4.417   4.029  0.0935  0.4953 -1.3683
 6318TIP3   OH240368   1.180   3.645  12.687  0.1412  0.3069  0.1306
 6318TIP3    H140369   1.145   3.570  12.639 -0.5704  0.9867 -0.4021
 6318TIP3    H240370   1.199   3.710  12.621  0.9422  0.5430  0.5792
 6319TIP3   OH240371   0.430   6.336  13.608  0.0162 -0.1175  0.7515
 6319TIP3    H140372   0.521   6.347  13.634  0.1224 -0.0443  0.3494
 6319TIP3    H240373   0.425   6.249  13.569  0.3776  0.6708 -1.1438
 6320TIP3   OH240374   0.370   3.975  10.941  0.5381  0.8451  0.3791
 6320TIP3    H140375   0.293   3.987  10.886  0.5525 -1.5029 -0.2344
 6320TIP3    H240376   0.442   4.012  10.890  0.1731  0.9340 -0.0682
 6321TIP3   OH240377   6.239   4.917   4.627 -0.3059 -0.1362  1.3499
 6321TIP3    H140378   6.297   4.910   4.551 -2.2242  2.3096 -0.4538
 6321TIP3    H240379   6.292   4.888   4.701  2.5003 -0.0155 -0.5256
 6322TIP3   OH240380   0.345   0.742   1.762 -0.0960  0.0975  0.2990
 6322TIP3    H140381   0.389   0.660   1.737  0.5167  0.6425 -0.4252
 6322TIP3    H240382   0.411   0.810   1.748 -0.5119  0.6924  1.1655
 6323TIP3   OH240383   3.772   4.574  13.740 -0.3320  0.3229 -0.0802
 6323TIP3    H140384   3.687   4.588  13.781 -1.4369  1.1185 -2.5129
 6323TIP3    H240385   3.751   4.532  13.656  1.5684  1.5131 -1.1782
 6324TIP3   OH240386   2.244   1.858   6.561  0.2248 -0.4492 -0.2610
 6324TIP3    H140387   2.190   1.779   6.550 -0.2074 -0.4163  1.4475
 6324TIP3    H240388   2.322   1.827   6.608  0.2317  0.0708  0.0739
 6325TIP3   OH240389   5.746   2.297  16.211 -0.0433 -0.1325 -0.2946
 6325TIP3    H140390   5.810   2.231  16.183 -0.8395  0.0142 -2.5459
 6325TIP3    H240391   5.795   2.379  16.213  0.0527 -0.1558 -1.2485
 6326TIP3   OH240392   4.025   4.860   5.227 -0.4421  0.0295 -0.2032
 6326TIP3    H140393   4.031   4.849   5.322 -0.7736 -0.5457 -0.2476
 6326TIP3    H240394   3.932   4.876   5.211 -0.3268  0.5269 -0.3939
 6327TIP3   OH240395   5.039   4.789  13.316  0.7189  0.6625 -0.4267
 6327TIP3    H140396   4.996   4.757  13.395  0.9945  0.1627 -0.4783
 6327TIP3    H240397   4.992   4.870  13.295 -0.3050  0.0319 -0.5902
 6328TIP3   OH240398   3.951   6.643  17.059 -0.2355 -0.0130  0.5511
 6328TIP3    H140399   3.888   6.595  17.113 -2.3723  0.3363 -1.5367
 6328TIP3    H240400   3.907   6.726  17.040  1.0155  0.3851 -0.6417
 6329TIP3   OH240401   5.578   3.908   3.070  0.2294 -0.6028  0.5528
 6329TIP3    H140402   5.514   3.977   3.055 -0.2991 -1.0850  0.6023
 6329TIP3    H240403   5.571   3.889   3.163  1.6717  0.5540  0.9284
 6330TIP3   OH240404   0.256   3.782   5.158 -0.2353  0.0863  0.3226
 6330TIP3    H140405   0.238   3.849   5.092  0.6884 -0.3217 -0.3623
 6330TIP3    H240406   0.211   3.813   5.237 -0.6211  1.0179 -0.2518
 6331TIP3   OH240407   1.000   2.753  14.672  0.5375 -0.5350  1.0053
 6331TIP3    H140408   1.024   2.671  14.715 -0.0980 -0.7824  0.8956
 6331TIP3    H240409   0.982   2.813  14.744  1.6532 -0.2859  1.0923
 6332TIP3   OH240410   2.410   6.686   3.977  0.7604 -0.1785 -0.5756
 6332TIP3    H140411   2.378   6.772   4.005  1.6808 -0.0813  0.1883
 6332TIP3    H240412   2.353   6.624   4.022  0.7002  0.0174 -0.3799
 6333TIP3   OH240413   0.101   6.486   2.337  0.3955  0.2380 -0.1467
 6333TIP3    H140414   0.066   6.491   2.425 -0.9926  0.9534 -0.7306
 6333TIP3    H240415   0.190   6.452   2.348  0.3618  0.6855  1.5439
 6334TIP3   OH240416   4.047   6.311  12.194 -0.6831 -0.2372  0.8574
 6334TIP3    H140417   3.984   6.277  12.131 -2.2285 -0.1674  2.3450
 6334TIP3    H240418   4.130   6.270  12.168 -1.0963  0.4276 -1.7048
 6335TIP3   OH240419   6.785   4.405  16.117 -0.3709  0.3705 -0.3226
 6335TIP3    H140420   6.772   4.336  16.182 -0.3230  0.8036  0.1479
 6335TIP3    H240421   6.746   4.370  16.037 -0.1976 -0.2715 -0.1297
 6336TIP3   OH240422   5.221   1.227   2.518 -0.0286  0.7253  0.0502
 6336TIP3    H140423   5.272   1.145   2.522 -1.1390  0.0240  0.0506
 6336TIP3    H240424   5.239   1.270   2.602  0.7759  0.6162 -0.0605
 6337TIP3   OH240425   1.240   2.947  11.030 -0.1824 -0.1916 -0.2230
 6337TIP3    H140426   1.247   2.858  11.063  0.0549  0.2192  0.8632
 6337TIP3    H240427   1.320   2.991  11.062 -1.8588  1.2951  2.0777
 6338TIP3   OH240428   2.786   2.736   4.335  0.4426 -0.0403  0.5908
 6338TIP3    H140429   2.704   2.785   4.345  1.6945  2.7042 -1.8059
 6338TIP3    H240430   2.792   2.718   4.241  3.0744  0.6938  0.5922
 6339TIP3   OH240431   2.103   5.685   4.916  0.0685  0.0480 -0.7488
 6339TIP3    H140432   2.091   5.779   4.930  4.5491  0.5286  0.7270
 6339TIP3    H240433   2.134   5.677   4.826  0.4949  0.1254 -0.6142
 6340TIP3   OH240434   3.001   6.671   4.346 -0.2708 -0.2307  0.1141
 6340TIP3    H140435   2.947   6.595   4.369  0.5641 -0.9811 -0.4144
 6340TIP3    H240436   3.039   6.649   4.261  0.4574  0.5202  0.2435
 6341TIP3   OH240437   0.093   4.404   0.052  0.6083  0.0268 -0.5188
 6341TIP3    H140438   0.058   4.423  -0.035  0.6818  0.4369 -0.4599
 6341TIP3    H240439   0.120   4.489   0.086  0.6130 -0.1376 -0.1079
 6342TIP3   OH240440   6.250   1.920  12.589 -0.6382  0.6074  0.1087
 6342TIP3    H140441   6.344   1.909  12.602 -0.8456 -2.0081 -0.4820
 6342TIP3    H240442   6.240   2.013  12.565  1.7863  0.8589 -0.0050
 6343TIP3   OH240443   6.561   0.996   2.908 -0.3793  0.0439  0.7457
 6343TIP3    H140444   6.650   1.017   2.936  0.1351  0.4225 -1.1219
 6343TIP3    H240445   6.507   1.012   2.985  1.4417 -2.3120  2.5991
 6344TIP3   OH240446   5.221   3.781  12.439  0.9527 -0.4174 -0.2336
 6344TIP3    H140447   5.207   3.810  12.349 -1.1421 -0.1240  0.1600
 6344TIP3    H240448   5.220   3.685  12.433 -2.0264 -0.4389 -0.1615
 6345TIP3   OH240449   4.154   0.248  11.737 -0.1195 -0.6736 -0.2085
 6345TIP3    H140450   4.191   0.315  11.795 -1.6387 -1.8019  2.1354
 6345TIP3    H240451   4.102   0.192  11.794 -1.7353 -1.8189 -2.6819
 6346TIP3   OH240452   5.899   5.300  12.994 -0.1547  0.7152 -0.2033
 6346TIP3    H140453   5.887   5.207  13.014  2.0332  0.1335 -1.4374
 6346TIP3    H240454   5.992   5.317  13.010 -0.2434  2.3500 -1.2443
 6347TIP3   OH240455   2.772   5.023   1.731  0.3996 -0.0988  0.0326
 6347TIP3    H140456   2.774   4.932   1.759 -2.3734 -0.0409  0.6329
 6347TIP3    H240457   2.693   5.029   1.676 -0.3978  2.2691  1.3560
 6348TIP3   OH240458   4.638   2.530  12.603 -0.0419  0.0671  0.3153
 6348TIP3    H140459   4.544   2.528  12.622  0.2252  2.3304  2.1570
 6348TIP3    H240460   4.644   2.585  12.525 -0.2273  0.1405  0.3502
 6349TIP3   OH240461   4.638   1.810  14.004 -0.0148 -0.0465 -0.2330
 6349TIP3    H140462   4.631   1.809  13.909  0.8208  0.9747 -0.3242
 6349TIP3    H240463   4.581   1.881  14.032 -0.7951 -0.7955  0.0864
 6350TIP3   OH240464   3.940   5.741  16.226  0.6546  0.3793 -0.7459
 6350TIP3    H140465   3.914   5.766  16.314  1.9504 -1.5730  0.2142
 6350TIP3    H240466   3.929   5.821  16.174  1.0219  1.8597  1.4103
 6351TIP3   OH240467   5.982   3.961   4.904  0.4804 -0.9071 -0.0201
 6351TIP3    H140468   5.912   3.955   4.840  0.5569  1.0418 -0.3425
 6351TIP3    H240469   5.938   3.988   4.985  1.0583  2.9022 -0.8449
 6352TIP3   OH240470   1.624   5.790  17.088 -0.1594 -1.1156 -0.5046
 6352TIP3    H140471   1.578   5.873  17.096  1.5326 -0.3089  0.9646
 6352TIP3    H240472   1.605   5.744  17.170  1.3358 -0.9241 -0.0405
 6353TIP3   OH240473   3.212   4.457  12.653  0.4943 -0.3593  0.0825
 6353TIP3    H140474   3.253   4.491  12.573 -0.6420 -1.5351 -1.0417
 6353TIP3    H240475   3.232   4.522  12.720 -1.4257  2.4464 -1.9263
 6354TIP3   OH240476   4.008   6.224   2.273  0.1629 -0.3965  0.2403
 6354TIP3    H140477   3.959   6.261   2.200 -1.7207 -0.0621  1.6276
 6354TIP3    H240478   4.050   6.299   2.315 -1.1062 -0.2000  1.1907
 6355TIP3   OH240479   3.333   6.705   1.770  0.5765 -0.3765  0.6871
 6355TIP3    H140480   3.247   6.663   1.763  0.3190  0.4809 -2.0499
 6355TIP3    H240481   3.322   6.773   1.836 -1.0764  0.1516 -0.1075
 6356TIP3   OH240482   1.075   5.189  15.822 -0.0526 -0.2736  0.1351
 6356TIP3    H140483   1.161   5.202  15.862  0.2375 -1.2398 -0.1629
 6356TIP3    H240484   1.015   5.183  15.897  0.1015  0.6105  0.3378
 6357TIP3   OH240485   0.986   0.094   3.808  0.1111  0.0153 -0.2765
 6357TIP3    H140486   1.019   0.162   3.749  0.0056  0.6648  0.4002
 6357TIP3    H240487   1.061   0.036   3.821  0.2567  0.1024 -0.7104
 6358TIP3   OH240488   4.016   3.910   4.018  0.7165  0.1342  0.4622
 6358TIP3    H140489   4.031   4.002   3.998  0.4378 -0.0169 -0.4853
 6358TIP3    H240490   3.927   3.893   3.986  0.6840 -0.4084  0.8305
 6359TIP3   OH240491   5.886   3.971  14.867  0.4841 -0.3888 -0.3804
 6359TIP3    H140492   5.823   3.908  14.903 -0.3025  1.6581  1.9261
 6359TIP3    H240493   5.969   3.949  14.910  0.1394  0.3585  0.6663
 6360TIP3   OH240494   0.904   5.203  15.117  0.8421  0.2282  0.1170
 6360TIP3    H140495   0.931   5.111  15.113  2.0377  0.5896 -0.4068
 6360TIP3    H240496   0.813   5.200  15.144  1.3428 -1.0372  1.7383
 6361TIP3   OH240497   2.565   4.132  12.469  0.6936 -0.4510 -0.3513
 6361TIP3    H140498   2.641   4.182  12.439  2.0198 -1.1282  1.7380
 6361TIP3    H240499   2.546   4.167  12.556 -2.9609  1.3941 -1.7789
 6362TIP3   OH240500   4.469   4.887   2.630  0.3591 -0.3019 -0.0295
 6362TIP3    H140501   4.432   4.947   2.565 -0.8496 -1.4320 -0.3964
 6362TIP3    H240502   4.564   4.896   2.619  0.1767  0.4246 -1.1016
 6363TIP3   OH240503   6.069   6.638  14.405  0.3727 -0.0145 -0.8463
 6363TIP3    H140504   5.980   6.621  14.433  0.5135 -1.3907 -1.2381
 6363TIP3    H240505   6.074   6.734  14.400 -0.7370  0.1192  0.2524
 6364TIP3   OH240506   3.286   1.849  11.045  0.2038  0.0126 -0.1050
 6364TIP3    H140507   3.374   1.884  11.028  0.0812  0.2625 -0.2335
 6364TIP3    H240508   3.264   1.802  10.964 -0.3186  1.0740 -0.5914
 6365TIP3   OH240509   0.090   1.981  16.365  0.4210  0.7112 -0.1459
 6365TIP3    H140510   0.048   1.999  16.281  0.4667  0.9119 -0.1251
 6365TIP3    H240511   0.022   1.941  16.419  0.0817  1.5926  0.0921
 6366TIP3   OH240512   0.601   4.586  11.269  0.1306 -0.1026  0.8353
 6366TIP3    H140513   0.639   4.674  11.263 -1.7665  0.7307  0.5792
 6366TIP3    H240514   0.520   4.598  11.319 -1.8871 -1.0968 -2.0231
 6367TIP3   OH240515   4.030   3.044  13.434  0.5715  0.0821  0.4136
 6367TIP3    H140516   4.102   2.992  13.470  1.6585  0.0474 -1.7298
 6367TIP3    H240517   4.023   3.119  13.492  1.9388 -0.2132  0.9856
 6368TIP3   OH240518   1.348   4.668   4.341  0.1821  0.3905  0.4933
 6368TIP3    H140519   1.443   4.664   4.349  0.2034  0.6815  0.3675
 6368TIP3    H240520   1.330   4.639   4.252  0.1089 -0.2907  0.7189
 6369TIP3   OH240521   0.727   5.048  10.490  0.4747  0.8344  0.1791
 6369TIP3    H140522   0.653   5.097  10.525 -0.4278 -1.3813  1.4583
 6369TIP3    H240523   0.687   4.980  10.435  1.6190  0.3993 -0.1291
 6370TIP3   OH240524   6.137   0.352  16.211  1.1299 -0.4416  0.1997
 6370TIP3    H140525   6.094   0.318  16.132  2.1408 -1.5585  0.1188
 6370TIP3    H240526   6.082   0.426  16.238 -0.0309 -0.9520 -0.7217
 6371TIP3   OH240527   4.070   5.772  12.959  0.9309 -0.3695 -0.2688
 6371TIP3    H140528   4.043   5.710  12.891  0.2766  0.0762 -0.4189
 6371TIP3    H240529   4.093   5.852  12.911 -1.5562  0.6617  0.1630
 6372TIP3   OH240530   1.159   0.706  11.074  0.0642 -0.5160  0.1659
 6372TIP3    H140531   1.181   0.758  10.997  0.9110 -1.1036  0.0072
 6372TIP3    H240532   1.122   0.625  11.039 -1.3824  0.0364  0.4150
 6373TIP3   OH240533   2.559   5.514  11.914  0.4329 -0.4882  0.2099
 6373TIP3    H140534   2.510   5.524  11.832  1.3645 -1.6788 -0.5056
 6373TIP3    H240535   2.611   5.594  11.921  0.2811 -0.3437 -0.3116
 6374TIP3   OH240536   1.655   5.160  16.888 -0.3211  0.3125  0.7226
 6374TIP3    H140537   1.625   5.162  16.797  0.2579  2.0281  0.5459
 6374TIP3    H240538   1.701   5.077  16.896  0.4299  0.5567 -0.8451
 6375TIP3   OH240539   5.457   3.784   2.851  0.4365  0.1308 -0.2163
 6375TIP3    H140540   5.505   3.704   2.873 -0.8882 -0.5208  0.3772
 6375TIP3    H240541   5.498   3.852   2.904 -0.3786 -0.7436  1.5667
 6376TIP3   OH240542   4.987   4.043   0.885  0.2142 -0.4042  0.6334
 6376TIP3    H140543   4.953   3.962   0.849  2.3194 -0.4226 -1.4588
 6376TIP3    H240544   4.916   4.106   0.874 -0.5268 -1.3444 -0.0939
 6377TIP3   OH240545   5.041   1.554  12.898  0.1074 -0.4972  0.1703
 6377TIP3    H140546   4.964   1.524  12.849  0.3556 -0.6189 -0.1529
 6377TIP3    H240547   5.014   1.554  12.989 -0.2190 -0.7164  0.0730
 6378TIP3   OH240548   5.404   1.248   0.042  0.4750 -0.4816  0.3628
 6378TIP3    H140549   5.390   1.179   0.107 -0.6482  1.1222  1.8620
 6378TIP3    H240550   5.476   1.215  -0.012  1.2143 -2.0176  2.2043
 6379TIP3   OH240551   6.288   4.841  14.199  0.9622 -1.4828  0.2085
 6379TIP3    H140552   6.288   4.762  14.254  0.5514 -1.3495  0.4002
 6379TIP3    H240553   6.197   4.869  14.198  1.3705 -0.0648  1.4999
 6380TIP3   OH240554   0.432   2.368   5.497 -0.5893 -0.3385 -0.3922
 6380TIP3    H140555   0.361   2.360   5.433  0.2961  1.1685 -1.6107
 6380TIP3    H240556   0.512   2.349   5.447  0.0087 -0.3693  0.5656
 6381TIP3   OH240557   3.334   6.613  16.180 -0.2542 -0.1035  0.1026
 6381TIP3    H140558   3.423   6.595  16.209 -0.4555 -0.3452  0.5689
 6381TIP3    H240559   3.292   6.655  16.255 -0.0134  1.6661 -0.7102
 6382TIP3   OH240560   4.857   6.556   5.208 -0.3236 -0.0250 -0.7177
 6382TIP3    H140561   4.807   6.557   5.290 -1.3356  2.0786 -1.3222
 6382TIP3    H240562   4.887   6.646   5.197  1.5936 -0.7394 -1.6101
 6383TIP3   OH240563   5.713   2.170  14.843  0.4090 -0.4940 -0.5937
 6383TIP3    H140564   5.763   2.245  14.810 -0.7633 -0.0543 -1.3875
 6383TIP3    H240565   5.632   2.171  14.792 -0.5635 -1.0061  0.9228
 6384TIP3   OH240566   1.042   5.683  13.980 -0.3373 -0.1760  0.1817
 6384TIP3    H140567   0.992   5.662  13.901 -2.9930 -0.3585  1.8747
 6384TIP3    H240568   1.045   5.778  13.982 -0.4238 -0.1693 -0.0216
 6385TIP3   OH240569   4.042   0.534   0.017  0.0647 -0.3397 -0.1328
 6385TIP3    H140570   4.050   0.608  -0.043 -0.6936 -0.1158  0.0414
 6385TIP3    H240571   4.123   0.536   0.068 -1.1133  2.0272  1.7490
 6386TIP3   OH240572   2.469   4.663  16.770  1.2048 -0.2827  0.1667
 6386TIP3    H140573   2.432   4.705  16.692 -0.6440 -0.7325  0.7585
 6386TIP3    H240574   2.458   4.570  16.754  0.0506 -0.3528  1.3053
 6387TIP3   OH240575   4.066   1.727   1.984 -0.6570 -0.2243 -0.0206
 6387TIP3    H140576   4.094   1.640   2.015 -0.3409 -0.7919 -1.8481
 6387TIP3    H240577   4.146   1.766   1.948 -1.1503  0.1543 -0.7150
 6388TIP3   OH240578   5.150   2.447   4.597 -0.2136  0.2740  0.0770
 6388TIP3    H140579   5.080   2.480   4.654  0.7513  1.8594  0.3552
 6388TIP3    H240580   5.103   2.405   4.525 -1.4516 -0.6493  1.3615
 6389TIP3   OH240581   1.260   5.891   5.396  0.6999 -0.3589 -0.1446
 6389TIP3    H140582   1.330   5.956   5.398 -0.2009  0.6037  1.4487
 6389TIP3    H240583   1.181   5.942   5.379  0.5408 -1.6154 -3.3749
 6390TIP3   OH240584   0.495   0.310  12.669  0.2510  0.4427 -0.3796
 6390TIP3    H140585   0.455   0.230  12.635 -0.1445  0.7925 -0.7281
 6390TIP3    H240586   0.583   0.283  12.695 -0.5320 -0.5561  1.3087
 6391TIP3   OH240587   5.206   6.183   0.280 -0.7330  0.0856 -0.4396
 6391TIP3    H140588   5.135   6.246   0.289 -0.0097  0.7804  0.5760
 6391TIP3    H240589   5.271   6.227   0.226  0.5862  0.9789  1.7957
 6392TIP3   OH240590   6.235   2.459   1.067  0.5810  0.0590 -0.0675
 6392TIP3    H140591   6.251   2.365   1.051  0.6192  0.2501 -1.2160
 6392TIP3    H240592   6.157   2.479   1.016  0.7239  0.7125 -0.0355
 6393TIP3   OH240593   6.271   4.962  15.795  0.6978  0.1268  0.1450
 6393TIP3    H140594   6.206   4.902  15.832 -0.8172  0.7214 -1.4960
 6393TIP3    H240595   6.353   4.937  15.837 -0.3057 -1.6570  1.1068
 6394TIP3   OH240596   4.249   6.491   3.000  0.0466  0.5093  0.4627
 6394TIP3    H140597   4.219   6.511   2.912 -0.2455 -0.6184  0.3064
 6394TIP3    H240598   4.224   6.568   3.052  0.1927  1.1583 -0.4189
 6395TIP3   OH240599   4.010   4.277   5.952  0.3325 -0.2868 -0.9038
 6395TIP3    H140600   4.072   4.350   5.953  0.8069 -0.6990 -0.1213
 6395TIP3    H240601   3.982   4.271   5.860 -0.3561  1.4201 -0.8248
 6396TIP3   OH240602   1.483   0.618  12.695  0.3371 -0.5117 -0.0707
 6396TIP3    H140603   1.435   0.539  12.719  0.1446 -0.1355  0.8007
 6396TIP3    H240604   1.414   0.680  12.669  0.3346  0.0178  1.1485
 6397TIP3   OH240605   5.577   2.164   0.804 -0.0301 -0.5914 -0.1790
 6397TIP3    H140606   5.655   2.183   0.855  0.9017  0.8772 -2.0737
 6397TIP3    H240607   5.583   2.071   0.783  0.4109 -0.8236  0.9871
 6398TIP3   OH240608   5.245   0.765  14.880  0.1383  0.2873 -0.1075
 6398TIP3    H140609   5.313   0.748  14.946  1.8383  0.6217 -1.7274
 6398TIP3    H240610   5.199   0.842  14.913 -1.1901 -1.4765  2.3195
 6399TIP3   OH240611   6.741   2.487   4.717  0.1305 -0.3708  0.2519
 6399TIP3    H140612   6.723   2.422   4.649  1.5559 -0.9801  0.4510
 6399TIP3    H240613   6.654   2.519   4.742 -0.5765 -1.9964 -0.0436
 6400TIP3   OH240614   5.863   5.824  17.088  0.1247  0.1044 -0.1810
 6400TIP3    H140615   5.845   5.734  17.063 -0.4726 -0.3195  1.6813
 6400TIP3    H240616   5.780   5.870  17.074 -0.3581 -0.2429  1.4175
 6401TIP3   OH240617   2.506   1.959   4.282  0.0699 -0.8151  0.0474
 6401TIP3    H140618   2.571   1.896   4.312  0.8348 -0.4550 -0.8348
 6401TIP3    H240619   2.531   2.042   4.322  0.3395 -0.6109 -0.5351
 6402TIP3   OH240620   0.275   1.749   2.282  0.6402 -0.5409 -0.1250
 6402TIP3    H140621   0.212   1.818   2.261  1.2585  0.0420 -0.0640
 6402TIP3    H240622   0.243   1.673   2.234 -0.1855 -0.2881  0.0068
 6403TIP3   OH240623   3.546   2.291   5.200  0.3236  0.3625  0.1746
 6403TIP3    H140624   3.543   2.381   5.169 -0.8213  0.4707  0.5938
 6403TIP3    H240625   3.512   2.295   5.290  2.0909 -0.1897  0.8923
 6404TIP3   OH240626   1.815   5.913   3.835 -0.0026 -0.5462  0.6601
 6404TIP3    H140627   1.816   5.822   3.808  0.5364  0.0728 -1.5063
 6404TIP3    H240628   1.725   5.941   3.821  0.0157 -0.5287  0.5782
 6405TIP3   OH240629   0.479   1.131  16.431  0.2195 -0.0843  0.4024
 6405TIP3    H140630   0.439   1.045  16.428 -0.7652  0.3202  1.5135
 6405TIP3    H240631   0.561   1.122  16.382 -0.6058 -1.2498 -0.7791
 6406TIP3   OH240632   5.883   4.539  11.260 -0.2148 -0.5183 -0.0403
 6406TIP3    H140633   5.890   4.473  11.190  1.1117  0.5570 -0.9577
 6406TIP3    H240634   5.807   4.592  11.236  1.1589  0.8332 -1.5844
 6407TIP3   OH240635   5.532   2.918  17.027 -0.5767 -0.3915  0.0772
 6407TIP3    H140636   5.499   2.971  17.100  0.1412 -0.6897  0.6224
 6407TIP3    H240637   5.461   2.919  16.964  0.5673  3.9255 -1.3634
 6408TIP3   OH240638   3.648   5.903  12.744  0.5565 -0.1535 -0.5267
 6408TIP3    H140639   3.710   5.974  12.728  1.1026 -0.5023  0.0154
 6408TIP3    H240640   3.570   5.928  12.695 -0.1197  1.9867  1.5751
 6409TIP3   OH240641   5.077   2.726  16.980 -0.3814  0.3905 -0.2858
 6409TIP3    H140642   4.983   2.713  16.994 -0.5762  0.5194 -1.3997
 6409TIP3    H240643   5.105   2.778  17.056 -0.6483 -1.8777  1.4227
 6410TIP3   OH240644   3.902   4.251  12.814  0.2258 -0.4799  0.1725
 6410TIP3    H140645   3.959   4.303  12.757  0.6379 -2.5022 -1.3307
 6410TIP3    H240646   3.888   4.306  12.891  0.6684  1.8261 -1.3386
 6411TIP3   OH240647   3.702   4.578  16.229  0.0592  0.0769  0.4758
 6411TIP3    H140648   3.797   4.572  16.235  0.3293 -1.1552 -3.2792
 6411TIP3    H240649   3.670   4.538  16.310  2.7307 -3.4680 -0.0758
 6412TIP3   OH240650   3.640   3.978   2.516  0.0886 -0.0437  0.0171
 6412TIP3    H140651   3.663   3.925   2.441  3.4503  0.2564  0.7669
 6412TIP3    H240652   3.604   4.058   2.479 -0.3314 -0.7993 -1.2123
 6413TIP3   OH240653   6.293   3.455  16.318 -0.0808  0.0514  0.3132
 6413TIP3    H140654   6.220   3.456  16.380  0.6649  0.8236  1.1882
 6413TIP3    H240655   6.260   3.503  16.242 -0.9328 -0.7330  0.1687
 6414TIP3   OH240656   1.231   2.445  14.982  0.1779  0.6506 -0.5093
 6414TIP3    H140657   1.260   2.378  14.920 -0.0267 -0.2302  0.3269
 6414TIP3    H240658   1.296   2.442  15.053  0.2885  1.4909 -0.5712
 6415TIP3   OH240659   2.369   1.400   1.612  0.6378  0.0916  0.8302
 6415TIP3    H140660   2.300   1.423   1.550 -0.9796  0.6101  2.7540
 6415TIP3    H240661   2.362   1.305   1.622 -0.2034  0.2032  1.4287
 6416TIP3   OH240662   1.521   3.317  11.426  0.6650  0.0736 -0.4864
 6416TIP3    H140663   1.578   3.355  11.360  1.3101  0.3815  0.2370
 6416TIP3    H240664   1.487   3.392  11.475 -0.5688 -0.0938 -1.0839
 6417TIP3   OH240665   3.803   2.599  14.628 -0.0755 -0.0577  0.3537
 6417TIP3    H140666   3.897   2.614  14.624 -0.3649  1.5423 -0.9517
 6417TIP3    H240667   3.793   2.504  14.618  1.5156 -0.5837  3.2720
 6418TIP3   OH240668   0.088   6.217   6.197  0.4800  0.0420  0.0173
 6418TIP3    H140669   0.040   6.199   6.278 -0.8754 -2.7428 -1.3673
 6418TIP3    H240670   0.046   6.296   6.162  0.7631  0.9892  1.7495
 6419TIP3   OH240671   5.369   5.030  11.401 -1.0713 -0.5593 -0.0532
 6419TIP3    H140672   5.450   5.033  11.452 -0.7823  0.9570 -0.5856
 6419TIP3    H240673   5.391   5.075  11.320 -1.8974 -1.8545 -0.9974
 6420TIP3   OH240674   3.780   3.806  13.186 -0.0261 -0.3052 -0.0964
 6420TIP3    H140675   3.863   3.759  13.193 -0.7886 -1.5860  0.3218
 6420TIP3    H240676   3.715   3.748  13.225 -0.8623  1.4197  1.1441
 6421TIP3   OH240677   2.515   5.883   0.058 -0.2719  0.6416  0.0619
 6421TIP3    H140678   2.513   5.952   0.124 -0.3306  0.4528  0.2594
 6421TIP3    H240679   2.423   5.856   0.048 -0.2095  0.3703  0.2206
 6422TIP3   OH240680   6.500   6.617   4.744 -0.2753 -0.5661 -0.0092
 6422TIP3    H140681   6.492   6.592   4.652 -1.2346 -0.9636  0.1741
 6422TIP3    H240682   6.415   6.657   4.764  0.1210 -0.0116  0.5605
 6423TIP3   OH240683   3.367   2.479  11.848  0.2947  0.1162 -0.1616
 6423TIP3    H140684   3.408   2.505  11.930  1.0239  1.4983 -0.9463
 6423TIP3    H240685   3.437   2.484  11.783 -0.1207 -1.5938 -0.7563
 6424TIP3   OH240686   0.384   3.945  15.917 -0.3600 -0.3755 -0.2076
 6424TIP3    H140687   0.443   3.896  15.860  1.7696  1.3286  0.4764
 6424TIP3    H240688   0.297   3.909  15.898  0.8000 -2.4712 -1.7085
 6425TIP3   OH240689   5.981   1.716   0.345 -0.3274  0.1719 -0.4027
 6425TIP3    H140690   6.076   1.710   0.351 -0.2522  1.1281 -0.5443
 6425TIP3    H240691   5.950   1.688   0.432  0.1337  0.8438 -0.0160
 6426TIP3   OH240692   0.247   6.512   4.721 -0.6718 -0.4909 -0.1905
 6426TIP3    H140693   0.210   6.520   4.633 -0.0127 -0.6339 -0.4793
 6426TIP3    H240694   0.337   6.544   4.712 -1.3484  1.8935  0.9490
 6427TIP3   OH240695   2.253   0.108   4.096  0.1026  0.2559 -0.3103
 6427TIP3    H140696   2.261   0.201   4.120  1.3816 -0.1575  0.9618
 6427TIP3    H240697   2.207   0.109   4.012 -1.0687  1.9624  0.3181
 6428TIP3   OH240698   1.747   4.465   3.187  0.1694  0.0741 -0.0357
 6428TIP3    H140699   1.722   4.471   3.279 -0.6811  1.5072 -0.3328
 6428TIP3    H240700   1.773   4.374   3.175  1.0748  0.0654  1.8108
 6429TIP3   OH240701   3.072   3.632   0.306 -0.8311  0.0247 -0.0979
 6429TIP3    H140702   2.986   3.604   0.273  0.1567  0.0713 -2.8292
 6429TIP3    H240703   3.116   3.551   0.330 -0.9108 -0.1678 -0.5867
 6430TIP3   OH240704   2.579   2.296  10.491 -0.1361  0.1307 -0.1032
 6430TIP3    H140705   2.564   2.203  10.509  1.7990 -0.0430  0.7591
 6430TIP3    H240706   2.665   2.314  10.529 -0.3750  2.2190 -0.4934
 6431TIP3   OH240707   4.134   0.982  16.996 -0.4456  0.1491  0.0546
 6431TIP3    H140708   4.099   1.008  16.910  0.5900  0.5626 -0.2497
 6431TIP3    H240709   4.154   1.064  17.040  0.7667 -0.0899 -0.0353
 6432TIP3   OH240710   6.376   0.299   0.013  0.3078  0.2241  0.3624
 6432TIP3    H140711   6.301   0.240   0.026 -0.6683  1.6766  1.5904
 6432TIP3    H240712   6.336   0.387   0.012  1.7558  0.8729 -1.1764
 6433TIP3   OH240713   4.989   4.091   3.002  0.2832  0.1902  0.7500
 6433TIP3    H140714   5.012   4.064   2.914  1.6872  0.3341  1.0701
 6433TIP3    H240715   4.907   4.140   2.992  1.1330  1.3532 -0.6367
 6434TIP3   OH240716   0.250   5.904  17.220  0.1539 -0.4925 -0.2005
 6434TIP3    H140717   0.328   5.949  17.252 -0.6885  0.1505  0.9801
 6434TIP3    H240718   0.230   5.840  17.288 -0.2578 -0.7662 -0.5740
 6435TIP3   OH240719   0.413   0.232   3.780  0.8374  0.7595 -0.5595
 6435TIP3    H140720   0.476   0.240   3.851  0.7022 -1.8602 -0.1086
 6435TIP3    H240721   0.332   0.205   3.822  1.0123 -1.8132 -1.7845
 6436TIP3   OH240722   4.066   0.956   1.902  0.1653  0.1522 -0.2292
 6436TIP3    H140723   4.154   0.938   1.868 -0.1639  2.0898 -2.2937
 6436TIP3    H240724   4.028   0.870   1.919  2.1136 -0.7279 -0.2343
 6437TIP3   OH240725   0.477   1.937   3.214 -0.4250  0.0055  0.7761
 6437TIP3    H140726   0.499   1.877   3.142  0.3445 -0.2954  1.2513
 6437TIP3    H240727   0.484   2.024   3.176  0.2613 -0.1421  0.5585
 6438TIP3   OH240728   2.228   3.368  11.688  0.1956 -0.1451 -0.5515
 6438TIP3    H140729   2.177   3.304  11.639  0.1385  0.4807 -1.3346
 6438TIP3    H240730   2.262   3.427  11.620  2.4832 -0.9194 -0.1021
 6439TIP3   OH240731   1.834   3.671   4.849  0.0928 -0.3604 -0.6745
 6439TIP3    H140732   1.896   3.742   4.830 -0.8591  0.6609 -0.0030
 6439TIP3    H240733   1.855   3.604   4.784 -1.5181  2.0990 -3.8792
 6440TIP3   OH240734   3.890   2.357   2.458  0.0788 -0.4050  0.3224
 6440TIP3    H140735   3.873   2.264   2.473 -0.0322 -0.5278 -0.5430
 6440TIP3    H240736   3.807   2.400   2.477 -0.2344 -0.6270 -0.5121
 6441TIP3   OH240737   5.815   6.606  10.344  0.0878 -0.7600  0.2894
 6441TIP3    H140738   5.834   6.527  10.294  0.2940 -0.1555 -0.6158
 6441TIP3    H240739   5.863   6.675  10.298 -2.0774  0.3152 -0.4216
 6442TIP3   OH240740   6.755   0.795   4.407 -0.2159  0.3655  0.3760
 6442TIP3    H140741   6.773   0.827   4.318  1.5703 -3.3484 -0.6922
 6442TIP3    H240742   6.796   0.860   4.464 -0.3676  2.1951 -1.5136
 6443TIP3   OH240743   2.295   1.844  12.745  0.1003  0.3358  0.2586
 6443TIP3    H140744   2.233   1.807  12.808 -1.1331  1.3734 -0.3078
 6443TIP3    H240745   2.346   1.907  12.796  0.2482 -0.0437  0.5851
 6444TIP3   OH240746   5.960   1.731   5.538  0.4469 -0.2224  0.3016
 6444TIP3    H140747   5.919   1.817   5.546  1.4487  0.4657 -1.6705
 6444TIP3    H240748   6.024   1.728   5.609  0.0280  0.4340  0.7073
 6445TIP3   OH240749   2.905   1.290   2.278 -0.4313  0.6150 -0.1504
 6445TIP3    H140750   2.903   1.260   2.187  0.7132  0.0701 -0.0045
 6445TIP3    H240751   2.815   1.316   2.297 -0.4930  1.6280 -1.7387
 6446TIP3   OH240752   1.152   4.323  13.429  0.1288 -0.3090  0.2134
 6446TIP3    H140753   1.069   4.316  13.383 -0.0346  2.2086  0.0352
 6446TIP3    H240754   1.217   4.336  13.360  0.4157 -0.4209  0.4612
 6447TIP3   OH240755   2.867   3.875   3.850 -0.1441  0.1394  0.2114
 6447TIP3    H140756   2.794   3.925   3.814 -0.8280 -1.0982 -0.1444
 6447TIP3    H240757   2.862   3.891   3.945 -3.3193 -3.0339  0.6807
 6448TIP3   OH240758   0.656   1.131   4.945  0.6424  0.0259 -0.4972
 6448TIP3    H140759   0.628   1.044   4.920  0.2386 -0.4549  1.5775
 6448TIP3    H240760   0.747   1.120   4.974 -0.0162 -0.0603  1.5881
 6449TIP3   OH240761   4.496   4.407   2.352  0.0189  0.4073  0.4588
 6449TIP3    H140762   4.573   4.369   2.395 -1.2143 -0.6161  1.8030
 6449TIP3    H240763   4.487   4.494   2.393 -1.0417 -0.4894  2.2057
 6450TIP3   OH240764   4.826   4.830   2.172  0.2625  0.3227  0.4463
 6450TIP3    H140765   4.888   4.810   2.102  1.1600 -0.1795  1.3654
 6450TIP3    H240766   4.880   4.871   2.241 -0.8783  2.3098  0.1969
 6451TIP3   OH240767   0.804   1.346  12.103  0.1460 -0.2451  0.1983
 6451TIP3    H140768   0.739   1.299  12.051 -1.2842  2.2140 -0.3375
 6451TIP3    H240769   0.876   1.363  12.043 -0.0864 -0.2503 -0.0790
 6452TIP3   OH240770   5.417   2.415   5.677 -0.3005 -0.3220  0.4762
 6452TIP3    H140771   5.371   2.489   5.637  0.8151  1.9781  3.2153
 6452TIP3    H240772   5.509   2.430   5.653 -0.0561 -0.7468  1.1550
 6453TIP3   OH240773   5.373   2.379  12.421  0.2473 -0.3950  0.0281
 6453TIP3    H140774   5.333   2.328  12.491 -0.3702  0.4463  0.3053
 6453TIP3    H240775   5.300   2.428  12.383  0.9817  1.0445  0.4381
 6454TIP3   OH240776   4.623   4.904   1.203 -0.1449 -0.0084 -0.1753
 6454TIP3    H140777   4.630   4.830   1.263  0.3243  0.0548 -0.1476
 6454TIP3    H240778   4.564   4.966   1.247 -0.5174 -0.3532 -0.1880
 6455TIP3   OH240779   2.563   2.519  11.785  0.0124 -0.3979  0.1348
 6455TIP3    H140780   2.655   2.545  11.777  0.6018 -2.1346  1.1056
 6455TIP3    H240781   2.517   2.601  11.803  1.4152  0.4274  0.0901
 6456TIP3   OH240782   1.870   5.125  11.333 -1.1693 -0.3698 -0.0648
 6456TIP3    H140783   1.916   5.186  11.275  0.2051 -1.0515  0.2712
 6456TIP3    H240784   1.807   5.080  11.276 -3.1448  2.2731 -0.0497
 6457TIP3   OH240785   2.055   6.214   2.861  0.4474  0.2033  0.3084
 6457TIP3    H140786   2.104   6.209   2.943  0.3180  1.0981  0.4464
 6457TIP3    H240787   2.103   6.279   2.809 -0.2110  0.5845  0.1822
 6458TIP3   OH240788   4.904   3.011  11.380  0.3694 -0.1641  0.0366
 6458TIP3    H140789   4.833   3.049  11.431  0.6714  0.0792  0.2739
 6458TIP3    H240790   4.930   2.933  11.430  1.0024  0.3539  0.5098
 6459TIP3   OH240791   1.540   5.255   0.369 -0.1958 -0.4699  0.2118
 6459TIP3    H140792   1.612   5.205   0.407 -0.7551 -1.3011  0.2146
 6459TIP3    H240793   1.550   5.343   0.405 -0.7451 -1.2377  2.3710
 6460TIP3   OH240794   1.948   0.595   1.313  0.1373 -0.0496 -0.1107
 6460TIP3    H140795   2.031   0.594   1.264  0.4309  0.4048  0.3677
 6460TIP3    H240796   1.967   0.547   1.393 -0.1408 -0.1744 -0.1186
 6461TIP3   OH240797   5.636   5.494  14.541  0.4382 -0.2119  0.1669
 6461TIP3    H140798   5.552   5.458  14.514  1.8859 -3.6585  0.0530
 6461TIP3    H240799   5.676   5.426  14.594  3.2259  1.3054  0.1306
 6462TIP3   OH240800   3.916   1.167   2.033 -0.2393  0.3948 -0.6962
 6462TIP3    H140801   3.871   1.180   1.949  0.6651 -0.5789 -1.3439
 6462TIP3    H240802   3.986   1.105   2.013  1.2410  1.6966  0.3541
 6463TIP3   OH240803   0.860   3.696   1.577  0.2374 -0.0283 -0.5738
 6463TIP3    H140804   0.811   3.717   1.656  0.6789  0.1180 -0.3387
 6463TIP3    H240805   0.898   3.779   1.549  0.5700 -0.1882 -0.6055
 6464TIP3   OH240806   0.442   0.592  11.768 -0.5146  0.0597  0.1290
 6464TIP3    H140807   0.486   0.677  11.765  0.2340 -0.3577 -1.8108
 6464TIP3    H240808   0.501   0.537  11.820  0.0136  0.1923 -0.3188
 6465TIP3   OH240809   2.290   1.530   0.910 -0.2559 -0.7437 -0.1570
 6465TIP3    H140810   2.219   1.507   0.849 -1.9650 -1.7485  2.1151
 6465TIP3    H240811   2.364   1.554   0.854 -1.6741 -1.9321 -2.5979
 6466TIP3   OH240812   0.654   2.729   3.503 -0.5520 -0.7326  0.0793
 6466TIP3    H140813   0.690   2.731   3.592  0.2011 -0.2755 -0.2291
 6466TIP3    H240814   0.653   2.820   3.476  1.0380 -1.0345 -1.0889
 6467TIP3   OH240815   4.998   2.979   6.051  0.1839  0.1212 -0.1676
 6467TIP3    H140816   5.083   2.935   6.051 -0.0335 -0.3215  0.9199
 6467TIP3    H240817   5.003   3.041   6.123 -0.3421  0.2403 -0.2276
 6468TIP3   OH240818   5.454   4.488   5.233  0.3676  0.4348 -0.3841
 6468TIP3    H140819   5.480   4.445   5.151 -1.4055 -1.2909 -0.0782
 6468TIP3    H240820   5.392   4.556   5.205 -0.1541 -0.0828 -0.5170
 6469TIP3   OH240821   4.132   4.623   2.502  0.3293 -0.1874 -0.0318
 6469TIP3    H140822   4.096   4.658   2.583  1.3870  0.8444  0.0041
 6469TIP3    H240823   4.112   4.689   2.436  0.6403 -0.3967 -0.3413
 6470TIP3   OH240824   5.378   0.487  11.090 -0.0435  0.6780 -0.1276
 6470TIP3    H140825   5.366   0.416  11.028  1.5121  0.8290 -0.6116
 6470TIP3    H240826   5.441   0.546  11.049  0.6337  1.0324  1.3665
 6471TIP3   OH240827   1.776   6.365   4.964  0.2572  0.4705 -0.2188
 6471TIP3    H140828   1.869   6.377   4.943  0.5444  1.7185  1.7281
 6471TIP3    H240829   1.747   6.449   4.999 -1.6204  0.0907 -0.7769
 6472TIP3   OH240830   2.259   4.622  15.410 -0.1938  0.0318 -0.2962
 6472TIP3    H140831   2.232   4.699  15.459  1.3477  0.0272  0.6049
 6472TIP3    H240832   2.263   4.552  15.476  2.7553  0.2276 -0.1962
 6473TIP3   OH240833   1.014   0.790  16.410 -0.0008  0.2355 -0.7439
 6473TIP3    H140834   1.086   0.828  16.360  0.7229  1.0150  0.8631
 6473TIP3    H240835   0.967   0.865  16.446  0.3265 -0.3281  0.9053
 6474TIP3   OH240836   6.142   0.401   5.002  0.1272  0.0445  0.1443
 6474TIP3    H140837   6.180   0.467   5.059  0.5648 -1.0717  1.1748
 6474TIP3    H240838   6.115   0.331   5.062  1.2235 -1.4525 -1.0821
 6475TIP3   OH240839   5.674   3.181   2.303  0.4107  0.1974  0.1057
 6475TIP3    H140840   5.717   3.101   2.334  0.9444 -0.2872 -1.7608
 6475TIP3    H240841   5.707   3.191   2.213 -3.5229 -0.3436 -1.5090
 6476TIP3   OH240842   5.698   5.498   3.974 -0.4665  0.4548 -0.3223
 6476TIP3    H140843   5.730   5.483   4.063  1.0002  1.4571 -0.6691
 6476TIP3    H240844   5.685   5.592   3.969 -1.3064  0.3081 -0.9264
 6477TIP3   OH240845   4.654   1.720  12.002 -0.1997  0.4832 -0.1109
 6477TIP3    H140846   4.742   1.752  12.023 -0.1966  0.1689  0.3533
 6477TIP3    H240847   4.610   1.713  12.087 -0.5364  0.2374 -0.3069
 6478TIP3   OH240848   3.977   2.291  15.000  0.0188  0.2554  0.1155
 6478TIP3    H140849   4.063   2.308  14.962 -0.0346  0.7589  0.2132
 6478TIP3    H240850   3.920   2.357  14.960 -0.4317 -0.4175 -0.3582
 6479TIP3   OH240851   4.835   0.101  15.048 -0.6605  0.1796 -0.0548
 6479TIP3    H140852   4.922   0.141  15.040 -1.3827  1.4917 -1.7873
 6479TIP3    H240853   4.782   0.169  15.088 -0.9348 -0.5587  0.8385
 6480TIP3   OH240854   2.421   4.636   5.112  0.2827 -0.6526  0.4155
 6480TIP3    H140855   2.368   4.577   5.166 -0.9111 -1.0794 -1.1739
 6480TIP3    H240856   2.457   4.700   5.174 -3.4041  0.6281  1.3741
 6481TIP3   OH240857   1.948   5.025   0.851 -0.0652 -0.7224 -0.1032
 6481TIP3    H140858   1.874   5.071   0.888 -1.4179 -1.8589 -1.3290
 6481TIP3    H240859   1.990   5.088   0.793 -1.1571 -0.6328 -0.8019
 6482TIP3   OH240860   4.720   3.567  15.793  0.2203  0.2086 -0.3251
 6482TIP3    H140861   4.629   3.537  15.787 -0.2056  1.4307 -0.1675
 6482TIP3    H240862   4.738   3.572  15.887  0.3839  0.1369 -0.3531
 6483TIP3   OH240863   0.643   2.005  12.235  0.3317 -0.3121 -0.1766
 6483TIP3    H140864   0.688   2.008  12.319  1.4414  0.0440 -0.7777
 6483TIP3    H240865   0.674   1.925  12.194  0.6936  0.1116 -0.7398
 6484TIP3   OH240866   4.554   5.559   5.836 -0.3784  0.1243 -0.0785
 6484TIP3    H140867   4.493   5.600   5.897 -1.1324  0.3437 -0.9798
 6484TIP3    H240868   4.570   5.472   5.874 -0.0866  0.6090  0.9380
 6485TIP3   OH240869   4.752   0.877   2.492 -0.2423 -0.0982 -0.0160
 6485TIP3    H140870   4.831   0.863   2.438  0.0526  1.9151 -0.1325
 6485TIP3    H240871   4.697   0.935   2.439 -2.4551 -2.5776 -0.5342
 6486TIP3   OH240872   1.059   3.322  16.564 -0.0978  0.6288 -0.0093
 6486TIP3    H140873   1.081   3.335  16.471 -1.5936  0.3110 -0.4068
 6486TIP3    H240874   1.029   3.407  16.593  0.8610  0.8582  0.3301
 6487TIP3   OH240875   5.391   1.614  10.419 -0.0199  0.4039  0.3207
 6487TIP3    H140876   5.386   1.525  10.384  1.8318  0.5189 -0.2866
 6487TIP3    H240877   5.440   1.606  10.501  0.1212  0.8443  0.2855
 6488TIP3   OH240878   1.392   1.975  15.134  0.4030 -0.3182 -0.7937
 6488TIP3    H140879   1.387   2.034  15.208  1.2805 -1.2444  0.0208
 6488TIP3    H240880   1.303   1.941  15.123  0.5283 -1.1266  0.6294
 6489TIP3   OH240881   1.341   5.543   1.965 -0.1623 -0.4086 -0.3179
 6489TIP3    H140882   1.272   5.522   2.028  0.8747 -0.5413  0.7851
 6489TIP3    H240883   1.379   5.458   1.942  0.4122 -0.2365 -0.0200
 6490TIP3   OH240884   5.938   1.398  16.943  0.6594 -0.6168 -0.5325
 6490TIP3    H140885   5.873   1.465  16.927 -0.3796 -1.3428  0.6136
 6490TIP3    H240886   5.948   1.395  17.038  2.5857 -0.3071 -0.6969
 6491TIP3   OH240887   4.898   1.363   5.981  0.0902 -0.6110  0.3642
 6491TIP3    H140888   4.905   1.311   6.060  0.4198 -1.1465 -0.0147
 6491TIP3    H240889   4.978   1.416   5.980  0.7120 -1.5497 -0.2792
 6492TIP3   OH240890   6.580   4.455  11.616  0.0973 -0.1143  1.0880
 6492TIP3    H140891   6.500   4.423  11.573  0.4039  0.8514 -0.2283
 6492TIP3    H240892   6.603   4.534  11.567  2.1104 -0.6338  1.1799
 6493TIP3   OH240893   6.607   0.732   1.280  0.1280  0.3634 -0.5326
 6493TIP3    H140894   6.608   0.813   1.229 -0.1662  1.0733  0.5796
 6493TIP3    H240895   6.522   0.731   1.323  0.6552  0.1329  0.5207
 6494TIP3   OH240896   4.292   1.671  13.185 -0.5114  0.6817  0.7072
 6494TIP3    H140897   4.351   1.688  13.112  0.1910  0.8459  1.3067
 6494TIP3    H240898   4.247   1.754  13.200  0.9544  1.2911  1.8810
 6495TIP3   OH240899   6.312   0.840   3.750 -0.3376  0.3112  0.0444
 6495TIP3    H140900   6.341   0.890   3.673 -0.0941 -0.9503 -0.7021
 6495TIP3    H240901   6.218   0.828   3.735 -0.2270 -0.2209 -0.2217
 6496TIP3   OH240902   5.137   3.364   4.141  0.5313  0.0001 -0.1183
 6496TIP3    H140903   5.056   3.315   4.157  0.6516 -0.0423  0.3638
 6496TIP3    H240904   5.151   3.356   4.046  1.2882 -2.0667  0.1252
 6497TIP3   OH240905   0.789   5.037  15.731 -0.6375 -0.4001 -0.2706
 6497TIP3    H140906   0.784   4.952  15.775  0.6379 -0.1420  0.4025
 6497TIP3    H240907   0.754   5.099  15.795  1.1006 -0.0413  0.3640
 6498TIP3   OH240908   1.867   0.229   2.155 -0.1473  0.1807  0.4019
 6498TIP3    H140909   1.859   0.137   2.129 -0.4978  0.5900 -0.9940
 6498TIP3    H240910   1.945   0.233   2.210  1.1081 -0.5670 -1.3052
 6499TIP3   OH240911   5.759   2.828   6.542  0.6904  0.1885  0.2807
 6499TIP3    H140912   5.678   2.807   6.496 -0.1470  0.5828  1.5354
 6499TIP3    H240913   5.828   2.786   6.490 -0.3548 -0.5204 -0.5584
 6500TIP3   OH240914   5.507   0.037   1.300  0.1110  0.0043  0.1207
 6500TIP3    H140915   5.563   0.039   1.223 -1.5997 -0.0996 -1.1489
 6500TIP3    H240916   5.422   0.068   1.270 -0.9060 -1.1318  1.6882
 6501TIP3   OH240917   3.989   2.040   5.025  0.5722  0.6323  0.1103
 6501TIP3    H140918   4.003   2.108   4.958  1.6662  1.4727  1.1673
 6501TIP3    H240919   4.054   2.060   5.093  1.0773 -1.6236  0.3289
 6502TIP3   OH240920   0.608   1.260   5.266  0.7059  0.3421  0.3131
 6502TIP3    H140921   0.700   1.271   5.289  1.7410  0.5078 -3.6699
 6502TIP3    H240922   0.605   1.179   5.216 -0.5695  2.3994 -3.1076
 6503TIP3   OH240923   2.387   2.925  12.240 -0.1451  0.1872 -0.4890
 6503TIP3    H140924   2.463   2.949  12.293 -1.2859  2.2654  0.2818
 6503TIP3    H240925   2.357   3.007  12.202  0.1094 -1.1517 -3.7118
 6504TIP3   OH240926   6.661   4.956   1.687  0.0284  0.0498 -0.5636
 6504TIP3    H140927   6.725   5.023   1.666 -0.2473  1.0154  1.5730
 6504TIP3    H240928   6.579   4.989   1.649  0.3602 -0.1614 -1.4590
 6505TIP3   OH240929   2.740   2.749   0.040  0.2509 -0.5476  0.0588
 6505TIP3    H140930   2.654   2.736   0.081  0.1809  0.2548  0.1830
 6505TIP3    H240931   2.738   2.693  -0.038 -0.4591 -0.4111 -0.0299
 6506TIP3   OH240932   5.371   6.082   3.308  0.1786 -0.3431  0.0882
 6506TIP3    H140933   5.370   5.986   3.315 -0.5153 -0.2649  1.3771
 6506TIP3    H240934   5.319   6.101   3.230  0.2172 -1.0171 -0.1082
 6507TIP3   OH240935   5.866   4.026   2.241  0.5353  0.0217  0.3539
 6507TIP3    H140936   5.899   4.114   2.225 -2.0878  1.4290  2.3300
 6507TIP3    H240937   5.838   4.026   2.332 -1.6298 -2.1312 -0.2449
 6508TIP3   OH240938   5.618   1.691   6.224 -0.4595  0.7107  0.5324
 6508TIP3    H140939   5.602   1.611   6.274  0.6600  0.2511  0.1746
 6508TIP3    H240940   5.712   1.692   6.210 -0.7738  0.7169 -1.7498
 6509TIP3   OH240941   6.510   1.539  13.318 -0.3586 -0.2357  1.2152
 6509TIP3    H140942   6.585   1.500  13.364 -0.2348 -1.5944 -0.1200
 6509TIP3    H240943   6.451   1.466  13.301 -0.2604  0.1659 -1.0478
 6510TIP3   OH240944   0.094   1.709  14.703  0.1266 -0.0709 -0.2169
 6510TIP3    H140945   0.131   1.742  14.784  0.8915 -0.5971 -0.3472
 6510TIP3    H240946   0.142   1.754  14.633 -0.3609  0.1989 -0.3858
 6511TIP3   OH240947   3.738   2.107   1.856 -0.4953 -0.1525 -0.5537
 6511TIP3    H140948   3.800   2.087   1.926  0.5703 -1.4568 -1.8525
 6511TIP3    H240949   3.710   2.197   1.874  2.2109  0.6609 -0.3036
 6512TIP3   OH240950   5.215   2.732   5.097 -0.4211  0.6372 -0.1614
 6512TIP3    H140951   5.171   2.723   5.181 -1.0570 -0.7691 -0.6388
 6512TIP3    H240952   5.226   2.826   5.085  0.0505  0.8280  1.6822
 6513TIP3   OH240953   0.479   0.397   5.413 -0.2080  0.0435 -0.0975
 6513TIP3    H140954   0.490   0.319   5.359  0.2272 -0.7858  1.1437
 6513TIP3    H240955   0.504   0.368   5.501 -1.0534  1.3075  0.5755
 6514TIP3   OH240956   2.886   2.640  14.891 -0.5602 -0.1747  0.5009
 6514TIP3    H140957   2.836   2.592  14.957 -0.0785 -0.7684  0.4304
 6514TIP3    H240958   2.945   2.696  14.942 -1.1312  0.3621  0.5830
 6515TIP3   OH240959   5.468   0.825  12.343 -0.0722  0.1937  0.3307
 6515TIP3    H140960   5.409   0.886  12.299  0.4269  0.6151  0.2320
 6515TIP3    H240961   5.552   0.838  12.298  0.5275  0.8581  1.6142
 6516TIP3   OH240962   1.193   4.884   1.056  0.4047 -0.1852 -0.0501
 6516TIP3    H140963   1.196   4.933   0.974  2.1763 -2.5883 -1.5070
 6516TIP3    H240964   1.154   4.800   1.032 -0.2978 -0.4329  1.8624
 6517TIP3   OH240965   6.099   5.648  12.371 -0.0607 -0.0039  0.3729
 6517TIP3    H140966   6.105   5.696  12.454  0.1126  0.9279 -0.1723
 6517TIP3    H240967   6.158   5.574  12.382  0.8918  0.7795  0.6413
 6518TIP3   OH240968   4.563   4.148   5.564  0.0019  0.5015  0.0042
 6518TIP3    H140969   4.606   4.199   5.632 -0.2322  0.7751 -0.0508
 6518TIP3    H240970   4.532   4.069   5.608 -0.6248  0.9261  0.3328
 6519TIP3   OH240971   2.282   5.822  15.671  0.2600  0.5532  0.1661
 6519TIP3    H140972   2.323   5.743  15.634  3.8890  2.8254 -0.9664
 6519TIP3    H240973   2.312   5.823  15.762 -1.5851 -0.4807  0.8074
 6520TIP3   OH240974   5.403   1.019  14.766  0.0395  0.2820 -0.3344
 6520TIP3    H140975   5.349   1.083  14.812 -1.6601 -1.8960  0.8218
 6520TIP3    H240976   5.365   1.014  14.678 -0.9551 -0.3895  0.1187
 6521TIP3   OH240977   2.902   5.054  15.203  0.3797 -0.1192 -0.5070
 6521TIP3    H140978   2.869   5.032  15.290  0.2025  0.7247 -0.3551
 6521TIP3    H240979   2.917   4.970  15.161 -0.5172 -0.5231 -0.0258
 6522TIP3   OH240980   4.671   5.819  11.383 -0.6239 -0.2503 -0.3851
 6522TIP3    H140981   4.672   5.785  11.294  0.0846  1.0088 -0.8797
 6522TIP3    H240982   4.581   5.848  11.397 -0.9394 -1.2282 -0.3765
 6523TIP3   OH240983   3.981   6.317   0.360  0.3376 -0.3777  0.4808
 6523TIP3    H140984   4.059   6.372   0.357 -0.3716  0.6222 -0.0256
 6523TIP3    H240985   3.972   6.293   0.452 -0.0156  1.3696  0.9325
 6524TIP3   OH240986   6.343   1.477  16.750 -0.1274 -0.3983  0.3548
 6524TIP3    H140987   6.326   1.401  16.805 -0.3036 -0.9350 -0.4307
 6524TIP3    H240988   6.437   1.494  16.761  0.2229 -1.6598 -0.6430
 6525TIP3   OH240989   2.994   1.733  13.398 -0.3433 -0.2412 -0.2895
 6525TIP3    H140990   2.922   1.720  13.337  1.1138  1.4476 -2.4618
 6525TIP3    H240991   2.952   1.735  13.484 -2.7205 -0.5817 -1.3928
 6526TIP3   OH240992   4.815   0.852  11.870  0.0081 -0.1370  0.2891
 6526TIP3    H140993   4.791   0.764  11.842  0.7099 -0.6352  1.2012
 6526TIP3    H240994   4.854   0.893  11.793  2.1762 -1.5777  0.5784
 6527TIP3   OH240995   2.669   6.504  11.612  0.1737 -0.1453  0.4009
 6527TIP3    H140996   2.577   6.481  11.598  0.5239 -0.7442 -1.0439
 6527TIP3    H240997   2.674   6.598  11.593  0.1931 -0.4835 -1.3507
 6528TIP3   OH240998   4.479   5.784  10.892  0.0351  0.5313  0.2016
 6528TIP3    H140999   4.451   5.833  10.969  0.3909  1.3414 -0.1862
 6528TIP3    H241000   4.471   5.846  10.820  1.2554  0.2609 -0.1617
 6529TIP3   OH241001   6.780   1.698   5.847 -0.5928 -0.7290  0.6724
 6529TIP3    H141002   6.868   1.662   5.833 -0.1751  0.9578 -1.3462
 6529TIP3    H241003   6.752   1.726   5.760 -2.0879  1.0762  1.7057
 6530TIP3   OH241004   4.962   0.954   5.273 -0.0204 -0.0776 -0.2783
 6530TIP3    H141005   5.043   0.917   5.238  0.4658  0.1463  0.5961
 6530TIP3    H241006   4.955   1.041   5.233 -1.1377 -1.0727 -2.2959
 6531TIP3   OH241007   4.053   1.205  14.062 -0.0449 -0.3011  0.2171
 6531TIP3    H141008   4.143   1.202  14.029  0.0371  2.6871  0.0840
 6531TIP3    H241009   4.023   1.294  14.043 -2.4149 -0.7015  1.8849
 6532TIP3   OH241010   4.536   5.655   2.712  0.3969 -0.3513 -0.1697
 6532TIP3    H141011   4.490   5.738   2.723  0.3188 -0.6185  1.6493
 6532TIP3    H241012   4.601   5.672   2.644 -0.7894  0.7006 -1.0619
 6533TIP3   OH241013   2.989   1.318  14.056  0.0325  0.7400 -0.2951
 6533TIP3    H141014   2.964   1.250  13.994 -2.8505  0.0398  1.5537
 6533TIP3    H241015   3.019   1.269  14.133 -1.8330  1.5474  0.9542
 6534TIP3   OH241016   1.520   4.904  12.088  0.4501 -0.3561  0.4341
 6534TIP3    H141017   1.499   4.812  12.074 -0.5285  0.0785 -1.0627
 6534TIP3    H241018   1.616   4.906  12.096  0.7655 -1.1014 -2.7747
 6535TIP3   OH241019   3.810   4.607  12.350  0.0372  0.4950 -0.3760
 6535TIP3    H141020   3.743   4.666  12.315 -0.7239 -0.9515 -1.4101
 6535TIP3    H241021   3.893   4.646  12.321 -0.4427  1.1783 -0.8672
 6536TIP3   OH241022   4.482   1.913   3.904 -0.0612 -0.1357  0.7514
 6536TIP3    H141023   4.388   1.894   3.910 -0.0772  0.0287  1.0176
 6536TIP3    H241024   4.489   1.974   3.830 -0.1279 -0.3699  0.5489
 6537TIP3   OH241025   0.616   5.023   2.020 -0.1202  0.1587  0.2362
 6537TIP3    H141026   0.569   5.000   2.100 -0.4989  1.2849  0.3459
 6537TIP3    H241027   0.547   5.043   1.956  0.1996  1.8022  0.3923
 6538TIP3   OH241028   0.029   6.153   1.130  0.3600  0.2460 -0.0590
 6538TIP3    H141029   0.025   6.239   1.172  0.1014 -0.0657  0.5562
 6538TIP3    H241030  -0.034   6.158   1.058 -2.4255 -0.6597  2.2492
 6539TIP3   OH241031   4.907   0.573   3.471 -0.0870  0.8733  0.0816
 6539TIP3    H141032   4.894   0.493   3.522  1.1012  1.2294  0.9927
 6539TIP3    H241033   4.942   0.635   3.535  0.4176  1.6543 -0.9527
 6540TIP3   OH241034   0.801   2.082   6.256  0.0453  0.1857 -0.0848
 6540TIP3    H141035   0.853   2.107   6.179  0.7775 -0.8498  0.0582
 6540TIP3    H241036   0.853   2.112   6.330 -1.4365  2.6571 -0.0018
 6541TIP3   OH241037   6.582   6.061  12.158 -0.3886  0.7319  0.5760
 6541TIP3    H141038   6.593   6.152  12.187  0.4902  0.6093  0.6241
 6541TIP3    H241039   6.489   6.043  12.174 -1.0249  2.2335 -1.2050
 6542TIP3   OH241040   5.499   1.981   3.501 -0.0453  0.2702 -0.0751
 6542TIP3    H141041   5.535   2.059   3.545  1.5414  1.3402 -3.1652
 6542TIP3    H241042   5.552   1.908   3.534  0.7925  0.9871  0.1738
 6543TIP3   OH241043   6.767   5.585   1.091  0.5578  0.5820 -0.0199
 6543TIP3    H141044   6.697   5.641   1.125 -0.6225 -0.8595  0.0005
 6543TIP3    H241045   6.815   5.641   1.030  1.4772  2.6029  2.4435
 6544TIP3   OH241046   3.468   5.605   0.055 -0.3906 -0.7619  0.6657
 6544TIP3    H141047   3.384   5.605   0.101 -0.3919 -2.2523  0.6979
 6544TIP3    H241048   3.503   5.693   0.068 -1.0815 -0.7052  2.2424
 6545TIP3   OH241049   5.783   3.095  15.098  0.4722  0.1905 -0.3549
 6545TIP3    H141050   5.705   3.042  15.079  0.4956  0.3659 -0.9714
 6545TIP3    H241051   5.808   3.071  15.187 -1.1425  1.2162  0.3977
 6546TIP3   OH241052   5.048   1.493  14.173  0.3759  0.3940  0.1082
 6546TIP3    H141053   5.133   1.491  14.217  1.1624  3.1514 -1.1770
 6546TIP3    H241054   5.069   1.475  14.081 -0.6495 -0.5362  0.0532
 6547TIP3   OH241055   5.849   0.103  15.197 -0.1777  0.0733 -0.3421
 6547TIP3    H141056   5.790   0.126  15.269 -0.4145 -0.5765 -0.3250
 6547TIP3    H241057   5.819   0.017  15.168  1.5264 -0.8486  0.4777
 6548TIP3   OH241058   1.012   6.608   4.144  0.2002  0.7924  0.0007
 6548TIP3    H141059   0.940   6.636   4.202 -0.9207 -1.5768 -0.2104
 6548TIP3    H241060   0.968   6.569   4.069  1.7008  1.8007 -1.4252
 6549TIP3   OH241061   3.363   2.250  10.636  0.3177  0.7632  0.6162
 6549TIP3    H141062   3.357   2.174  10.694  0.4746  0.5452  0.3458
 6549TIP3    H241063   3.388   2.214  10.551  0.5515  1.1360  0.5274
 6550TIP3   OH241064   2.864   4.751  14.430  0.2160  0.6945 -0.4642
 6550TIP3    H141065   2.890   4.671  14.475 -1.4577 -0.8410 -2.1284
 6550TIP3    H241066   2.914   4.750  14.348 -0.8874  0.5839 -1.1518
 6551TIP3   OH241067   5.721   4.056   3.536  0.6803 -0.5796  0.4960
 6551TIP3    H141068   5.766   4.120   3.591  2.5079 -0.7621 -0.7056
 6551TIP3    H241069   5.736   3.972   3.580 -0.7703 -0.3284  1.4895
 6552TIP3   OH241070   2.534   2.820   4.266  0.1305  0.0004  0.8926
 6552TIP3    H141071   2.524   2.808   4.172 -0.1101  1.1944  0.7630
 6552TIP3    H241072   2.460   2.773   4.304  0.6387 -1.1254  0.5435
 6553TIP3   OH241073   3.306   5.666   0.880  0.3391  0.0539 -0.2079
 6553TIP3    H141074   3.293   5.612   0.958 -1.1118  3.5709  2.1147
 6553TIP3    H241075   3.397   5.651   0.855  0.7062 -1.4725  1.8966
 6554TIP3   OH241076   6.208   0.086   0.065  0.3787 -0.3231 -0.6852
 6554TIP3    H141077   6.151   0.015   0.036 -1.7907  1.2444 -0.3215
 6554TIP3    H241078   6.195   0.090   0.160  1.0065  0.1480 -0.6103
 6555TIP3   OH241079   1.242   5.539   2.640 -0.1708 -0.2708  0.0290
 6555TIP3    H141080   1.197   5.603   2.696  0.7278  0.4137 -0.0270
 6555TIP3    H241081   1.325   5.524   2.684 -0.3450 -1.3570  0.0014
 6556TIP3   OH241082   0.176   4.166   5.286 -0.2072  0.1920 -0.5087
 6556TIP3    H141083   0.246   4.229   5.298  0.1011 -0.2966  0.2758
 6556TIP3    H241084   0.188   4.133   5.197 -0.4926  1.3780 -0.9998
 6557TIP3   OH241085   5.667   4.246   4.239  0.2071 -0.7291  0.1203
 6557TIP3    H141086   5.691   4.162   4.200  1.4929 -0.8841  1.2091
 6557TIP3    H241087   5.576   4.234   4.267  0.6592 -2.0637  1.0785
 6558TIP3   OH241088   6.149   5.014  13.855 -0.5308  0.4142 -0.8127
 6558TIP3    H141089   6.195   4.930  13.851  0.5922  0.9862 -0.2867
 6558TIP3    H241090   6.213   5.078  13.822 -1.0520  1.1866 -0.3515
 6559TIP3   OH241091   3.513   1.542  13.785 -0.2529 -0.1798 -0.8427
 6559TIP3    H141092   3.500   1.607  13.854 -2.3619 -0.4844 -0.9482
 6559TIP3    H241093   3.496   1.588  13.704 -3.4696 -1.2535 -0.8319
 6560TIP3   OH241094   3.761   3.092  14.943  0.4056 -0.0535  0.4459
 6560TIP3    H141095   3.779   3.023  14.880 -2.0300 -1.1634  0.9046
 6560TIP3    H241096   3.844   3.105  14.989  1.9556  0.1136 -2.2795
 6561TIP3   OH241097   6.303   6.479  15.611  0.2019  0.2156 -0.2665
 6561TIP3    H141098   6.358   6.526  15.674 -1.9769  0.5421  1.4657
 6561TIP3    H241099   6.251   6.548  15.568 -1.0731 -0.3319  0.3582
 6562TIP3   OH241100   0.980   3.676  13.729  0.2270  0.5092 -0.1794
 6562TIP3    H141101   0.932   3.624  13.793  1.3419 -1.2156 -0.7066
 6562TIP3    H241102   1.070   3.678  13.762  0.1800  2.1811 -0.1247
 6563TIP3   OH241103   4.951   4.474  13.013  0.5051 -0.0637  0.4527
 6563TIP3    H141104   4.944   4.518  13.098  2.6270  0.3434  0.4412
 6563TIP3    H241105   4.899   4.527  12.954  1.2192  1.1957  0.9308
 6564TIP3   OH241106   1.101   4.054  11.915  0.0471  0.0473 -0.0390
 6564TIP3    H141107   1.050   4.111  11.973  0.4536  0.1872  0.1843
 6564TIP3    H241108   1.037   4.018  11.854 -0.1190  1.2144 -0.5559
 6565TIP3   OH241109   3.251   3.294   4.414 -0.4434 -0.6618 -0.9867
 6565TIP3    H141110   3.263   3.260   4.502  1.0366 -1.0866 -1.3297
 6565TIP3    H241111   3.310   3.370   4.410 -2.1492  0.6767 -0.9021
 6566TIP3   OH241112   0.167   3.604   4.251 -0.3462 -0.3238 -0.1993
 6566TIP3    H141113   0.160   3.630   4.343 -1.3262  0.8311 -0.5858
 6566TIP3    H241114   0.253   3.635   4.224 -1.5465  2.7510 -0.6937
 6567TIP3   OH241115   0.152   1.335   3.028  1.1121 -0.1406  0.2782
 6567TIP3    H141116   0.061   1.305   3.027  0.8099  0.7998 -1.7619
 6567TIP3    H241117   0.200   1.273   2.974  0.9266  1.5938 -1.9481
 6568TIP3   OH241118   6.700   2.186   1.861  0.0763  0.1681  0.5049
 6568TIP3    H141119   6.766   2.153   1.800  0.9526  0.2838  1.3795
 6568TIP3    H241120   6.731   2.159   1.948 -0.6342  0.8642  0.9880
 6569TIP3   OH241121   3.519   1.232  13.711 -0.4608 -0.2691 -0.3843
 6569TIP3    H141122   3.441   1.231  13.766 -1.6381  1.0827 -1.9598
 6569TIP3    H241123   3.503   1.302  13.647  1.1484 -1.3140 -2.0101
 6570TIP3   OH241124   4.182   4.312  16.587 -0.5943  0.0949 -0.5553
 6570TIP3    H141125   4.089   4.331  16.584 -0.4329  1.0685  0.3673
 6570TIP3    H241126   4.218   4.375  16.649  0.5192 -0.8907 -0.1621
 6571TIP3   OH241127   2.458   1.466  15.509 -0.2054  0.0075 -0.1063
 6571TIP3    H141128   2.478   1.401  15.441 -1.6603  1.3265 -1.8636
 6571TIP3    H241129   2.375   1.437  15.547 -0.0924  0.0211  0.1530
 6572TIP3   OH241130   1.369   1.142   1.463  0.3125  0.2557 -0.6385
 6572TIP3    H141131   1.373   1.047   1.461  1.6455  0.3180 -1.8082
 6572TIP3    H241132   1.369   1.164   1.557 -1.8170 -0.9324 -0.3387
 6573TIP3   OH241133   2.376   5.532  12.191 -0.3409  0.4763 -0.6271
 6573TIP3    H141134   2.439   5.597  12.220 -0.6578  0.6569 -0.3403
 6573TIP3    H241135   2.317   5.579  12.132 -1.2042  0.7063  0.4007
 6574TIP3   OH241136   4.078   3.763  14.232 -0.0944  0.0811 -0.3094
 6574TIP3    H141137   4.048   3.851  14.206 -0.9421 -0.2279 -0.4189
 6574TIP3    H241138   4.169   3.775  14.257 -0.0185  0.8781 -0.9447
 6575TIP3   OH241139   3.957   4.273   5.685 -0.1305  0.1626  0.3490
 6575TIP3    H141140   3.992   4.348   5.635  0.1262  0.4102  0.8905
 6575TIP3    H241141   3.889   4.237   5.629 -1.7176  2.0907  0.9728
 6576TIP3   OH241142   1.060   4.063   0.463  0.1194 -0.2003 -0.1336
 6576TIP3    H141143   1.109   4.061   0.545 -0.4548 -0.7951  0.2061
 6576TIP3    H241144   1.109   4.005   0.405  0.5862  0.3050 -0.2520
 6577TIP3   OH241145   5.673   6.449  10.567 -0.0468 -0.5955  0.3538
 6577TIP3    H141146   5.593   6.409  10.603  0.1723 -1.1960  0.1844
 6577TIP3    H241147   5.704   6.386  10.502  1.2273 -0.9457  1.2819
 6578TIP3   OH241148   0.140   4.898   1.499  0.1419 -0.2830  0.1636
 6578TIP3    H141149   0.155   4.817   1.547  2.6585  0.2137  0.2912
 6578TIP3    H241150   0.121   4.963   1.567  0.2087 -0.3310  0.2282
 6579TIP3   OH241151   5.684   4.389   3.516 -0.2972  0.1137 -0.0142
 6579TIP3    H141152   5.742   4.400   3.592 -1.7255 -2.1117  1.4553
 6579TIP3    H241153   5.604   4.435   3.540 -0.9221 -0.9819  0.0625
 6580TIP3   OH241154   6.107   4.225   1.467 -0.1067 -0.0829  0.1337
 6580TIP3    H141155   6.022   4.261   1.493  0.3563 -0.4072  2.2048
 6580TIP3    H241156   6.137   4.283   1.397  0.0986  2.8841  2.5877
 6581TIP3   OH241157   1.340   3.883  10.609  0.2929  0.0013  0.0219
 6581TIP3    H141158   1.403   3.831  10.658  1.2292  0.7452 -0.3789
 6581TIP3    H241159   1.388   3.962  10.584 -0.6011  0.2869 -0.8315
 6582TIP3   OH241160   2.090   3.280  13.147  0.1751  0.2928 -0.3068
 6582TIP3    H141161   2.164   3.293  13.205 -1.1438 -1.0846  1.7564
 6582TIP3    H241162   2.034   3.356  13.160  0.0373  0.1428 -0.0310
 6583TIP3   OH241163   4.652   2.894   6.115  0.1509 -0.0119  0.1712
 6583TIP3    H141164   4.685   2.807   6.092  0.8469  0.5478 -0.9763
 6583TIP3    H241165   4.561   2.878   6.141  0.4888 -1.1777  0.7004
 6584TIP3   OH241166   1.845   1.355  11.814  0.1181  0.3008 -0.0483
 6584TIP3    H141167   1.885   1.322  11.733  1.4041 -0.8427  1.0205
 6584TIP3    H241168   1.810   1.276  11.857  0.3443  0.7512  0.9803
 6585TIP3   OH241169   0.981   1.871  16.732 -0.7371 -1.0401  0.1050
 6585TIP3    H141170   1.016   1.895  16.646  0.6049 -0.6918  0.7320
 6585TIP3    H241171   0.910   1.934  16.747  0.7795  0.6449  0.4144
 6586TIP3   OH241172   1.917   6.296  10.857  0.1026 -0.0028  0.6802
 6586TIP3    H141173   1.943   6.385  10.832  3.2133 -0.2331  2.8139
 6586TIP3    H241174   1.867   6.308  10.938 -1.9894  0.0103 -0.5955
 6587TIP3   OH241175   1.967   4.772  13.458 -0.1261 -0.3400  0.5542
 6587TIP3    H141176   2.018   4.693  13.472  2.1376  0.9823 -0.0796
 6587TIP3    H241177   1.983   4.826  13.536 -1.0324 -0.1414  0.6207
 6588TIP3   OH241178   4.695   2.051   5.176 -0.0769  0.1923  0.6192
 6588TIP3    H141179   4.696   1.955   5.177  2.0630  0.1820 -0.3868
 6588TIP3    H241180   4.782   2.076   5.205 -0.7867  1.8636  1.3630
 6589TIP3   OH241181   3.495   3.051   0.776 -0.0109  0.0995  0.2394
 6589TIP3    H141182   3.547   3.130   0.785  1.1363 -0.6727  0.4178
 6589TIP3    H241183   3.438   3.051   0.854  2.3783 -0.9999  2.0562
 6590TIP3   OH241184   2.760   1.336   3.779 -0.5479 -0.1221 -0.3091
 6590TIP3    H141185   2.799   1.418   3.811  0.6381 -0.1155 -1.6950
 6590TIP3    H241186   2.758   1.279   3.856  0.9439  0.3641  0.1165
 6591TIP3   OH241187   6.068   0.868   0.815 -0.6217  0.4297  0.7592
 6591TIP3    H141188   6.050   0.914   0.733  0.2908 -0.1265  0.2326
 6591TIP3    H241189   6.004   0.902   0.877 -0.4097  1.8902  0.1899
 6592TIP3   OH241190   4.364   2.574   6.372 -0.2241 -0.3126 -0.4035
 6592TIP3    H141191   4.324   2.488   6.369 -0.4997 -0.2837  1.6293
 6592TIP3    H241192   4.292   2.634   6.388  0.0470  0.2452 -1.2177
 6593TIP3   OH241193   5.275   1.819  11.436 -0.3098 -0.2171 -0.8616
 6593TIP3    H141194   5.321   1.754  11.489  1.1833  0.0150 -1.8527
 6593TIP3    H241195   5.337   1.891  11.426 -1.1399  0.4009 -1.6331
 6594TIP3   OH241196   1.778   6.213  15.734 -0.0365  0.6769 -0.7786
 6594TIP3    H141197   1.858   6.205  15.682  0.1910  0.5057 -0.4120
 6594TIP3    H241198   1.769   6.128  15.776  0.9936  1.4686  1.1678
 6595TIP3   OH241199   0.724   0.087   3.723  0.3844  0.1500  0.4937
 6595TIP3    H141200   0.818   0.068   3.733  0.5879  0.9681  0.2093
 6595TIP3    H241201   0.707   0.159   3.785 -0.1952 -0.4202  0.9983
 6596TIP3   OH241202   5.121   0.438   5.310 -0.2074  0.0337 -0.4078
 6596TIP3    H141203   5.134   0.524   5.270 -2.9353  1.1320  0.9580
 6596TIP3    H241204   5.191   0.432   5.375 -0.7737  1.8256  0.4170
 6597TIP3   OH241205   2.829   6.128   3.930  0.1745  0.0066 -0.5795
 6597TIP3    H141206   2.782   6.064   3.983  0.0799 -0.7916 -1.6043
 6597TIP3    H241207   2.761   6.169   3.877  0.0913  1.6881  0.8018
 6598TIP3   OH241208   2.050   2.550  16.219  0.0142 -0.3626  0.1901
 6598TIP3    H141209   2.056   2.575  16.311 -0.1886 -1.0479  0.3948
 6598TIP3    H241210   2.118   2.483  16.208  0.4354  0.1404 -0.3066
 6599TIP3   OH241211   4.133   5.359  16.841 -0.1818  0.4258  1.0276
 6599TIP3    H141212   4.173   5.284  16.797 -1.3479  0.0501  0.5876
 6599TIP3    H241213   4.124   5.426  16.774  0.0675  0.6526  1.2191
 6600TIP3   OH241214   1.003   4.202  16.835  0.0684  0.4758  0.0647
 6600TIP3    H141215   0.986   4.282  16.884 -1.1664  0.4471 -0.3040
 6600TIP3    H241216   1.033   4.139  16.902 -3.5711 -0.1916  1.1859
 6601TIP3   OH241217   5.796   1.458   2.689  0.7011  0.6823  0.4266
 6601TIP3    H141218   5.818   1.466   2.597  1.7202  1.6188  0.7359
 6601TIP3    H241219   5.715   1.508   2.699 -0.1288 -0.5165 -0.2000
 6602TIP3   OH241220   6.633   0.967   1.504 -0.5410  0.1508  0.9137
 6602TIP3    H141221   6.581   0.898   1.544 -0.7619  0.5706  1.3520
 6602TIP3    H241222   6.723   0.934   1.505 -0.6074 -0.0127  1.3729
 6603TIP3   OH241223   3.147   3.604   0.683  0.0451  0.0305  0.4852
 6603TIP3    H141224   3.052   3.606   0.679  0.0433 -0.8851 -0.2252
 6603TIP3    H241225   3.167   3.565   0.768 -0.2010  1.1820  1.0715
 6604TIP3   OH241226   6.785   1.881   3.442 -0.1227  0.1527  0.0469
 6604TIP3    H141227   6.723   1.939   3.486 -0.6335 -1.3421  1.3195
 6604TIP3    H241228   6.732   1.832   3.380 -0.1795 -0.8840  0.8979
 6605TIP3   OH241229   5.362   4.369   0.365  0.2115  0.0454  0.0927
 6605TIP3    H141230   5.283   4.317   0.379 -0.1985  0.9826  1.3687
 6605TIP3    H241231   5.425   4.309   0.325 -0.8785 -0.9168 -0.1882
 6606TIP3   OH241232   3.242   4.188   6.036  0.1728 -0.5528  0.1637
 6606TIP3    H141233   3.299   4.141   5.976 -0.4292  0.5628 -1.3088
 6606TIP3    H241234   3.157   4.145   6.028  0.2504 -0.8131  0.7071
 6607TIP3   OH241235   0.552   1.728   2.632  0.7512  0.6030 -0.1560
 6607TIP3    H141236   0.628   1.686   2.672  0.4081 -0.1753 -0.3132
 6607TIP3    H241237   0.545   1.688   2.545 -1.0859 -0.9027  0.6457
 6608TIP3   OH241238   1.306   0.544  13.410  0.0135  0.0508 -0.8933
 6608TIP3    H141239   1.355   0.537  13.328  1.6090 -1.4261  0.1495
 6608TIP3    H241240   1.367   0.586  13.471 -1.2825  1.4722 -0.5197
 6609TIP3   OH241241   6.400   6.252  14.901 -0.0330  0.2180 -0.1179
 6609TIP3    H141242   6.327   6.190  14.909 -0.3867  0.3993 -1.7447
 6609TIP3    H241243   6.376   6.325  14.958 -0.9447  0.1019 -0.3512
 6610TIP3   OH241244   3.391   1.072  12.226 -0.3276 -0.4240  0.4473
 6610TIP3    H141245   3.357   1.027  12.303  1.1826  0.1660  1.4710
 6610TIP3    H241246   3.431   1.002  12.173 -1.9496 -0.9290 -0.1573
 6611TIP3   OH241247   5.942   0.679  13.297  0.1144 -0.2579  1.2000
 6611TIP3    H141248   5.999   0.607  13.268  0.1950  0.8874 -1.6137
 6611TIP3    H241249   5.997   0.757  13.290 -1.3194  0.6590 -0.0579
 6612TIP3   OH241250   0.013   2.565   5.324  0.0739 -0.0937  0.3305
 6612TIP3    H141251   0.032   2.601   5.411  3.4242 -2.2218  0.5623
 6612TIP3    H241252   0.079   2.497   5.311 -0.4409  0.0718 -3.8526
 6613TIP3   OH241253   3.502   5.419   5.835 -0.4815  0.1291 -0.0166
 6613TIP3    H141254   3.410   5.444   5.828 -0.3533  0.4775 -0.5223
 6613TIP3    H241255   3.501   5.329   5.868 -0.9692  0.5606  1.1487
 6614TIP3   OH241256   0.694   3.946  14.992 -0.2011 -0.2181  0.6055
 6614TIP3    H141257   0.744   3.893  14.931  0.4333  0.9367  0.0975
 6614TIP3    H241258   0.760   3.981  15.053 -0.4979  0.5837  0.4750
 6615TIP3   OH241259   5.386   0.391   0.381  0.2680  0.0584  0.2990
 6615TIP3    H141260   5.447   0.320   0.400 -0.1371  0.4186  3.1114
 6615TIP3    H241261   5.395   0.452   0.454 -2.3645  0.8610  0.0306
 6616TIP3   OH241262   3.177   3.092   5.089 -0.4405  0.2923 -0.3766
 6616TIP3    H141263   3.083   3.101   5.074 -0.6369 -2.4540 -1.0075
 6616TIP3    H241264   3.214   3.171   5.049 -2.3947  1.0745 -0.7404
 6617TIP3   OH241265   6.567   1.951   3.978  0.1444  0.0373 -0.6546
 6617TIP3    H141266   6.646   1.930   3.928 -0.6175 -1.8706 -1.0969
 6617TIP3    H241267   6.504   1.883   3.953 -0.9290  0.2636  1.3196
 6618TIP3   OH241268   0.672   2.099   5.030 -0.1437  0.6560  0.2328
 6618TIP3    H141269   0.690   2.007   5.010 -1.0081  0.6442 -0.5550
 6618TIP3    H241270   0.647   2.099   5.123  1.4444  0.3392  0.6734
 6619TIP3   OH241271   0.472   3.382   4.623  0.3451  0.6093  0.1266
 6619TIP3    H141272   0.385   3.376   4.663  1.0145 -0.4425  1.4297
 6619TIP3    H241273   0.456   3.427   4.540 -1.5365 -0.1492  0.0562
 6620TIP3   OH241274   3.276   2.979  11.641  0.0316  0.3524 -0.0497
 6620TIP3    H141275   3.189   2.962  11.678  0.0624 -2.6638 -1.2333
 6620TIP3    H241276   3.336   2.939  11.703  0.2605 -1.8972 -1.6654
 6621TIP3   OH241277   6.258   6.560   4.507  0.3013 -0.6835 -0.7767
 6621TIP3    H141278   6.326   6.611   4.464  0.4174 -0.7376 -0.6580
 6621TIP3    H241279   6.256   6.476   4.460  0.0343 -0.5269 -1.0428
 6622TIP3   OH241280   3.857   4.334   2.855 -0.4110  0.6778 -0.1881
 6622TIP3    H141281   3.822   4.393   2.787 -2.4365 -1.2922 -0.8980
 6622TIP3    H241282   3.779   4.292   2.892  0.9931 -1.4065  0.4409
 6623TIP3   OH241283   6.123   1.604   5.985 -0.1266  0.1161  0.0862
 6623TIP3    H141284   6.110   1.509   5.987  2.1630 -0.2070  0.9717
 6623TIP3    H241285   6.108   1.631   6.076  0.6822  0.3896  0.1367
 6624TIP3   OH241286   4.470   0.060  11.418 -0.8123  0.3331  0.8238
 6624TIP3    H141287   4.388   0.107  11.435 -2.5737 -2.5036  0.5343
 6624TIP3    H241288   4.473   0.051  11.323 -0.2518  0.2885  0.8487
 6625TIP3   OH241289   4.547   4.195   1.563  0.1341 -0.6085  0.4972
 6625TIP3    H141290   4.610   4.182   1.492  1.1339 -1.2689  1.4711
 6625TIP3    H241291   4.500   4.274   1.540  1.3207 -0.1094 -0.2740
 6626TIP3   OH241292   2.407   3.937   1.545  0.4147 -0.1717  0.3978
 6626TIP3    H141293   2.408   3.900   1.457  0.3938  2.5099 -0.7719
 6626TIP3    H241294   2.314   3.936   1.570 -0.0347  2.0949 -0.9976
 6627TIP3   OH241295   1.261   2.318   4.688  0.5411 -0.3959  0.3942
 6627TIP3    H141296   1.321   2.262   4.739  0.1086 -0.2305  1.0864
 6627TIP3    H241297   1.297   2.406   4.698  1.2158 -0.5423 -0.6889
 6628TIP3   OH241298   4.074   1.839  13.232  0.3178 -0.1542  0.3575
 6628TIP3    H141299   4.102   1.915  13.283  1.7949  0.7586 -1.7445
 6628TIP3    H241300   4.018   1.790  13.291  1.3026  1.3108  2.5700
 6629TIP3   OH241301   6.123   2.096   2.680  0.5514  0.6626 -0.2752
 6629TIP3    H141302   6.033   2.064   2.672  0.2654  1.3909  0.0701
 6629TIP3    H241303   6.177   2.018   2.662 -0.1422 -0.1175  0.9822
 6630TIP3   OH241304   4.832   3.694   4.975  0.2241  0.1856 -0.4244
 6630TIP3    H141305   4.915   3.654   5.001 -1.3438 -1.3145  2.4659
 6630TIP3    H241306   4.844   3.788   4.992  2.4381  0.4804 -3.2294
 6631TIP3   OH241307   1.806   5.657  13.033  0.0679 -0.1019 -0.1284
 6631TIP3    H141308   1.889   5.680  13.075  1.4254 -2.0044 -1.6281
 6631TIP3    H241309   1.812   5.695  12.945 -0.8933  0.2457 -0.0465
 6632TIP3   OH241310   6.143   1.356  12.016 -0.4899  0.8624 -0.0616
 6632TIP3    H141311   6.182   1.301  12.084 -0.6614  1.2349  0.3447
 6632TIP3    H241312   6.149   1.304  11.936 -1.3567 -0.0614  0.4727
 6633TIP3   OH241313   3.296   3.901  13.647 -0.3564  0.4023 -0.2753
 6633TIP3    H141314   3.388   3.902  13.673 -0.4440  0.7409  0.0360
 6633TIP3    H241315   3.257   3.975  13.694 -0.7823  0.2774 -0.4250
 6634TIP3   OH241316   3.270   6.382   0.767  0.1442 -0.2047  0.4766
 6634TIP3    H141317   3.329   6.411   0.698 -1.4542  2.3208  0.1203
 6634TIP3    H241318   3.322   6.322   0.820  3.0268  1.9577  0.1812
 6635TIP3   OH241319   4.452   6.519  14.342 -0.1568  0.7832 -0.1987
 6635TIP3    H141320   4.451   6.487  14.433  1.2286  0.8550 -0.1552
 6635TIP3    H241321   4.365   6.556  14.330 -1.1155 -1.1912  0.3963
 6636TIP3   OH241322   0.903   1.172  12.302 -0.3818  0.2253 -0.1764
 6636TIP3    H141323   0.964   1.113  12.258 -0.5270 -1.3552  1.6711
 6636TIP3    H241324   0.865   1.224  12.232  1.7166 -0.0492 -1.5524
 6637TIP3   OH241325   1.520   1.477  12.021  0.0628  0.2507 -0.4094
 6637TIP3    H141326   1.443   1.466  11.966 -0.3062  0.4390  0.0643
 6637TIP3    H241327   1.492   1.446  12.107  0.9613 -1.0361 -0.5696
 6638TIP3   OH241328   0.216   3.288  11.604 -0.9424  0.1669 -0.3751
 6638TIP3    H141329   0.190   3.332  11.523 -1.9371 -1.5728 -1.0111
 6638TIP3    H241330   0.211   3.356  11.671  0.7000  1.8369 -1.8864
 6639TIP3   OH241331   3.255   5.065   2.984  0.5899 -0.5882 -0.2533
 6639TIP3    H141332   3.206   5.019   2.917  0.3068  0.9197 -1.0960
 6639TIP3    H241333   3.311   5.126   2.936 -0.6943  1.5620  0.8972
 6640TIP3   OH241334   2.717   5.376  15.658  0.5562 -0.4501 -0.3829
 6640TIP3    H141335   2.659   5.381  15.582 -1.9081  0.3421  1.4442
 6640TIP3    H241336   2.763   5.293  15.649 -2.1733 -1.9583 -1.0534
 6641TIP3   OH241337   3.335   0.866  12.819 -0.1273  0.2673  0.2797
 6641TIP3    H141338   3.303   0.953  12.795  2.1557  1.1250  0.2247
 6641TIP3    H241339   3.268   0.806  12.788 -0.6323  1.8499 -1.7506
 6642TIP3   OH241340   3.806   0.092  13.133  0.0962 -0.6269 -0.1659
 6642TIP3    H141341   3.771   0.177  13.159  0.1680 -0.2055 -1.4174
 6642TIP3    H241342   3.895   0.090  13.169 -0.1874 -0.5020  0.5374
 6643TIP3   OH241343   5.534   0.258  15.676 -0.6615  0.0742  0.5560
 6643TIP3    H141344   5.605   0.235  15.736 -1.5486 -3.0274  0.4950
 6643TIP3    H241345   5.512   0.176  15.632 -2.9078  1.4205 -0.9180
 6644TIP3   OH241346   5.601   3.876   3.338 -0.3273  0.2086  0.2543
 6644TIP3    H141347   5.689   3.863   3.374  0.0765  0.9193 -0.4496
 6644TIP3    H241348   5.546   3.813   3.385  0.7645 -1.0087 -0.0678
 6645TIP3   OH241349   0.066   2.745   2.984 -0.8350 -0.0312  0.8240
 6645TIP3    H141350  -0.022   2.782   2.995 -0.5424  0.2986  2.1788
 6645TIP3    H241351   0.050   2.659   2.944 -1.6577  0.6581 -0.3828
 6646TIP3   OH241352   6.627   4.807   4.989 -0.1291 -0.2706 -0.1988
 6646TIP3    H141353   6.571   4.732   5.005 -0.5610  0.0492 -0.1917
 6646TIP3    H241354   6.666   4.827   5.074 -1.8054  0.9374  0.3218
 6647TIP3   OH241355   6.743   5.455   2.419 -0.1813  0.3551 -0.0201
 6647TIP3    H141356   6.691   5.394   2.367 -0.8769  0.7951  0.1438
 6647TIP3    H241357   6.699   5.457   2.504 -0.2480  1.1908 -0.0696
 6648TIP3   OH241358   6.363   6.258   2.850 -0.6364  0.1142 -0.2785
 6648TIP3    H141359   6.337   6.231   2.938 -2.1121  0.7926 -0.4983
 6648TIP3    H241360   6.429   6.194   2.824  1.4315  1.2011  2.1695
 6649TIP3   OH241361   5.053   5.649   2.816  0.3028 -0.1835  0.1354
 6649TIP3    H141362   5.097   5.586   2.871  1.6762  1.6265  1.1526
 6649TIP3    H241363   5.122   5.687   2.762 -0.5899  0.0555 -0.8717
 6650TIP3   OH241364   2.426   4.813   1.021  0.3281 -0.1311  0.6721
 6650TIP3    H141365   2.394   4.723   1.025 -0.8450  0.3082  1.4976
 6650TIP3    H241366   2.462   4.822   0.933  1.5560 -1.7729  1.0041
 6651TIP3   OH241367   1.580   3.483   1.255  0.7415  0.4803  0.9636
 6651TIP3    H141368   1.575   3.440   1.170  1.8430 -2.2267  2.2100
 6651TIP3    H241369   1.492   3.518   1.270 -0.2293 -1.4662 -0.0551
 6652TIP3   OH241370   2.620   1.349   1.790  0.0475 -0.0929 -0.0354
 6652TIP3    H141371   2.599   1.441   1.775 -1.9807 -0.7741 -1.5129
 6652TIP3    H241372   2.568   1.301   1.726 -0.4997 -2.4054  2.0515
 6653TIP3   OH241373   5.738   4.083  11.538 -0.1148 -0.3333  0.4116
 6653TIP3    H141374   5.778   4.001  11.568  1.4555 -0.5287 -2.1202
 6653TIP3    H241375   5.683   4.110  11.612 -1.3833 -4.1017  0.9974
 6654TIP3   OH241376   5.692   2.051  14.304 -0.6754  0.2899 -0.4391
 6654TIP3    H141377   5.671   2.143  14.284  2.2439  1.3416  1.0177
 6654TIP3    H241378   5.723   2.053  14.394 -3.4844 -2.6825  0.6780
 6655TIP3   OH241379   1.673   5.087  16.062 -0.5227  0.4807  0.1937
 6655TIP3    H141380   1.649   5.093  15.970  0.2208 -0.4768 -0.0720
 6655TIP3    H241381   1.629   5.008  16.093  0.0638  0.2284  0.3942
 6656TIP3   OH241382   6.642   4.939   0.095  0.2564  0.1365 -0.2545
 6656TIP3    H141383   6.650   5.035   0.098  1.2663  0.0308  0.9447
 6656TIP3    H241384   6.702   4.912   0.025  1.0167  0.2833  0.3351
 6657TIP3   OH241385   3.708   0.862  12.372 -0.1152 -0.4560  0.2565
 6657TIP3    H141386   3.622   0.848  12.412  0.0503 -0.4347  0.6242
 6657TIP3    H241387   3.691   0.921  12.299  0.0269  2.0336  2.1633
 6658TIP3   OH241388   5.662   2.358   2.320 -0.0743  0.6422 -0.3091
 6658TIP3    H141389   5.689   2.413   2.246 -1.7582 -0.8220 -2.0976
 6658TIP3    H241390   5.576   2.391   2.344  0.0859  0.5390  0.4164
 6659TIP3   OH241391   1.839   0.902  14.715  0.1543 -0.0965  0.1035
 6659TIP3    H141392   1.854   0.903  14.809  0.1814  1.1375  0.0937
 6659TIP3    H241393   1.918   0.941  14.678  0.3174 -0.9583 -0.4526
 6660TIP3   OH241394   2.671   0.314  14.501 -0.3558  0.3254 -0.5069
 6660TIP3    H141395   2.693   0.365  14.578  0.9158  0.1871 -0.7592
 6660TIP3    H241396   2.581   0.339  14.479 -0.2028  1.4591  0.1397
 6661TIP3   OH241397   4.168   4.966   0.442  0.3359  0.4331 -0.6996
 6661TIP3    H141398   4.165   4.951   0.537  0.0132 -1.3116 -0.9744
 6661TIP3    H241399   4.076   4.977   0.417  0.4108  0.7600 -0.8369
 6662TIP3   OH241400   5.724   6.448  13.165  0.2001  0.1606 -0.8364
 6662TIP3    H141401   5.723   6.467  13.071 -2.2799  0.2208 -0.8334
 6662TIP3    H241402   5.729   6.353  13.170  2.7119  0.2604 -0.9773
 6663TIP3   OH241403   4.398   3.225  14.146 -0.1376  0.0526  0.4744
 6663TIP3    H141404   4.438   3.139  14.155  0.0991 -0.3395 -3.4087
 6663TIP3    H241405   4.317   3.219  14.196 -1.4713 -3.3722 -1.9202
 6664TIP3   OH241406   5.635   3.862  16.130 -0.1488 -0.3082  0.5310
 6664TIP3    H141407   5.663   3.943  16.172 -3.2046  0.8813  0.4157
 6664TIP3    H241408   5.561   3.888  16.075 -1.4804 -3.2531  0.8468
 6665TIP3   OH241409   1.443   0.230   5.899  0.6413  0.3333 -0.3390
 6665TIP3    H141410   1.461   0.298   5.964  0.6088 -0.3406  0.3772
 6665TIP3    H241411   1.466   0.270   5.815  0.6367  1.2208  0.0844
 6666TIP3   OH241412   5.965   5.186   6.083  0.2525  0.3667 -0.3126
 6666TIP3    H141413   5.972   5.099   6.045  2.8082 -0.3168  1.5656
 6666TIP3    H241414   6.044   5.232   6.054  0.8918  0.7275  1.8613
 6667TIP3   OH241415   5.436   6.483  15.659  0.4119  0.7133  0.2731
 6667TIP3    H141416   5.383   6.486  15.579  0.4651  1.7338  0.2798
 6667TIP3    H241417   5.393   6.417  15.713  0.7964 -0.5353 -0.8923
 6668TIP3   OH241418   2.560   0.177   4.552 -0.0198  0.6246 -0.6069
 6668TIP3    H141419   2.532   0.169   4.643  0.1818  1.0666 -0.5055
 6668TIP3    H241420   2.613   0.098   4.536  0.4961  0.8773 -0.1436
 6669TIP3   OH241421   5.251   0.276   2.824 -0.0214 -0.6179 -0.7223
 6669TIP3    H141422   5.204   0.359   2.831  0.7063 -0.2083 -0.6084
 6669TIP3    H241423   5.284   0.260   2.912  0.8413 -0.4200 -1.0015
 6670TIP3   OH241424   2.354   4.004  11.237  0.0497  0.2272 -0.5868
 6670TIP3    H141425   2.386   3.917  11.259 -2.8629 -0.5935  0.7393
 6670TIP3    H241426   2.432   4.054  11.215  1.8907 -2.3876 -0.2057
 6671TIP3   OH241427   5.623   4.039  11.943  0.0705 -0.1499  0.4544
 6671TIP3    H141428   5.570   4.095  11.886 -0.4012  0.3220  1.3431
 6671TIP3    H241429   5.577   4.039  12.026  0.4279 -1.3392  0.6620
 6672TIP3   OH241430   5.189   1.922  14.701 -0.2801  0.3223 -0.9623
 6672TIP3    H141431   5.107   1.921  14.751  0.1419 -0.6403 -0.2776
 6672TIP3    H241432   5.193   2.010  14.665 -1.7207  0.3216 -1.1673
 6673TIP3   OH241433   5.991   1.736  14.174 -0.0314 -0.3066  0.3752
 6673TIP3    H141434   6.079   1.714  14.206  0.6780  1.2934 -0.4169
 6673TIP3    H241435   5.936   1.665  14.207  2.0765 -3.0615 -1.6506
 6674TIP3   OH241436   5.104   0.302   3.298  0.3369 -0.3408  0.5489
 6674TIP3    H141437   5.037   0.257   3.350  0.0370  0.1028  0.5495
 6674TIP3    H241438   5.077   0.394   3.299  2.1068  0.1857  2.3345
 6675TIP3   OH241439   0.737   1.028  15.938  0.0016 -0.4298  0.1037
 6675TIP3    H141440   0.830   1.020  15.916 -0.1113  1.0925 -1.0327
 6675TIP3    H241441   0.692   0.987  15.864 -0.3026  2.0791 -1.1613
 6676TIP3   OH241442   5.756   1.019  12.769 -0.0310 -0.1378  0.4602
 6676TIP3    H141443   5.700   1.042  12.695 -2.8014 -1.9559  1.9260
 6676TIP3    H241444   5.741   1.087  12.834  0.9036  0.3884  0.1325
 6677TIP3   OH241445   2.349   5.984  16.230 -0.0967  0.4995  0.0091
 6677TIP3    H141446   2.326   5.909  16.284 -1.3894 -0.3858 -1.7676
 6677TIP3    H241447   2.396   5.948  16.155 -0.6538  1.4707 -0.8247
 6678TIP3   OH241448   5.122   5.169  13.436  0.0226 -0.5482 -0.5615
 6678TIP3    H141449   5.068   5.136  13.364 -1.7905  0.0075  0.5276
 6678TIP3    H241450   5.143   5.091  13.487  0.6423 -0.8257 -1.2226
 6679TIP3   OH241451   1.911   5.629  11.339  0.3327  0.0996 -0.3894
 6679TIP3    H141452   1.961   5.665  11.266  0.7555 -0.8432 -0.5784
 6679TIP3    H241453   1.910   5.534  11.322 -2.8074  0.2361 -1.2122
 6680TIP3   OH241454   0.878   6.078  13.454 -0.3507 -0.3339  0.1765
 6680TIP3    H141455   0.901   5.991  13.489 -0.7640 -0.3404  0.4352
 6680TIP3    H241456   0.958   6.109  13.412 -0.5387 -1.3550 -0.9653
 6681TIP3   OH241457   6.050   2.030   3.109 -0.1807 -0.1524  0.2959
 6681TIP3    H141458   5.964   2.003   3.077  1.2083 -1.2675 -2.6293
 6681TIP3    H241459   6.069   2.112   3.064  0.8113 -0.5400 -0.0062
 6682TIP3   OH241460   0.091   3.700   2.378  0.2292  0.1218 -0.0337
 6682TIP3    H141461   0.025   3.720   2.445  0.1702 -0.1173 -0.0191
 6682TIP3    H241462   0.080   3.607   2.361  1.9234 -0.3853  1.4495
 6683TIP3   OH241463   5.689   1.049  11.939  0.1621  0.1941 -0.5177
 6683TIP3    H141464   5.655   1.131  11.973 -1.7343 -1.4382  1.6606
 6683TIP3    H241465   5.612   0.997  11.918  1.2783 -2.2387  1.1833
 6684TIP3   OH241466   1.216   3.802   6.082 -0.0083  0.2960  0.2071
 6684TIP3    H141467   1.282   3.827   6.147  1.0824 -0.0217 -0.7543
 6684TIP3    H241468   1.180   3.719   6.115  0.3135  0.2969  0.5641
 6685TIP3   OH241469   4.315   0.464  12.470  0.1371  0.3024  0.1161
 6685TIP3    H141470   4.349   0.548  12.439 -0.2960  0.1814 -0.6988
 6685TIP3    H241471   4.374   0.438  12.540  0.5358  1.0710  0.0655
 6686TIP3   OH241472   1.304   1.800  17.057  0.2683 -0.1614 -0.3382
 6686TIP3    H141473   1.321   1.820  17.149  0.7020 -1.5322 -0.1026
 6686TIP3    H241474   1.262   1.878  17.023  1.8337  1.0959  0.5424
 6687TIP3   OH241475   6.763   3.451   1.180 -0.1231 -0.3263  0.2748
 6687TIP3    H141476   6.849   3.459   1.140 -0.3525 -2.2569 -0.6526
 6687TIP3    H241477   6.709   3.409   1.113 -1.7318  0.6852  0.9190
 6688TIP3   OH241478   3.619   4.491   5.877 -0.0244  0.5919  0.3901
 6688TIP3    H141479   3.713   4.494   5.893 -0.1050 -0.8817  1.2231
 6688TIP3    H241480   3.603   4.561   5.814  2.2346 -1.5901 -2.8042
 6689TIP3   OH241481   5.882   3.799  12.071 -0.8306  0.4892 -0.0850
 6689TIP3    H141482   5.901   3.892  12.078 -1.1185  0.7019 -1.9822
 6689TIP3    H241483   5.827   3.791  11.993 -0.5662 -1.3018 -0.1113
 6690TIP3   OH241484   1.058   6.449   4.937 -0.0439 -0.1407  0.4118
 6690TIP3    H141485   1.031   6.454   4.845 -0.7742 -1.3754  0.5569
 6690TIP3    H241486   0.987   6.489   4.986 -0.4117 -0.9888  0.5748
 6691TIP3   OH241487   6.512   5.170  14.919  0.4697  0.4559 -0.4467
 6691TIP3    H141488   6.545   5.136  15.001  2.5048  0.3095 -1.2958
 6691TIP3    H241489   6.475   5.094  14.874  0.6123  0.2794 -0.2646
 6692TIP3   OH241490   1.135   4.722   2.030 -0.4502  0.6173  0.5060
 6692TIP3    H141491   1.178   4.728   1.945 -1.2914  1.3313  0.1132
 6692TIP3    H241492   1.138   4.812   2.064 -0.8017  0.4935  0.8710
 6693TIP3   OH241493   0.183   4.580  12.555  0.2083 -0.1399 -0.6049
 6693TIP3    H141494   0.273   4.561  12.528  0.1306 -2.5245  0.7122
 6693TIP3    H241495   0.170   4.529  12.635 -1.5421  2.0837  0.5852
 6694TIP3   OH241496   5.296   4.785   2.012  0.3177  0.1157  0.7165
 6694TIP3    H141497   5.340   4.726   1.952 -0.1263 -1.8268  2.2494
 6694TIP3    H241498   5.339   4.771   2.096  0.3571  2.1579  1.0772
 6695TIP3   OH241499   5.015   0.583  11.366 -0.8272  0.3356 -0.3056
 6695TIP3    H141500   5.001   0.495  11.333  1.0386 -0.8944  2.0236
 6695TIP3    H241501   4.927   0.620  11.375 -1.7079 -1.8151  0.0732
 6696TIP3   OH241502   2.965   6.279   2.655 -0.1608 -0.3365  0.9102
 6696TIP3    H141503   2.995   6.203   2.704  0.2300 -0.7543  0.0473
 6696TIP3    H241504   3.034   6.345   2.667  1.6799 -1.6536 -1.9173
 6697TIP3   OH241505   2.260   2.208   2.082  0.2814 -0.4377  0.9084
 6697TIP3    H141506   2.339   2.259   2.099  0.9280 -0.6410 -1.4181
 6697TIP3    H241507   2.189   2.273   2.080  0.5385 -0.1155  1.7624
 6698TIP3   OH241508   1.687   4.343   4.029  0.3399  0.2574 -0.1657
 6698TIP3    H141509   1.719   4.317   3.943  1.3519  0.5362  0.1167
 6698TIP3    H241510   1.645   4.265   4.064  0.6266 -0.0862 -0.5835
 6699TIP3   OH241511   4.600   5.719   2.045 -0.2556 -0.1415  0.0695
 6699TIP3    H141512   4.680   5.686   2.086  1.2724  1.8382 -1.1891
 6699TIP3    H241513   4.543   5.742   2.118  1.6971  1.6334  1.0865
 6700TIP3   OH241514   3.393   1.128   3.925 -0.2701 -0.0093  0.2918
 6700TIP3    H141515   3.429   1.182   3.855 -0.1407 -0.3496  0.0929
 6700TIP3    H241516   3.353   1.053   3.880  2.2412 -1.6753  0.7037
 6701TIP3   OH241517   6.532   1.025  14.776  0.1832 -0.0474 -0.0680
 6701TIP3    H141518   6.498   0.958  14.835  0.0247  0.7427  0.7674
 6701TIP3    H241519   6.490   1.106  14.806  2.5408  0.9109  0.8207
 6702TIP3   OH241520   1.747   6.572  14.745 -0.1454  0.1189 -0.6178
 6702TIP3    H141521   1.791   6.487  14.740 -0.2749 -0.0232  0.6030
 6702TIP3    H241522   1.817   6.636  14.728 -0.0480 -0.2145 -1.5344
 6703TIP3   OH241523   6.587   3.126  11.771  0.3972  0.1600 -0.3555
 6703TIP3    H141524   6.656   3.173  11.723  0.3711  1.0244  0.4392
 6703TIP3    H241525   6.633   3.066  11.828  0.4467 -0.3329 -0.9046
 6704TIP3   OH241526   3.673   5.698  11.548 -0.3190 -0.4186 -0.4827
 6704TIP3    H141527   3.697   5.759  11.478 -0.0718  1.9216  1.5768
 6704TIP3    H241528   3.753   5.647  11.564 -0.0087 -0.1074 -1.0326
 6705TIP3   OH241529   2.568   4.335   5.135 -0.4628  0.3618  0.2781
 6705TIP3    H141530   2.583   4.341   5.041  0.3186 -0.6011  0.3270
 6705TIP3    H241531   2.491   4.280   5.144 -0.1022 -0.1550  0.2198
 6706TIP3   OH241532   4.773   0.435  15.718  0.1005 -0.3955  0.6542
 6706TIP3    H141533   4.732   0.349  15.704 -1.3747  0.4113 -0.0890
 6706TIP3    H241534   4.703   0.498  15.699  1.9151  1.0369 -1.4322
 6707TIP3   OH241535   2.416   5.322  14.770  0.6173  0.4936 -0.7638
 6707TIP3    H141536   2.324   5.327  14.793  0.5335  0.8257 -1.1679
 6707TIP3    H241537   2.457   5.279  14.845  0.0274 -0.3123 -0.8904
 6708TIP3   OH241538   4.458   0.612  16.297  0.5041 -0.3620  0.3003
 6708TIP3    H141539   4.536   0.562  16.322  0.0263 -0.4263  1.7285
 6708TIP3    H241540   4.490   0.699  16.278  1.1752 -0.8756 -0.9835
 6709TIP3   OH241541   3.341   4.141   5.772  0.1188 -0.8505 -0.2144
 6709TIP3    H141542   3.422   4.142   5.824 -0.8720 -1.7439  1.4148
 6709TIP3    H241543   3.366   4.100   5.689  2.0665  1.8853 -1.0444
 6710TIP3   OH241544   2.119   1.965  16.131 -0.6706  0.2961 -0.0080
 6710TIP3    H141545   2.190   2.014  16.089 -0.0224  0.0766  0.8180
 6710TIP3    H241546   2.076   2.028  16.188  1.6287 -0.6047  2.8560
 6711TIP3   OH241547   6.659   6.567   2.252  0.0430 -0.4236  0.1306
 6711TIP3    H141548   6.746   6.539   2.280  0.3402 -0.7497 -1.0893
 6711TIP3    H241549   6.632   6.632   2.317  0.9226 -0.8114  0.8805
 6712TIP3   OH241550   1.562   4.161  13.297  0.2946  0.5994  0.2006
 6712TIP3    H141551   1.622   4.210  13.241 -1.4528  2.1306 -0.4177
 6712TIP3    H241552   1.514   4.104  13.237  1.3152 -0.8489  0.7305
 6713TIP3   OH241553   0.022   2.017  12.592 -0.1052  0.5227  0.0526
 6713TIP3    H141554  -0.056   2.071  12.603  0.0654  1.0370 -1.1540
 6713TIP3    H241555   0.081   2.044  12.663  0.4694  2.8191 -1.2455
 6714TIP3   OH241556   2.708   4.328   3.490 -0.0683 -0.1610 -0.7880
 6714TIP3    H141557   2.693   4.419   3.518  0.4039  0.1010 -1.3631
 6714TIP3    H241558   2.697   4.331   3.395  1.5840 -0.3608 -1.0027
 6715TIP3   OH241559   5.459   6.703   0.428 -0.0355  0.3221 -0.7182
 6715TIP3    H141560   5.383   6.742   0.470 -1.4141 -0.8629 -2.0534
 6715TIP3    H241561   5.464   6.615   0.464  1.3085  0.7306  0.1086
 6716TIP3   OH241562   4.426   1.286   0.122  0.3442  0.3006 -0.0955
 6716TIP3    H141563   4.412   1.380   0.124 -1.0755  0.1375 -1.2665
 6716TIP3    H241564   4.385   1.257   0.041 -0.4216 -1.5082  0.8925
 6717TIP3   OH241565   1.469   5.470   2.790  0.1146 -0.3373  0.3164
 6717TIP3    H141566   1.502   5.519   2.865 -0.6078 -0.3267  0.6349
 6717TIP3    H241567   1.477   5.378   2.817  2.0860 -0.4234 -0.5409
 6718TIP3   OH241568   4.066   2.866   2.864  0.5249  0.5368 -0.3886
 6718TIP3    H141569   3.981   2.904   2.887  0.9654  0.1304  2.1129
 6718TIP3    H241570   4.080   2.892   2.773 -1.9783  1.1488 -0.6475
 6719TIP3   OH241571   2.991   0.990   3.236 -0.5081 -0.5276 -0.0560
 6719TIP3    H141572   2.995   1.068   3.180  2.2663 -1.2241 -0.8962
 6719TIP3    H241573   3.013   0.917   3.177 -0.0698 -1.5634  1.3734
 6720TIP3   OH241574   4.975   6.267   5.547 -0.5713 -0.3841 -0.0978
 6720TIP3    H141575   4.977   6.176   5.575 -1.9299 -0.1609  0.7875
 6720TIP3    H241576   5.045   6.309   5.596 -0.7543 -0.6913  0.4300
 6721TIP3   OH241577   3.329   1.537  10.860 -0.2821  0.2191  0.0124
 6721TIP3    H141578   3.245   1.491  10.849  0.5373 -1.5430  0.9375
 6721TIP3    H241579   3.320   1.615  10.806 -0.9671 -2.0585 -3.3568
 6722TIP3   OH241580   0.488   1.524  13.088  0.7201 -0.0846 -0.2288
 6722TIP3    H141581   0.443   1.448  13.124  0.6353 -0.3952 -0.9964
 6722TIP3    H241582   0.531   1.493  13.009  2.2760  0.2183  0.4740
 6723TIP3   OH241583   5.054   2.955   2.568 -0.1452  0.5169  0.1759
 6723TIP3    H141584   5.044   2.861   2.588 -0.2838  0.2743 -0.9847
 6723TIP3    H241585   5.091   2.992   2.648  2.0786 -0.9400 -0.1212
 6724TIP3   OH241586   1.109   6.262  12.215  0.3193 -0.4273 -0.3074
 6724TIP3    H141587   1.126   6.181  12.263 -0.6898 -0.1587  0.5101
 6724TIP3    H241588   1.187   6.316  12.231  1.8416 -1.9260 -2.3806
 6725TIP3   OH241589   0.237   3.521  11.101 -0.1551  0.0692  0.2806
 6725TIP3    H141590   0.264   3.612  11.117  1.6464  0.1840 -3.0589
 6725TIP3    H241591   0.316   3.478  11.069 -1.8305 -1.7773 -1.5082
 6726TIP3   OH241592   3.722   3.715   0.359 -0.5142 -0.4539 -0.0414
 6726TIP3    H141593   3.636   3.706   0.318 -0.8852 -1.6624  0.9526
 6726TIP3    H241594   3.717   3.660   0.437  1.2321 -0.7134 -0.0856
 6727TIP3   OH241595   0.369   0.021   4.884  0.0971  0.0790  0.5929
 6727TIP3    H141596   0.302   0.001   4.819  0.8433  0.3133 -0.2440
 6727TIP3    H241597   0.403   0.106   4.859  0.5540  0.0687  1.1575
 6728TIP3   OH241598   4.841   3.574  11.668 -0.4481  0.3069  0.0667
 6728TIP3    H141599   4.792   3.614  11.741  0.2679  1.6388 -0.1649
 6728TIP3    H241600   4.860   3.648  11.609 -0.9687 -0.7433 -1.4494
 6729TIP3   OH241601   5.276   0.472  13.810  0.5048  0.2336  0.2240
 6729TIP3    H141602   5.291   0.389  13.855  0.7690 -0.8399 -1.7955
 6729TIP3    H241603   5.294   0.539  13.877  1.1189 -1.2937  1.6258
 6730TIP3   OH241604   4.645   1.301   3.987  0.4042  0.6219  1.0932
 6730TIP3    H141605   4.636   1.386   4.031 -1.7186  0.3399  1.2448
 6730TIP3    H241606   4.616   1.237   4.053 -0.1218 -0.0356  0.2303
 6731TIP3   OH241607   1.249   0.091   3.164 -0.1749  0.3448  0.0198
 6731TIP3    H141608   1.322   0.042   3.126 -0.0973  0.4849 -0.0127
 6731TIP3    H241609   1.175   0.072   3.106 -0.5653 -1.0867  0.9603
 6732TIP3   OH241610   1.696   1.837   3.975  0.4407  0.2327 -0.3393
 6732TIP3    H141611   1.764   1.814   3.913  0.4878  2.0632 -1.0088
 6732TIP3    H241612   1.735   1.906   4.030 -0.1015 -0.3121  0.7552
 6733TIP3   OH241613   4.852   5.561  15.654 -0.3695  0.2407  0.2405
 6733TIP3    H141614   4.767   5.595  15.628 -1.2174 -0.8939  1.4989
 6733TIP3    H241615   4.894   5.536  15.571 -1.2156  0.8714 -0.3855
 6734TIP3   OH241616   1.431   1.547  13.907 -0.2070  0.4896 -0.2742
 6734TIP3    H141617   1.365   1.577  13.969 -1.1531  0.9461 -1.4873
 6734TIP3    H241618   1.505   1.520  13.961 -1.7087 -0.8368  1.1382
 6735TIP3   OH241619   2.351   1.588   6.218  0.4547  0.0987 -0.3495
 6735TIP3    H141620   2.300   1.527   6.164  1.1690  0.4496 -1.4414
 6735TIP3    H241621   2.386   1.534   6.288 -2.3998  0.0664  1.1325
 6736TIP3   OH241622   0.426   0.019  16.331 -0.9579 -0.3907  0.4366
 6736TIP3    H141623   0.492   0.041  16.396  0.9446 -2.1313 -0.8635
 6736TIP3    H241624   0.429   0.092  16.269  0.7644 -1.1429 -0.3827
 6737TIP3   OH241625   3.566   2.035  12.412 -0.1795 -0.2919  0.0521
 6737TIP3    H141626   3.543   2.063  12.323  0.2979  0.4925  0.1703
 6737TIP3    H241627   3.482   2.035  12.459 -0.6941 -2.4103 -0.8497
 6738TIP3   OH241628   0.378   2.401   1.923  0.1869 -0.1938 -0.5293
 6738TIP3    H141629   0.308   2.466   1.924 -1.3476 -1.8142  2.2536
 6738TIP3    H241630   0.334   2.317   1.932  2.3894 -1.3702 -0.2108
 6739TIP3   OH241631   1.467   3.346  15.257  0.5227  0.3347 -0.2553
 6739TIP3    H141632   1.525   3.302  15.320  0.4342  0.7838  0.1454
 6739TIP3    H241633   1.414   3.405  15.311 -2.1385 -1.9335 -0.2648
 6740TIP3   OH241634   1.375   4.161  16.419  0.2242  0.1348  0.7146
 6740TIP3    H141635   1.303   4.178  16.480  1.3902 -0.3967  2.2623
 6740TIP3    H241636   1.332   4.124  16.341 -1.1282 -0.6668  1.8212
 6741TIP3   OH241637   4.263   1.650  16.646 -0.0869 -0.8476  0.5747
 6741TIP3    H141638   4.344   1.694  16.673 -0.4096 -0.4163  0.8488
 6741TIP3    H241639   4.198   1.677  16.711 -0.4386 -1.2356  0.3876
 6742TIP3   OH241640   2.698   4.079  11.178  0.4653  0.4695  0.4098
 6742TIP3    H141641   2.777   4.132  11.188  1.3507 -0.0070 -3.2033
 6742TIP3    H241642   2.663   4.105  11.092 -1.9066 -1.1574  0.8207
 6743TIP3   OH241643   4.800   1.572  16.102  0.1372 -0.4356  0.5123
 6743TIP3    H141644   4.811   1.632  16.176 -0.6871 -0.9916  1.0989
 6743TIP3    H241645   4.705   1.566  16.090  0.2857  0.1435 -1.0025
 6744TIP3   OH241646   4.485   5.451  13.460 -0.0951  0.1860 -0.4823
 6744TIP3    H141647   4.548   5.467  13.530  1.0946 -0.7594 -1.2875
 6744TIP3    H241648   4.409   5.413  13.503  0.6775 -0.5068  0.2917
 6745TIP3   OH241649   6.304   6.135   3.073 -0.2347 -0.4052 -0.1565
 6745TIP3    H141650   6.229   6.126   3.014  0.6194 -0.1680 -1.2985
 6745TIP3    H241651   6.310   6.050   3.116 -1.8869 -0.0370  0.8530
 6746TIP3   OH241652   6.483   1.681   4.315  0.1743 -0.0497  0.6313
 6746TIP3    H141653   6.418   1.676   4.246 -0.4180 -0.4077  1.2185
 6746TIP3    H241654   6.562   1.641   4.278  0.6179  2.0099 -0.7172
 6747TIP3   OH241655   3.256   5.708  13.592  0.1570 -0.4602  0.3989
 6747TIP3    H141656   3.219   5.674  13.510  0.3663 -0.0342  0.1257
 6747TIP3    H241657   3.273   5.800  13.573  0.4428 -0.4260  0.8433
 6748TIP3   OH241658   3.599   5.636   4.508  0.0469  0.0321 -0.4800
 6748TIP3    H141659   3.519   5.689   4.515  0.3254  0.3767  0.1178
 6748TIP3    H241660   3.584   5.563   4.568  0.3743  0.3528  0.0013
 6749TIP3   OH241661   2.514   3.229  12.526 -0.1403  0.3850 -0.6668
 6749TIP3    H141662   2.474   3.294  12.583 -0.3330 -0.3742  0.0644
 6749TIP3    H241663   2.606   3.225  12.554 -1.0839 -2.8258  2.2645
 6750TIP3   OH241664   5.215   0.695   2.116  0.3582 -0.2942 -0.2523
 6750TIP3    H141665   5.308   0.674   2.117  0.0332 -1.8781  2.3215
 6750TIP3    H241666   5.172   0.612   2.138 -1.5323  0.8381  0.4047
 6751TIP3   OH241667   0.203   4.131  15.696  0.3551 -0.5637  0.2854
 6751TIP3    H141668   0.131   4.133  15.634 -0.8809 -0.1727  1.7056
 6751TIP3    H241669   0.260   4.061  15.664 -0.5758 -0.7889 -0.9188
 6752TIP3   OH241670   1.834   0.076   3.691  0.1379 -0.3397  0.7317
 6752TIP3    H141671   1.828   0.148   3.629 -1.7424 -0.0833  1.1680
 6752TIP3    H241672   1.921   0.084   3.730  1.3908 -0.5546 -1.8992
 6753TIP3   OH241673   6.230   1.457  12.746 -0.0842  0.5767  0.4916
 6753TIP3    H141674   6.290   1.520  12.707  0.8725 -0.4401  0.3350
 6753TIP3    H241675   6.284   1.406  12.807 -1.2306  1.1315  2.0244
 6754TIP3   OH241676   4.120   1.324   1.770  0.0140 -0.3824 -0.2481
 6754TIP3    H141677   4.180   1.264   1.815  0.0273 -0.5204 -0.4487
 6754TIP3    H241678   4.168   1.407   1.765 -0.1862 -0.2170  0.4508
 6755TIP3   OH241679   0.883   0.054  15.271  0.1956 -0.4025 -0.1774
 6755TIP3    H141680   0.973   0.075  15.296 -0.3142 -0.9591  2.3227
 6755TIP3    H241681   0.863  -0.026  15.321 -1.2880 -0.9668 -1.6274
 6756TIP3   OH241682   6.522   2.878  16.315  0.1766  0.3340 -0.0771
 6756TIP3    H141683   6.465   2.920  16.379 -1.1811 -0.2963 -0.8610
 6756TIP3    H241684   6.556   2.950  16.261  1.5803  0.9078  1.5034
 6757TIP3   OH241685   6.621   2.493   3.717 -0.3679 -0.2528 -0.2193
 6757TIP3    H141686   6.585   2.464   3.633 -0.8983 -2.0877  0.6112
 6757TIP3    H241687   6.578   2.576   3.734 -0.4739 -0.0075 -1.6336
 6758TIP3   OH241688   5.185   2.747  14.728 -0.0798  0.2677 -0.1099
 6758TIP3    H141689   5.253   2.696  14.683 -1.9022 -2.4218  0.0916
 6758TIP3    H241690   5.234   2.814  14.776  2.3213 -0.6535 -1.1536
 6759TIP3   OH241691   3.508   6.401   4.451  0.4946  0.5259  0.1689
 6759TIP3    H141692   3.507   6.375   4.359  1.7888  0.7489  0.0841
 6759TIP3    H241693   3.593   6.371   4.483 -1.4345 -3.0017  2.3113
 6760TIP3   OH241694   4.760   4.302   2.476 -0.1264 -0.1440  0.2989
 6760TIP3    H141695   4.770   4.367   2.546 -0.6984  0.0535  0.1965
 6760TIP3    H241696   4.749   4.219   2.522 -1.1961  0.0848  0.4515
 6761TIP3   OH241697   0.644   3.934  16.518 -0.0763  0.3553  0.0843
 6761TIP3    H141698   0.589   3.881  16.460 -0.1018  0.1991  0.2498
 6761TIP3    H241699   0.594   3.939  16.600  0.2320  0.0715  0.2932
 6762TIP3   OH241700   4.672   5.215  13.023 -0.8086  0.6304  0.0469
 6762TIP3    H141701   4.672   5.236  12.930  0.7770  0.4686 -0.0036
 6762TIP3    H241702   4.713   5.290  13.065 -2.3683  1.1074  0.7214
 6763TIP3   OH241703   3.330   5.229  12.142  0.1456  0.6257 -0.1956
 6763TIP3    H141704   3.400   5.241  12.079  0.9442 -0.5073  0.4516
 6763TIP3    H241705   3.266   5.174  12.096  0.1285  0.8541 -0.4468
 6764TIP3   OH241706   1.236   4.407  16.237 -0.7623 -0.1001  0.2753
 6764TIP3    H141707   1.203   4.318  16.236  1.1601 -0.8443  0.5705
 6764TIP3    H241708   1.295   4.412  16.162 -1.5895  1.2349 -0.3195
 6765TIP3   OH241709   6.441   1.835   2.113  0.5206  0.5429  0.4563
 6765TIP3    H141710   6.490   1.773   2.167  0.6918  0.0634 -0.2518
 6765TIP3    H241711   6.483   1.831   2.027  2.0234  3.3078  0.9689
 6766TIP3   OH241712   4.233   1.048   0.113  0.0905 -0.5738  0.0450
 6766TIP3    H141713   4.312   0.998   0.136 -0.4970 -1.3265  0.4296
 6766TIP3    H241714   4.260   1.102   0.038 -0.2505 -4.0447 -2.6719
 6767TIP3   OH241715   4.759   5.072   5.337 -0.2880 -0.1027 -0.1208
 6767TIP3    H141716   4.782   5.139   5.273 -1.9813  0.5484 -0.0771
 6767TIP3    H241717   4.809   5.096   5.415  1.8009 -0.9152 -1.1675
 6768TIP3   OH241718   4.554   5.394   0.320 -0.6118  0.0447  0.3449
 6768TIP3    H141719   4.575   5.305   0.291 -1.5214 -0.1711  0.3366
 6768TIP3    H241720   4.571   5.393   0.415  2.3049  0.7352 -0.1130
 6769TIP3   OH241721   5.259   4.694  14.360  0.6563  0.1256 -0.4727
 6769TIP3    H141722   5.351   4.689  14.387  0.8269 -2.3154 -1.3508
 6769TIP3    H241723   5.262   4.721  14.268  0.8527 -4.5747 -2.0042
 6770TIP3   OH241724   5.807   2.321  13.190  0.5626  0.2770  0.3770
 6770TIP3    H141725   5.809   2.252  13.124 -0.7020  0.5427  0.0446
 6770TIP3    H241726   5.856   2.285  13.264  1.7958 -0.1147 -0.6077
 6771TIP3   OH241727   3.582   5.761  14.213  0.1878 -0.3389 -0.1128
 6771TIP3    H141728   3.569   5.754  14.307 -0.2707  0.2548 -0.1266
 6771TIP3    H241729   3.669   5.724  14.198  0.7918  0.7264  0.7092
 6772TIP3   OH241730   4.015   4.588   4.570 -0.6794  0.1048  0.2510
 6772TIP3    H141731   4.085   4.539   4.528 -1.3766 -1.7409  1.1941
 6772TIP3    H241732   4.059   4.638   4.639 -0.0492  0.3218 -0.3036
 6773TIP3   OH241733   1.690   3.804   5.734  0.2150  0.4532 -0.7544
 6773TIP3    H141734   1.618   3.859   5.701 -1.5161 -0.2018  1.8195
 6773TIP3    H241735   1.743   3.863   5.788 -0.7309  0.0009  0.6897
 6774TIP3   OH241736   4.296   0.467  14.368 -0.2314  0.0962 -0.3647
 6774TIP3    H141737   4.251   0.491  14.287 -0.2996 -0.0760 -0.3767
 6774TIP3    H241738   4.385   0.500  14.356 -0.4550  0.7888 -0.1819
 6775TIP3   OH241739   6.111   3.429   4.968  0.3602 -1.0172 -0.0663
 6775TIP3    H141740   6.093   3.346   4.926 -0.9310 -0.8419  0.1273
 6775TIP3    H241741   6.028   3.454   5.009  0.1977  1.2705 -1.6836
 6776TIP3   OH241742   4.052   1.623   2.315  0.4873 -0.0397 -0.4632
 6776TIP3    H141743   4.120   1.682   2.283  0.9741 -0.0643  0.5094
 6776TIP3    H241744   4.059   1.628   2.410 -0.8055 -0.1148 -0.3523
 6777TIP3   OH241745   1.871   2.124   0.414 -0.1828 -0.2939  0.3114
 6777TIP3    H141746   1.775   2.118   0.416 -0.2121  0.3662  1.0255
 6777TIP3    H241747   1.894   2.113   0.322 -1.1318  2.1705 -0.2573
 6778TIP3   OH241748   2.117   4.486  15.178  0.6328 -0.1562  0.0585
 6778TIP3    H141749   2.111   4.560  15.117 -0.9590 -0.4323 -0.1478
 6778TIP3    H241750   2.124   4.526  15.264  0.0173  0.2352 -0.0702
 6779TIP3   OH241751   0.088   5.126   1.654  0.1452  0.1627 -0.0933
 6779TIP3    H141752   0.139   5.176   1.718 -0.7286  1.1640 -0.1688
 6779TIP3    H241753   0.099   5.173   1.572  1.9240 -1.5751 -0.9003
 6780TIP3   OH241754   1.014   5.847  12.791  0.4048 -0.0732  0.3355
 6780TIP3    H141755   1.018   5.916  12.857 -0.9163 -0.5849  0.9533
 6780TIP3    H241756   0.933   5.863  12.744  0.6959 -0.4967 -0.3155
 6781TIP3   OH241757   3.570   3.620  16.515  0.7808 -0.1475  0.7766
 6781TIP3    H141758   3.573   3.615  16.611  0.6089 -1.6587  0.7222
 6781TIP3    H241759   3.478   3.634  16.495  0.3411 -2.7750  0.7586
 6782TIP3   OH241760   1.385   0.048   3.690 -0.1589 -0.4858 -0.2205
 6782TIP3    H141761   1.361   0.039   3.598  0.6947 -1.4484 -0.3626
 6782TIP3    H241762   1.465  -0.004   3.699  0.3742  0.4947  0.8215
 6783TIP3   OH241763   2.718   2.411  12.028 -0.3940  0.2019  0.3231
 6783TIP3    H141764   2.667   2.413  12.109 -0.9365  3.0159 -0.0189
 6783TIP3    H241765   2.679   2.480  11.974  0.5282 -1.0260 -1.9953
 6784TIP3   OH241766   5.425   1.023  14.487  0.3332  0.1080 -0.0179
 6784TIP3    H141767   5.374   1.096  14.452  0.1733  1.0608  2.1365
 6784TIP3    H241768   5.514   1.057  14.496  0.4919 -0.2976 -0.0577
 6785TIP3   OH241769   0.058   4.210  16.786  0.5233 -0.1496 -0.0055
 6785TIP3    H141770   0.152   4.200  16.770 -0.0305 -0.2111 -3.5805
 6785TIP3    H241771   0.022   4.122  16.772 -0.7636  0.9809 -4.4291
 6786TIP3   OH241772   2.143   6.192  12.067 -0.0339 -0.4955  0.5456
 6786TIP3    H141773   2.098   6.143  12.136 -0.2003 -0.0971  0.7162
 6786TIP3    H241774   2.076   6.211  12.003  0.0037 -0.3668  0.5448
 6787TIP3   OH241775   3.052   3.501   4.456 -0.0133 -0.3651 -0.9768
 6787TIP3    H141776   3.008   3.527   4.537  1.0873  1.6723 -1.0105
 6787TIP3    H241777   3.093   3.418   4.477 -1.9271 -1.1660 -0.2499
 6788TIP3   OH241778   3.941   4.009  14.137 -0.8292 -0.0910  0.4456
 6788TIP3    H141779   3.917   3.956  14.061 -0.4061 -0.9821  0.9229
 6788TIP3    H241780   3.982   4.087  14.100  1.7414 -1.6875 -0.2138
 6789TIP3   OH241781   1.470   2.323  13.393  0.0247 -0.2383  0.3751
 6789TIP3    H141782   1.529   2.248  13.402  0.7551  0.5986  3.6249
 6789TIP3    H241783   1.390   2.296  13.438  0.9967  1.5084  3.3512
 6790TIP3   OH241784   1.336   2.168   0.154 -0.2875  0.2038 -0.4901
 6790TIP3    H141785   1.242   2.153   0.144 -0.4662 -0.3471  1.7561
 6790TIP3    H241786   1.351   2.168   0.249  2.1781 -1.0639 -0.8273
 6791TIP3   OH241787   3.156   1.147   5.035 -0.3703 -0.2205 -0.1673
 6791TIP3    H141788   3.128   1.069   5.084 -0.8941 -0.7522 -1.2857
 6791TIP3    H241789   3.078   1.203   5.034 -0.0070  0.3028  0.5960
 6792TIP3   OH241790   5.227   0.492  14.926 -0.3850 -0.0816 -0.2081
 6792TIP3    H141791   5.247   0.419  14.867  0.2853  0.1119 -0.2278
 6792TIP3    H241792   5.249   0.570  14.875  1.8158  0.0452  0.8886
 6793TIP3   OH241793   0.242   4.943  15.939 -0.1762  0.1872 -0.2538
 6793TIP3    H141794   0.147   4.940  15.926 -0.1535 -1.9748 -0.0551
 6793TIP3    H241795   0.270   5.022  15.893 -1.8162 -0.2058 -2.0034
 6794TIP3   OH241796   0.003   3.595   1.413 -0.1114 -0.4826 -0.1649
 6794TIP3    H141797   0.045   3.668   1.365 -1.8504  0.5263 -0.1830
 6794TIP3    H241798  -0.002   3.524   1.349 -0.2280  0.0515 -0.7543
 6795TIP3   OH241799   6.440   1.752  14.119 -0.4364 -0.1428 -0.4666
 6795TIP3    H141800   6.387   1.826  14.147  0.4807  0.4531 -0.2778
 6795TIP3    H241801   6.439   1.692  14.194  0.5069  0.6144  0.1576
 6796TIP3   OH241802   1.455   6.071   1.215  0.5133 -0.4090 -0.2529
 6796TIP3    H141803   1.486   6.161   1.201 -0.0148  0.3196  2.8473
 6796TIP3    H241804   1.383   6.061   1.154 -0.8091  2.0576  0.8090
 6797TIP3   OH241805   4.079   2.621   1.001  0.3084 -0.2269 -0.5275
 6797TIP3    H141806   4.072   2.705   1.046 -1.9471 -0.7064  0.0988
 6797TIP3    H241807   4.112   2.560   1.068 -1.1085 -0.4967 -0.0414
 6798TIP3   OH241808   6.528   2.349   2.020  0.5824 -0.4750  0.3801
 6798TIP3    H141809   6.546   2.275   1.962 -1.2431 -1.1571  0.6396
 6798TIP3    H241810   6.557   2.319   2.106  2.8417  0.3575 -0.0396
 6799TIP3   OH241811   5.328   2.992  16.826 -0.0374 -0.1928 -0.2661
 6799TIP3    H141812   5.350   2.978  16.734  1.4154 -2.5385  0.3956
 6799TIP3    H241813   5.240   2.956  16.835  0.3798 -1.2549 -0.4294
 6800TIP3   OH241814   5.904   2.848   4.997  0.0593  0.2551  0.1293
 6800TIP3    H141815   5.816   2.832   5.033 -0.2245 -0.6864 -0.9297
 6800TIP3    H241816   5.916   2.942   5.005 -1.7441  0.6307 -1.2437
 6801TIP3   OH241817   2.353   4.037   4.543  0.2417 -0.1883  0.4424
 6801TIP3    H141818   2.395   4.097   4.482  0.7552  0.0493  1.0276
 6801TIP3    H241819   2.361   4.079   4.628  0.1676 -0.8523  0.7826
 6802TIP3   OH241820   0.376   4.019   4.005  0.0495  0.1539 -0.3321
 6802TIP3    H141821   0.315   3.966   3.954 -0.0939  0.8686 -0.9207
 6802TIP3    H241822   0.460   4.007   3.960  0.5967 -1.7428  1.1534
 6803TIP3   OH241823   5.942   6.522   1.406 -0.3364 -0.3711  0.0603
 6803TIP3    H141824   5.867   6.565   1.365 -0.6129  0.1231  1.0699
 6803TIP3    H241825   5.939   6.432   1.373 -1.3482 -0.3422  0.0713
 6804TIP3   OH241826   3.628   1.232  11.533  0.1961 -0.1941 -0.1403
 6804TIP3    H141827   3.686   1.178  11.587 -1.0094 -1.1643  0.2325
 6804TIP3    H241828   3.679   1.252  11.455  1.1875 -0.6434  0.3802
 6805TIP3   OH241829   1.624   2.940   6.209 -0.5100  0.3399  0.2190
 6805TIP3    H141830   1.655   2.910   6.123 -1.4255 -1.3651  0.4536
 6805TIP3    H241831   1.682   3.013   6.232  0.6102 -0.0720 -1.2378
 6806TIP3   OH241832   0.414   0.371  11.049  0.2529 -0.1061  0.1813
 6806TIP3    H141833   0.493   0.375  10.995  0.0924 -1.3802 -0.1808
 6806TIP3    H241834   0.344   0.349  10.988 -0.0251 -1.0206  0.8144
 6807TIP3   OH241835   0.295   0.676  15.745  0.2754 -0.3922  0.1114
 6807TIP3    H141836   0.277   0.644  15.656 -1.3115 -0.0514  0.2844
 6807TIP3    H241837   0.363   0.742  15.733 -1.8847  1.7190 -1.2932
 6808TIP3   OH241838   5.766   3.875   4.554 -0.1600 -0.0860 -0.0763
 6808TIP3    H141839   5.745   3.870   4.647 -0.8909  0.5949 -0.1944
 6808TIP3    H241840   5.819   3.798   4.536 -2.1856 -1.6174  0.3485
 6809TIP3   OH241841   4.912   0.144   6.336 -0.1064  0.2415 -0.3449
 6809TIP3    H141842   4.918   0.181   6.424  0.7300  0.1282 -0.3532
 6809TIP3    H241843   4.857   0.066   6.345  0.3105  0.0087  0.1426
 6810TIP3   OH241844   3.469   2.203  12.196 -0.3319  0.3179 -0.1339
 6810TIP3    H141845   3.538   2.241  12.142  1.9183 -2.2207  0.8326
 6810TIP3    H241846   3.425   2.140  12.139 -0.1730  0.0946 -0.0104
 6811TIP3   OH241847   0.179   3.467   1.004 -0.2285 -0.4800  0.2146
 6811TIP3    H141848   0.123   3.510   0.940  0.4316 -1.8381 -1.3187
 6811TIP3    H241849   0.266   3.502   0.987 -0.4640  1.0358  2.0620
 6812TIP3   OH241850   3.562   6.752  15.882  0.5640  0.5157  0.0749
 6812TIP3    H141851   3.468   6.733  15.879 -0.1148  3.7833 -0.5083
 6812TIP3    H241852   3.590   6.748  15.791  1.7392 -3.6085  0.5094
 6813TIP3   OH241853   4.673   3.968  17.185 -0.1431 -0.4116  0.2353
 6813TIP3    H141854   4.651   3.912  17.111 -3.5263 -0.0992  0.9343
 6813TIP3    H241855   4.642   3.920  17.262 -2.5808  2.0658  0.8940
 6814TIP3   OH241856   2.341   3.159  14.699  0.1781  0.6211 -0.3308
 6814TIP3    H141857   2.276   3.102  14.740  0.4787  0.5895  0.1003
 6814TIP3    H241858   2.313   3.248  14.721  0.5128  0.5954  0.2087
 6815TIP3   OH241859   1.599   4.574  13.028  0.2740  0.1488 -0.4271
 6815TIP3    H141860   1.558   4.551  13.111 -1.1869  0.5274 -1.0321
 6815TIP3    H241861   1.553   4.653  12.999  0.6666 -0.0666 -1.6655
 6816TIP3   OH241862   5.727   3.368   4.628 -0.0629  0.5204  0.3312
 6816TIP3    H141863   5.817   3.379   4.599  0.3135  1.2947  1.7290
 6816TIP3    H241864   5.679   3.340   4.550  1.1837  1.1115 -0.6545
 6817TIP3   OH241865   6.170   5.609  13.558 -0.7654  0.4985 -0.0216
 6817TIP3    H141866   6.249   5.619  13.504 -0.8743 -1.7140 -0.6387
 6817TIP3    H241867   6.199   5.632  13.646  0.5327 -0.1287 -0.2661
 6818TIP3   OH241868   1.428   1.919  16.074  0.5581  0.2412 -0.0239
 6818TIP3    H141869   1.434   1.827  16.047 -1.7159 -0.1497  0.7135
 6818TIP3    H241870   1.519   1.950  16.072  1.2298 -1.6859 -1.3889
 6819TIP3   OH241871   4.505   1.200  10.771 -0.1035  0.4177  0.0603
 6819TIP3    H141872   4.534   1.147  10.697  2.5152 -1.7813  2.5629
 6819TIP3    H241873   4.579   1.259  10.789 -1.2848  1.9382  0.0464
 6820TIP3   OH241874   4.676   0.034   5.860 -0.0949  0.3738 -0.3150
 6820TIP3    H141875   4.707  -0.038   5.916 -0.5939  0.7375  0.4439
 6820TIP3    H241876   4.756   0.070   5.821  0.3916  0.8762  1.1051
 6821TIP3   OH241877   2.430   6.175   2.917 -0.2958  0.0945 -0.3669
 6821TIP3    H141878   2.347   6.212   2.947  0.8510 -0.0997  3.2891
 6821TIP3    H241879   2.409   6.086   2.891 -1.2721  0.1214  0.3015
 6822TIP3   OH241880   5.826   4.051   3.181 -0.3270 -0.4572 -0.0297
 6822TIP3    H141881   5.822   3.956   3.191  2.0533 -0.3877  2.1548
 6822TIP3    H241882   5.754   4.084   3.235  1.8251 -0.8783  3.2538
 6823TIP3   OH241883   6.737   0.530   5.344 -0.0919  0.8097 -1.0935
 6823TIP3    H141884   6.727   0.559   5.435  1.0150  1.5638 -1.1999
 6823TIP3    H241885   6.707   0.605   5.292 -1.0864  0.2377 -1.3577
 6824TIP3   OH241886   0.464   2.096   6.627 -0.0194 -0.5643 -0.3492
 6824TIP3    H141887   0.449   2.003   6.642  1.4159 -0.6844  0.4542
 6824TIP3    H241888   0.557   2.102   6.606  0.0383  0.7488  0.2212
 6825TIP3   OH241889   3.264   0.539  15.537  0.4157  0.3651 -0.2800
 6825TIP3    H141890   3.216   0.595  15.476 -0.1660 -1.3320 -1.4420
 6825TIP3    H241891   3.281   0.459  15.486 -0.1934 -1.1454  1.8165
 6826TIP3   OH241892   4.692   3.518  16.424 -0.2932  0.1720  0.4867
 6826TIP3    H141893   4.728   3.595  16.467  1.1554 -0.1083 -0.2206
 6826TIP3    H241894   4.597   3.527  16.436 -0.0176  0.9233  2.3060
 6827TIP3   OH241895   2.511   2.130  14.220  0.7460 -0.0555 -0.0556
 6827TIP3    H141896   2.566   2.059  14.250  0.5887  0.0743  0.5538
 6827TIP3    H241897   2.485   2.105  14.131  0.8342 -0.6709  0.0907
 6828TIP3   OH241898   3.635   5.236   3.758  0.3356 -0.1012 -0.4162
 6828TIP3    H141899   3.543   5.215   3.741  0.1383  0.8207 -0.5223
 6828TIP3    H241900   3.647   5.323   3.720  1.7645 -1.0254 -2.1650
 6829TIP3   OH241901   4.568   2.312  13.029  0.2542  0.1225  0.7772
 6829TIP3    H141902   4.484   2.336  12.989 -0.1102 -1.1879  0.7196
 6829TIP3    H241903   4.596   2.234  12.980 -0.2809 -1.6240  3.1823
 6830TIP3   OH241904   5.357   3.574   2.367  0.1655 -0.0705  0.6454
 6830TIP3    H141905   5.441   3.615   2.384  0.3500  0.0093 -0.4258
 6830TIP3    H241906   5.306   3.640   2.321 -0.8485  0.2308  2.1566
 6831TIP3   OH241907   0.302   0.332  16.377  0.0085 -0.0768 -0.1390
 6831TIP3    H141908   0.254   0.410  16.352  0.6153  0.7206  1.1446
 6831TIP3    H241909   0.282   0.268  16.308 -3.4783 -0.0332  0.7569
 6832TIP3   OH241910   6.787   2.991   1.865  0.5111  0.5987 -0.2862
 6832TIP3    H141911   6.726   3.000   1.791  1.4012  2.2986 -0.8394
 6832TIP3    H241912   6.781   3.075   1.911  0.8542 -0.0141  0.8888
 6833TIP3   OH241913   5.905   5.580  15.887 -0.0593 -0.1872 -0.5100
 6833TIP3    H141914   5.913   5.488  15.913 -0.7439 -1.0927 -3.3165
 6833TIP3    H241915   5.931   5.581  15.795 -2.6619  1.9581 -1.2737
 6834TIP3   OH241916   0.858   3.964  12.707  0.7719  0.1079  0.6193
 6834TIP3    H141917   0.881   4.056  12.699  0.7741  0.1028  0.5744
 6834TIP3    H241918   0.866   3.929  12.619 -1.1862  0.5243  0.2569
 6835TIP3   OH241919   3.271   4.227  14.180 -0.4679 -0.4502  0.3169
 6835TIP3    H141920   3.327   4.197  14.108 -0.7647 -1.1080  0.3507
 6835TIP3    H241921   3.201   4.162  14.184 -0.3897 -0.4930  1.2797
 6836TIP3   OH241922   5.330   0.703  14.470 -0.4510 -0.2740 -0.0827
 6836TIP3    H141923   5.388   0.628  14.482  1.1952  0.9196 -0.2831
 6836TIP3    H241924   5.365   0.770  14.530 -0.9336  0.8491 -1.0306
 6837TIP3   OH241925   4.408   1.078  15.767 -0.2212 -0.5794  0.1068
 6837TIP3    H141926   4.490   1.106  15.726 -2.1020 -1.4316 -4.6307
 6837TIP3    H241927   4.427   0.991  15.802  1.4107  0.0479  0.8191
 6838TIP3   OH241928   4.313   0.173  13.011 -0.1309  0.1375 -0.6383
 6838TIP3    H141929   4.305   0.261  13.047  1.1448  0.2099 -0.5018
 6838TIP3    H241930   4.223   0.146  12.993 -0.5376  1.4361 -0.6176
 6839TIP3   OH241931   5.580   3.977  16.808  0.1616  0.2704  0.2024
 6839TIP3    H141932   5.602   4.070  16.821  1.0002  0.0239  0.5257
 6839TIP3    H241933   5.484   3.977  16.801  0.2163  1.2728 -0.7304
 6840TIP3   OH241934   3.376   1.939  16.189 -0.1467  0.2932  0.5545
 6840TIP3    H141935   3.283   1.937  16.170 -0.2767  1.0316  1.0693
 6840TIP3    H241936   3.399   1.849  16.211 -0.8628  0.2185  0.9897
 6841TIP3   OH241937   3.096   4.510  16.134  0.2039  0.3705 -0.2947
 6841TIP3    H141938   3.090   4.552  16.048  1.9630  1.6388  0.1537
 6841TIP3    H241939   3.133   4.578  16.190  1.5216 -1.2678  0.8552
 6842TIP3   OH241940   4.144   4.241  16.046 -0.0686  0.1354  0.1732
 6842TIP3    H141941   4.179   4.194  16.121  0.6743  0.0564 -0.2226
 6842TIP3    H241942   4.181   4.329  16.054 -0.0136  0.1354 -0.0864
 6843TIP3   OH241943   3.996   1.192  15.415 -0.2302 -0.1495  0.5899
 6843TIP3    H141944   3.942   1.125  15.456 -2.0137  0.6487 -0.3792
 6843TIP3    H241945   3.949   1.274  15.431 -0.1322  0.3779 -1.5701
 6844TIP3   OH241946   1.488   3.175   2.475  0.2619  0.1785 -0.0453
 6844TIP3    H141947   1.477   3.269   2.486 -0.1320  0.4579 -2.5749
 6844TIP3    H241948   1.569   3.155   2.522  0.8322  1.9403 -0.2345
 6845TIP3   OH241949   6.643   6.070  15.701 -0.1279  0.3380 -0.9071
 6845TIP3    H141950   6.731   6.052  15.734 -0.1161  0.8770 -0.6421
 6845TIP3    H241951   6.620   6.155  15.739 -0.5846  0.4086 -1.3396
 6846TIP3   OH241952   2.546   0.201   4.856 -0.0374 -0.3578 -0.0938
 6846TIP3    H141953   2.562   0.285   4.814 -1.5598 -1.1398 -2.3167
 6846TIP3    H241954   2.468   0.215   4.909 -0.0854 -0.2606 -0.1882
 6847TIP3   OH241955   6.488   3.067  16.644  0.2050 -0.1189 -0.3541
 6847TIP3    H141956   6.432   3.144  16.654 -0.5621 -0.6995 -0.0784
 6847TIP3    H241957   6.553   3.092  16.578  0.8107  1.2440  0.7224
 6848TIP3   OH241958   2.998   0.792  13.695  0.1991  0.0860 -0.4487
 6848TIP3    H141959   3.000   0.820  13.603  0.1691  1.2635 -0.0931
 6848TIP3    H241960   3.075   0.832  13.735  0.2404 -0.4657  0.0340
 6849TIP3   OH241961   2.300   3.940  14.868 -0.2698 -0.2535 -0.6062
 6849TIP3    H141962   2.377   3.945  14.925 -0.5009 -1.7966 -0.1564
 6849TIP3    H241963   2.285   4.031  14.841  1.0679  0.2065  0.1537
 6850TIP3   OH241964   4.799   6.194  12.335 -0.4471 -0.3318 -0.1773
 6850TIP3    H141965   4.820   6.100  12.332 -1.7002 -0.5905 -1.1162
 6850TIP3    H241966   4.719   6.198  12.387 -0.9529  0.1133 -0.9868
 6851TIP3   OH241967   1.331   0.312  11.087  0.4743 -0.6368 -0.4888
 6851TIP3    H141968   1.289   0.304  11.002  0.8055 -1.1440 -0.6100
 6851TIP3    H241969   1.400   0.378  11.075  0.6092 -0.8062 -0.6514
 6852TIP3   OH241970   4.004   2.097   4.688  0.6635 -0.8741  0.1716
 6852TIP3    H141971   4.013   2.183   4.728 -1.3869 -0.3177 -0.5067
 6852TIP3    H241972   4.014   2.113   4.594 -0.1449 -1.2895  0.0083
 6853TIP3   OH241973   4.555   6.267  16.811 -0.2513 -0.6469  0.1562
 6853TIP3    H141974   4.597   6.314  16.740 -1.0413 -1.1004 -0.6271
 6853TIP3    H241975   4.557   6.175  16.784 -2.9480 -0.5395 -0.5680
 6854TIP3   OH241976   4.902   2.112  10.545 -0.4205 -1.3345  0.3581
 6854TIP3    H141977   4.872   2.034  10.498 -0.4394 -1.3628  0.4175
 6854TIP3    H241978   4.840   2.181  10.520  1.7153 -0.3959 -2.6183
 6855TIP3   OH241979   0.540   5.749   2.531  0.0401  0.4055 -0.1291
 6855TIP3    H141980   0.550   5.676   2.592  0.8534  1.8963  1.5300
 6855TIP3    H241981   0.465   5.798   2.565  0.2716  1.0457 -0.5467
 6856TIP3   OH241982   3.236   5.726  11.568 -0.0867  0.1449  0.1388
 6856TIP3    H141983   3.316   5.774  11.545  0.2993 -0.6356 -0.1701
 6856TIP3    H241984   3.184   5.789  11.619  0.8524  0.5541  0.5950
 6857TIP3   OH241985   3.609   2.160  13.774 -0.4793  0.1553  0.0066
 6857TIP3    H141986   3.546   2.103  13.817  1.0478 -1.4546  0.2081
 6857TIP3    H241987   3.614   2.127  13.684 -0.7561  0.9983 -0.3244
 6858TIP3   OH241988   5.457   5.974  11.802 -0.1194 -0.0308  0.2323
 6858TIP3    H141989   5.497   6.036  11.862  0.1051 -0.8129  0.9006
 6858TIP3    H241990   5.410   6.029  11.739  0.8482  0.8421  0.2537
 6859TIP3   OH241991   1.327   3.818  16.151  0.2559 -0.1840 -1.1250
 6859TIP3    H141992   1.255   3.756  16.135 -1.6214  1.7414 -0.3303
 6859TIP3    H241993   1.370   3.785  16.230 -1.7207  0.3699  0.2108
 6860TIP3   OH241994   0.752   5.314   1.632 -0.0100  0.0817  0.2434
 6860TIP3    H141995   0.751   5.386   1.695 -2.2915 -2.1853  2.9364
 6860TIP3    H241996   0.808   5.248   1.674  0.7221 -0.3780 -1.4353
 6861TIP3   OH241997   5.133   3.334   4.754 -0.2886 -0.0981  0.5423
 6861TIP3    H141998   5.213   3.385   4.742 -0.3107 -0.2587 -0.3559
 6861TIP3    H241999   5.115   3.339   4.847  0.7733 -0.0613  0.7524
 6862TIP3   OH242000   2.298   2.224  15.697 -0.1304 -0.0320 -0.6333
 6862TIP3    H142001   2.281   2.155  15.633 -1.1485 -0.0033 -0.3901
 6862TIP3    H242002   2.212   2.260  15.719  0.2221  0.0974  0.5987
 6863TIP3   OH242003   5.797   5.350  13.299 -0.3093 -0.3244 -0.0186
 6863TIP3    H142004   5.872   5.408  13.311  0.3483 -0.9867 -0.8887
 6863TIP3    H242005   5.761   5.375  13.214  0.7032 -1.9792 -0.9672
 6864TIP3   OH242006   3.810   3.200   5.404 -0.0891  0.3917 -0.1239
 6864TIP3    H142007   3.735   3.143   5.393 -1.2819  2.0198 -0.6576
 6864TIP3    H242008   3.825   3.238   5.317  0.7660  0.7866  0.1848
 6865TIP3   OH242009   2.183   3.494   1.453  0.2324 -0.7922 -0.1763
 6865TIP3    H142010   2.234   3.474   1.532  0.6124 -1.0789 -0.4921
 6865TIP3    H242011   2.136   3.574   1.475  2.1914  0.4803 -0.5001
 6866TIP3   OH242012   5.459   3.924   5.019 -0.6816  0.1450  0.2107
 6866TIP3    H142013   5.407   3.914   4.939 -0.3923 -3.1731  0.3569
 6866TIP3    H242014   5.430   3.853   5.076 -0.3530  1.9952  2.8030
 6867TIP3   OH242015   5.983   5.163  15.182  0.8476  0.3951  0.9898
 6867TIP3    H142016   5.954   5.189  15.094  0.3820 -0.9931  0.7211
 6867TIP3    H242017   5.918   5.200  15.241 -1.2489 -2.2235  0.4355
 6868TIP3   OH242018   0.033   0.597   1.140 -0.2729  0.0076  0.3945
 6868TIP3    H142019  -0.039   0.533   1.145 -0.8871  0.5967 -0.8494
 6868TIP3    H242020  -0.003   0.676   1.179  0.2788 -0.2008  1.3436
 6869TIP3   OH242021   0.105   2.721   4.706  0.1320 -0.5506 -0.7287
 6869TIP3    H142022   0.182   2.707   4.761 -0.9377  0.3016  1.0122
 6869TIP3    H242023   0.050   2.644   4.720 -0.4493 -0.0212 -0.0732
 6870TIP3   OH242024   6.240   6.179   3.417 -0.2731 -0.2088  0.1338
 6870TIP3    H142025   6.320   6.147   3.376  0.1925  0.9727  0.1219
 6870TIP3    H242026   6.222   6.115   3.486 -0.3459 -1.4833 -1.0455
 6871TIP3   OH242027   3.727   1.228  14.101 -0.4498  0.2425  0.0495
 6871TIP3    H142028   3.726   1.301  14.164 -1.1873  0.8172 -0.6190
 6871TIP3    H242029   3.708   1.269  14.017  3.1999 -0.1131 -1.0203
 6872TIP3   OH242030   0.364   0.726  15.200  0.2550 -0.5602  0.0579
 6872TIP3    H142031   0.289   0.779  15.174 -0.1481 -0.7662  0.7988
 6872TIP3    H242032   0.427   0.788  15.236  0.4760 -0.3777 -0.6349
 6873TIP3   OH242033   3.660   4.716   3.938  0.3324  0.6770 -0.2775
 6873TIP3    H142034   3.673   4.634   3.986 -0.9007  0.4926 -0.2428
 6873TIP3    H242035   3.566   4.720   3.923  0.4975  1.6187 -1.1214
 6874TIP3   OH242036   5.947   4.096   0.452  0.2556  0.0240  0.2514
 6874TIP3    H142037   6.026   4.151   0.460 -0.2423  0.7291  0.3757
 6874TIP3    H242038   5.880   4.144   0.500  0.0846 -1.2371  1.2912
 6875TIP3   OH242039   1.034   2.797   0.252 -0.4078 -0.0443 -0.0428
 6875TIP3    H142040   0.946   2.796   0.214  0.3715 -2.4040 -1.9253
 6875TIP3    H242041   1.090   2.765   0.182  1.6510 -0.6045  1.8119
 6876TIP3   OH242042   3.889   2.174   1.546 -0.0882 -0.3016 -0.0048
 6876TIP3    H142043   3.882   2.082   1.571  1.4427 -0.4908 -0.2604
 6876TIP3    H242044   3.975   2.182   1.506 -0.3551  1.1699 -0.3107
 6877TIP3   OH242045   5.506   5.534  13.278  0.2023 -0.4417 -0.4836
 6877TIP3    H142046   5.502   5.440  13.264 -2.0629 -0.1544 -1.9605
 6877TIP3    H242047   5.506   5.572  13.191  1.6292  0.9501  0.0873
 6878TIP3   OH242048   0.228   0.648   5.225  0.6669  0.2858 -0.5805
 6878TIP3    H142049   0.155   0.586   5.230  0.0526  0.8560 -2.2958
 6878TIP3    H242050   0.214   0.707   5.299 -1.1392  0.9255 -1.3799
 6879TIP3   OH242051   3.924   0.272   4.434  0.0954  0.6499  0.5421
 6879TIP3    H142052   3.976   0.338   4.387 -1.9639  0.9878 -1.3222
 6879TIP3    H242053   3.873   0.323   4.497 -1.6402  0.8707 -1.0323
 6880TIP3   OH242054   1.704   3.443   1.681  0.0328 -0.4502 -0.4614
 6880TIP3    H142055   1.791   3.407   1.700  1.5284  3.1753 -0.0619
 6880TIP3    H242056   1.678   3.400   1.599  2.3403 -1.3946 -0.7287
 6881TIP3   OH242057   4.519   5.379  14.857  0.3189 -0.2323  0.3822
 6881TIP3    H142058   4.428   5.369  14.884 -0.2128  0.4292 -1.1187
 6881TIP3    H242059   4.521   5.347  14.767  1.5381 -0.0667  0.3405
 6882TIP3   OH242060   5.189   2.734   2.330  0.2436 -0.1285 -0.2438
 6882TIP3    H142061   5.266   2.790   2.332 -0.7066  1.1974 -0.4455
 6882TIP3    H242062   5.173   2.711   2.422 -0.3782  1.3344  0.0144
 6883TIP3   OH242063   1.663   1.113   2.496  0.4031  0.3144  0.0843
 6883TIP3    H142064   1.740   1.065   2.464 -0.3387 -0.6157 -0.3330
 6883TIP3    H242065   1.693   1.153   2.577  1.5356  0.5322 -0.4171
 6884TIP3   OH242066   6.236   2.222  13.572 -0.0568 -0.2488 -0.1996
 6884TIP3    H142067   6.262   2.129  13.571  0.4660 -0.1141  0.5269
 6884TIP3    H242068   6.225   2.243  13.665 -3.3161 -0.4392 -0.4711
 6885TIP3   OH242069   0.777   6.006  16.892  0.4282  0.0593 -0.4714
 6885TIP3    H142070   0.722   6.075  16.856  0.6423  0.6077  0.2537
 6885TIP3    H242071   0.776   5.938  16.825 -1.2626 -0.0061 -0.4036
 6886TIP3   OH242072   2.412   6.590   0.377  0.3740  0.5130  0.0661
 6886TIP3    H142073   2.401   6.585   0.282 -0.5177 -0.9418  0.2195
 6886TIP3    H242074   2.402   6.683   0.397 -0.5465  0.6970 -1.1451
 6887TIP3   OH242075   0.694   3.278   4.463  0.3183 -0.5549 -0.6264
 6887TIP3    H142076   0.657   3.265   4.551  0.5211 -0.4469 -0.5248
 6887TIP3    H242077   0.622   3.318   4.413 -0.1154 -1.5183 -0.7812
 6888TIP3   OH242078   4.643   0.724   4.542 -0.3368  0.5746  0.2652
 6888TIP3    H142079   4.712   0.658   4.537  0.0126  1.0981 -2.8799
 6888TIP3    H242080   4.562   0.674   4.530 -0.3954  0.2283  1.9467
 6889TIP3   OH242081   4.914   3.410  14.828 -0.3470  0.3528 -0.3219
 6889TIP3    H142082   4.880   3.499  14.819 -0.4360  0.3525  0.0008
 6889TIP3    H242083   4.968   3.414  14.907  0.1211  0.2671 -0.6303
 6890TIP3   OH242084   3.056   3.450  16.962  0.0894  0.6974 -0.0228
 6890TIP3    H142085   3.076   3.474  16.872  2.7573 -1.6136 -0.0866
 6890TIP3    H242086   3.001   3.372  16.955 -0.8059  1.2924  0.3337
 6891TIP3   OH242087   1.639   4.153   3.348  0.3292  0.4528 -0.4123
 6891TIP3    H142088   1.559   4.190   3.309 -0.7768 -1.0053  0.3955
 6891TIP3    H242089   1.622   4.059   3.351  1.7789  0.2058  0.4982
 6892TIP3   OH242090   2.290   3.715   4.021 -0.5491 -0.1619  0.3993
 6892TIP3    H142091   2.349   3.775   4.067 -1.1445  0.0569  0.8784
 6892TIP3    H242092   2.234   3.771   3.968 -0.1435 -0.3879 -0.2780
 6893TIP3   OH242093   5.675   0.168   6.547 -0.1523  0.1142 -0.4252
 6893TIP3    H142094   5.738   0.131   6.608 -0.1108  1.6245  0.4597
 6893TIP3    H242095   5.721   0.168   6.463  1.0559  1.2656  0.2233
 6894TIP3   OH242096   0.825   4.140   2.806  0.5829  0.0348 -0.1789
 6894TIP3    H142097   0.892   4.204   2.786  1.1828  0.0478  1.7632
 6894TIP3    H242098   0.866   4.080   2.868 -1.8265  1.3592  2.8511
 6895TIP3   OH242099   4.549   5.707   3.596  0.5329 -0.1769  0.5229
 6895TIP3    H142100   4.536   5.760   3.675  2.1216  0.6367  0.2675
 6895TIP3    H242101   4.598   5.631   3.627  1.7144  0.4550  0.2229
 6896TIP3   OH242102   4.901   0.106  15.783 -0.2832 -0.7213 -1.0625
 6896TIP3    H142103   4.841   0.173  15.816  0.0274 -0.4087 -1.1304
 6896TIP3    H242104   4.880   0.029  15.835 -1.1515 -0.7845 -1.4886
 6897TIP3   OH242105   4.787   3.158  13.753  0.0423  0.4408  0.4098
 6897TIP3    H142106   4.835   3.132  13.675 -0.7463 -0.1186  0.1063
 6897TIP3    H242107   4.810   3.250  13.766  1.2426  0.1609  0.3112
 6898TIP3   OH242108   3.898   6.362   2.071 -0.0876  0.2022  0.5049
 6898TIP3    H142109   3.955   6.319   2.008 -0.9685 -0.2979  0.0518
 6898TIP3    H242110   3.940   6.447   2.086 -0.7125  0.9727 -1.9489
 6899TIP3   OH242111   4.699   2.098  14.286 -0.2355 -0.0751  0.2282
 6899TIP3    H142112   4.618   2.122  14.330  0.6202  0.7975  1.3661
 6899TIP3    H242113   4.671   2.054  14.205 -1.8192  1.1164  0.1180
 6900TIP3   OH242114   4.321   1.179  14.007 -0.4481 -0.2559  0.9031
 6900TIP3    H142115   4.389   1.118  13.980 -0.8341  0.1882 -1.2035
 6900TIP3    H242116   4.351   1.213  14.091  1.3376 -0.9450  0.5691
 6901TIP3   OH242117   3.735   6.025  16.643  0.3003 -0.1114 -0.7750
 6901TIP3    H142118   3.775   5.976  16.715 -0.2287 -1.8012 -1.6075
 6901TIP3    H242119   3.805   6.083  16.612  1.2664 -1.0775 -0.4478
 6902TIP3   OH242120   6.649   4.588  12.909 -0.3276 -0.0776 -0.5745
 6902TIP3    H142121   6.598   4.611  12.987 -1.4896 -0.6597 -1.1578
 6902TIP3    H242122   6.637   4.493  12.900  0.2823 -0.1032 -1.1220
 6903TIP3   OH242123   5.566   5.983  14.561  0.1131  0.2949  0.1731
 6903TIP3    H142124   5.648   6.026  14.535  0.6471 -1.1961 -0.6928
 6903TIP3    H242125   5.582   5.890  14.545 -1.6784 -0.0340  0.2161
 6904TIP3   OH242126   1.820   1.141   4.117  0.5104 -0.3894  0.1136
 6904TIP3    H142127   1.809   1.080   4.044  1.9483  1.1134 -1.3899
 6904TIP3    H242128   1.914   1.142   4.134  0.5090  1.4319  0.1049
 6905TIP3   OH242129   3.482   3.715   6.224 -0.2100 -0.2180 -0.4940
 6905TIP3    H142130   3.449   3.800   6.195 -1.0088 -0.7805 -1.2306
 6905TIP3    H242131   3.577   3.720   6.208 -0.2110  0.6261 -0.2878
 6906TIP3   OH242132   3.849   2.992  14.404 -0.3828  0.0597  0.3658
 6906TIP3    H142133   3.917   2.987  14.338 -1.6820  1.2184 -1.0716
 6906TIP3    H242134   3.797   2.912  14.391  0.1361 -0.3785  0.8902
 6907TIP3   OH242135   6.091   0.645  15.603  0.5699 -0.2566 -0.1334
 6907TIP3    H142136   6.057   0.556  15.608 -0.9527  0.3190 -0.0053
 6907TIP3    H242137   6.032   0.690  15.543  1.4865  0.5915 -0.4038
 6908TIP3   OH242138   5.685   1.563  13.681  0.4790  0.3727  0.2124
 6908TIP3    H142139   5.766   1.537  13.725  1.5105  3.0511 -0.0154
 6908TIP3    H242140   5.618   1.507  13.719  2.1264 -0.6189  1.7460
 6909TIP3   OH242141   3.001   1.789  12.093 -0.2584 -0.0398  0.6146
 6909TIP3    H142142   3.060   1.864  12.089 -1.1113  0.6164  0.1200
 6909TIP3    H242143   3.055   1.717  12.127  1.6275 -0.2563 -2.6549
 6910TIP3   OH242144   5.463   4.981  14.880 -0.1582 -0.1127  0.0004
 6910TIP3    H142145   5.474   4.891  14.849 -1.7607 -0.2995 -0.0716
 6910TIP3    H242146   5.370   5.001  14.865 -0.3957  0.6966  2.2941
 6911TIP3   OH242147   4.074   3.537  15.487 -0.0387  0.2904 -1.0551
 6911TIP3    H142148   4.008   3.578  15.543 -0.1677  0.3499 -1.2479
 6911TIP3    H242149   4.157   3.552  15.532 -0.2323 -0.4104 -0.4444
 6912TIP3   OH242150   3.603   0.194  17.158 -0.1261 -0.4240  0.5444
 6912TIP3    H142151   3.526   0.183  17.102 -0.2868 -1.5420  0.9559
 6912TIP3    H242152   3.677   0.167  17.104  0.0695  1.4372 -0.1146
 6913TIP3   OH242153   5.427   0.427   4.592 -0.6328  0.2558  0.3374
 6913TIP3    H142154   5.517   0.450   4.615  0.1303 -0.7215 -1.6030
 6913TIP3    H242155   5.403   0.357   4.653 -1.1198  2.4904  2.7668
 6914TIP3   OH242156   4.569   2.866  12.748  0.1229 -0.0827  0.1461
 6914TIP3    H142157   4.554   2.807  12.821  1.3902 -0.9771 -0.3050
 6914TIP3    H242158   4.498   2.847  12.687  0.6372 -1.2902 -0.0901
 6915TIP3   OH242159   2.454   6.328   1.275 -0.2341 -0.2720 -0.5005
 6915TIP3    H142160   2.473   6.284   1.193  0.5700 -0.2929 -0.3098
 6915TIP3    H242161   2.375   6.285   1.308  0.0801 -1.0210 -0.7158
 6916TIP3   OH242162   1.046   4.238   6.371  0.4543  0.3668  0.0530
 6916TIP3    H142163   1.016   4.326   6.396 -1.0412 -0.3565  0.8470
 6916TIP3    H242164   1.095   4.207   6.447  0.2459  0.1658  0.1041
 6917TIP3   OH242165   3.464   6.553   1.382 -0.1460  0.0275 -0.3317
 6917TIP3    H142166   3.438   6.503   1.304 -1.9945  0.0808  0.2332
 6917TIP3    H242167   3.549   6.590   1.359 -0.7336  0.1550 -2.3921
 6918TIP3   OH242168   3.319   5.240   2.765  0.0349  0.0535 -0.4760
 6918TIP3    H142169   3.302   5.236   2.671  0.3670 -1.0174 -0.4948
 6918TIP3    H242170   3.371   5.320   2.776  1.4756 -0.7250 -1.4480
 6919TIP3   OH242171   4.283   0.591   2.531  0.6907  0.2133 -0.1233
 6919TIP3    H142172   4.187   0.582   2.530  0.8680 -1.8398 -0.3006
 6919TIP3    H242173   4.298   0.680   2.564 -1.2924  0.9382 -1.0972
 6920TIP3   OH242174   1.220   1.107   2.932 -0.0429  0.4184 -0.0023
 6920TIP3    H142175   1.229   1.013   2.949 -0.8395  0.6221  1.6754
 6920TIP3    H242176   1.283   1.147   2.991  0.1638  0.9543 -0.5890
 6921TIP3   OH242177   1.761   0.265   1.168  0.3854 -0.2519  0.0418
 6921TIP3    H142178   1.676   0.239   1.133  2.8026 -2.3508 -4.6870
 6921TIP3    H242179   1.806   0.183   1.187  2.3135  0.7438 -0.0105
 6922TIP3   OH242180   1.568   5.562   5.364  0.0843  0.1969 -0.4384
 6922TIP3    H142181   1.489   5.563   5.310  0.8508  0.9306 -1.5425
 6922TIP3    H242182   1.640   5.578   5.303  1.0164  0.3539  0.6844
 6923TIP3   OH242183   3.359   2.706  17.076 -0.3150  0.0965  0.6565
 6923TIP3    H142184   3.397   2.793  17.090  0.2636  0.6701 -3.5696
 6923TIP3    H242185   3.397   2.651  17.144  1.5864  2.5235  1.6304
 6924TIP3   OH242186   1.578   2.315  11.333  0.4389 -0.1381 -0.3339
 6924TIP3    H142187   1.565   2.284  11.243  0.9752 -1.1656 -0.0652
 6924TIP3    H242188   1.640   2.388  11.324  1.0895 -0.7320 -0.7220
 6925TIP3   OH242189   3.655   4.671   5.667 -0.4227 -0.1167  0.1567
 6925TIP3    H142190   3.745   4.643   5.649 -0.4026 -0.1586  0.3243
 6925TIP3    H242191   3.614   4.675   5.580  0.1105  1.1591 -0.0569
 6926TIP3   OH242192   3.410   3.601   5.627  0.5477 -0.4487  0.2932
 6926TIP3    H142193   3.438   3.579   5.716 -0.7520 -0.3838  0.7294
 6926TIP3    H242194   3.346   3.534   5.604  0.3398 -0.0456 -0.3199
 6927TIP3   OH242195   0.611   2.229   2.340 -0.4593 -0.0409  0.2070
 6927TIP3    H142196   0.658   2.270   2.267 -3.2958  1.2978 -0.9506
 6927TIP3    H242197   0.626   2.135   2.329  0.7234  0.2819 -1.0017
 6928TIP3   OH242198   4.973   5.871   5.292  0.7292 -0.1929  0.7489
 6928TIP3    H142199   4.953   5.864   5.198  0.0899  1.2712  0.7574
 6928TIP3    H242200   4.971   5.781   5.324  1.6464 -0.7829 -0.7807
 6929TIP3   OH242201   3.066   1.614   1.742 -0.1390  0.5374  0.0419
 6929TIP3    H142202   3.070   1.617   1.837 -0.8286  0.9796  0.0651
 6929TIP3    H242203   2.972   1.610   1.722 -0.0227  0.9480 -0.6254
 6930TIP3   OH242204   4.056   2.124  14.091  0.1397  0.1766  0.0769
 6930TIP3    H142205   4.020   2.105  14.004 -1.6518 -0.7305  0.9949
 6930TIP3    H242206   3.996   2.189  14.128 -0.4608 -1.2037  1.5548
 6931TIP3   OH242207   2.022   4.734  15.855  0.2864 -0.2768  0.2669
 6931TIP3    H142208   2.016   4.819  15.898  3.4537  0.6200 -0.9186
 6931TIP3    H242209   2.066   4.678  15.919  1.0738 -0.1457 -0.1612
 6932TIP3   OH242210   2.295   6.353   2.695  0.1472  0.1692  0.4323
 6932TIP3    H142211   2.381   6.396   2.696  0.4534 -0.4567  1.1260
 6932TIP3    H242212   2.314   6.262   2.676 -0.4325  0.1602 -0.1184
 6933TIP3   OH242213   4.516   2.091   4.508 -0.2840 -0.0336 -0.5602
 6933TIP3    H142214   4.464   2.034   4.452  0.2322 -1.0637 -0.0012
 6933TIP3    H242215   4.556   2.032   4.572 -0.7969  1.1177  0.8437
 6934TIP3   OH242216   5.352   1.330   6.295 -0.4164 -0.0862 -0.5375
 6934TIP3    H142217   5.348   1.415   6.252  0.5145  0.8384  1.1360
 6934TIP3    H242218   5.349   1.351   6.389  0.5062 -1.8469 -0.1004
 6935TIP3   OH242219   4.305   4.594   3.984  0.9149 -0.2205  0.1695
 6935TIP3    H142220   4.394   4.587   3.948  0.7900 -0.5037 -0.0961
 6935TIP3    H242221   4.265   4.665   3.935  1.3572  0.6591  1.0762
 6936TIP3   OH242222   5.990   5.896   3.706  0.2044  0.1729 -0.5871
 6936TIP3    H142223   6.014   5.857   3.790  1.1355 -0.8990 -1.3290
 6936TIP3    H242224   5.897   5.876   3.696  0.5647 -1.4752 -0.7353
 6937TIP3   OH242225   5.254   5.527   4.944 -0.6452  0.1392  0.1531
 6937TIP3    H142226   5.297   5.452   4.903  0.1084  1.2086 -1.0417
 6937TIP3    H242227   5.243   5.501   5.035  1.0131 -0.8268  0.0991
 6938TIP3   OH242228   1.053   0.068  16.227 -0.0602 -0.0163  1.0882
 6938TIP3    H142229   1.112   0.135  16.191 -1.7863  1.6463  1.2522
 6938TIP3    H242230   1.111   0.005  16.270  1.6555  0.9951  0.2966
 6939TIP3   OH242231   0.610   4.414  16.776 -0.4514 -0.0997 -0.0707
 6939TIP3    H142232   0.533   4.470  16.776  0.0557  0.6383 -1.6435
 6939TIP3    H242233   0.621   4.389  16.684  0.9970 -0.4195  0.1817
 6940TIP3   OH242234   1.615   5.591   1.760  0.1544 -0.1989 -0.4208
 6940TIP3    H142235   1.651   5.605   1.848  1.7030  0.9714 -1.2251
 6940TIP3    H242236   1.600   5.496   1.755  2.5403 -0.6279  0.1699
 6941TIP3   OH242237   1.940   2.357  11.763 -0.5392  0.1238  0.8257
 6941TIP3    H142238   2.010   2.422  11.770  0.2821 -0.6229 -0.4552
 6941TIP3    H242239   1.942   2.312  11.848  1.6395 -1.0189  0.1919
 6942TIP3   OH242240   5.596   2.330  12.887 -0.7705  0.8889  0.2703
 6942TIP3    H142241   5.506   2.325  12.920 -0.0327 -1.7036  1.9643
 6942TIP3    H242242   5.631   2.411  12.926 -1.6745  0.7658  1.3576
 6943TIP3   OH242243   2.328   5.483   4.036  0.1600  0.2284 -0.1296
 6943TIP3    H142244   2.309   5.576   4.049 -1.2697 -0.3720  2.7192
 6943TIP3    H242245   2.259   5.452   3.978 -0.3696  0.6258  0.2798
 6944TIP3   OH242246   3.715   0.533  11.706 -0.0069 -0.1497 -0.1764
 6944TIP3    H142247   3.730   0.566  11.617 -0.7496  0.6156 -0.0256
 6944TIP3    H242248   3.724   0.438  11.698  1.4590  0.0175 -0.7657
 6945TIP3   OH242249   5.129   4.203  14.173 -0.0374  0.6705 -0.3397
 6945TIP3    H142250   5.214   4.162  14.192 -0.5477  0.3371  1.3222
 6945TIP3    H242251   5.129   4.284  14.224 -0.1342  1.3973 -1.4885
 6946TIP3   OH242252   0.825   1.664  13.213 -0.1128  0.7361  0.4049
 6946TIP3    H142253   0.831   1.750  13.255 -0.2813  0.3750  1.1681
 6946TIP3    H242254   0.784   1.608  13.279 -0.4849  0.1955 -0.2845
 6947TIP3   OH242255   2.885   4.269   2.557  0.1641 -0.1625 -0.4806
 6947TIP3    H142256   2.980   4.271   2.551  0.1993 -1.1871 -0.2322
 6947TIP3    H242257   2.864   4.320   2.636  0.3428  2.5844 -2.1504
 6948TIP3   OH242258   1.828   0.691  15.384 -0.4029  0.2252  0.4225
 6948TIP3    H142259   1.919   0.713  15.406  0.1280 -0.1117 -1.3469
 6948TIP3    H242260   1.792   0.656  15.466  1.1947 -0.0713  1.0315
 6949TIP3   OH242261   5.151   4.215   0.390  0.4252  0.0996 -0.0606
 6949TIP3    H142262   5.074   4.204   0.445  0.6942 -1.4003  0.0433
 6949TIP3    H242263   5.136   4.155   0.316  1.2104  0.2441 -0.3445
 6950TIP3   OH242264   2.262   1.317   5.134 -0.8775  0.2023  0.1322
 6950TIP3    H142265   2.330   1.361   5.083 -1.0042 -1.4504 -1.5246
 6950TIP3    H242266   2.294   1.228   5.144 -2.0471 -0.1558  0.7662
 6951TIP3   OH242267   3.758   1.660   1.354 -0.3996  0.5340 -0.1498
 6951TIP3    H142268   3.837   1.710   1.374  0.6377 -0.7719 -0.9534
 6951TIP3    H242269   3.789   1.586   1.303 -2.1614  0.0452 -0.5214
 6952TIP3   OH242270   6.500   1.659  12.933  0.8359  0.1821 -0.6198
 6952TIP3    H142271   6.532   1.695  12.851  1.9037  0.5353 -0.0534
 6952TIP3    H242272   6.417   1.703  12.948  0.0591 -0.7199 -2.0856
 6953TIP3   OH242273   3.848   1.187  11.318  0.9124  0.2304 -0.3687
 6953TIP3    H142274   3.895   1.209  11.238  0.4786  1.1982 -0.3514
 6953TIP3    H242275   3.761   1.161  11.289  0.3996  1.6402 -0.1365
 6954TIP3   OH242276   5.622   5.750  13.394 -0.1831 -0.3685 -0.1943
 6954TIP3    H142277   5.650   5.717  13.479 -1.1156 -2.5377 -0.7026
 6954TIP3    H242278   5.585   5.674  13.349  0.3716  0.7197 -2.5845
 6955TIP3   OH242279   1.946   5.356  14.328  0.1106 -0.0233 -0.5320
 6955TIP3    H142280   2.041   5.364  14.334  0.2069  0.3820 -2.2146
 6955TIP3    H242281   1.921   5.304  14.404  1.7277 -0.5377 -0.3337
 6956TIP3   OH242282   0.286   2.234   3.796  0.4560 -0.2505 -0.6078
 6956TIP3    H142283   0.276   2.233   3.891  3.6021 -2.0961 -0.2355
 6956TIP3    H242284   0.375   2.266   3.781  0.5421 -1.4523 -2.8604
 6957TIP3   OH242285   0.799   0.075   3.118 -0.0517 -0.0980 -0.0332
 6957TIP3    H142286   0.724   0.054   3.172 -0.8435 -0.5207 -1.2733
 6957TIP3    H242287   0.810   0.170   3.127 -0.7544 -0.0296  0.1246
 6958TIP3   OH242288   3.108   4.968   1.803  0.3229 -0.5285 -0.2988
 6958TIP3    H142289   3.100   5.058   1.768  0.7885 -0.5879 -0.5652
 6958TIP3    H242290   3.197   4.964   1.838 -1.2052  0.5820  3.9365
 6959TIP3   OH242291   0.032   4.909  11.127 -0.1422  0.2399 -0.2397
 6959TIP3    H142292   0.065   4.869  11.047  0.3310 -1.5493  0.8347
 6959TIP3    H242293  -0.062   4.893  11.124  0.2198 -2.2495  0.8738
 6960TIP3   OH242294   6.585   0.928   1.068  0.6181 -0.0373  0.4779
 6960TIP3    H142295   6.494   0.935   1.037 -0.0976 -1.7582  2.1116
 6960TIP3    H242296   6.613   1.019   1.078 -1.4705  0.5355  1.4750
 6961TIP3   OH242297   3.627   5.169  14.146  0.2528 -0.2059 -0.2749
 6961TIP3    H142298   3.616   5.125  14.061  1.7868 -0.9826 -0.1002
 6961TIP3    H242299   3.643   5.261  14.123  3.3125 -0.8561 -1.0167
 6962TIP3   OH242300   4.435   0.023   4.370  0.1012 -0.0650  0.0816
 6962TIP3    H142301   4.439  -0.067   4.402 -0.4071  0.4198  1.5199
 6962TIP3    H242302   4.526   0.044   4.348 -0.1567 -1.8720 -2.9990
 6963TIP3   OH242303   4.757   3.221  15.949 -0.3300  0.4379  0.1569
 6963TIP3    H142304   4.837   3.178  15.978  0.2327  0.9674 -0.5669
 6963TIP3    H242305   4.726   3.269  16.026  1.4004  2.2105 -0.2217
 6964TIP3   OH242306   3.583   6.144   3.262 -0.3398  0.2951  0.0500
 6964TIP3    H142307   3.566   6.094   3.343 -0.7517  0.6461  0.1863
 6964TIP3    H242308   3.508   6.204   3.256 -0.4096  0.1346 -0.6983
 6965TIP3   OH242309   6.209   4.359   4.886  0.3230 -0.5177 -0.1857
 6965TIP3    H142310   6.268   4.326   4.955 -0.5289 -0.6884  0.4711
 6965TIP3    H242311   6.130   4.307   4.896  0.3154 -0.7675 -1.5302
 6966TIP3   OH242312   5.104   4.213  16.678  0.2865 -0.7138  0.0346
 6966TIP3    H142313   5.100   4.301  16.639 -1.5315 -0.4032  0.8915
 6966TIP3    H242314   5.162   4.164  16.619 -0.0694  0.5606 -1.4188
 6967TIP3   OH242315   0.042   5.118   5.178 -0.0098 -0.0357  0.6761
 6967TIP3    H142316   0.025   5.042   5.123  2.3831  1.2082 -1.9460
 6967TIP3    H242317   0.117   5.094   5.232  0.1152  0.1017  0.5658
 6968TIP3   OH242318   6.322   5.606   1.069  0.0319 -0.3878  0.0840
 6968TIP3    H142319   6.394   5.543   1.072  1.4915  1.3062  1.9549
 6968TIP3    H242320   6.350   5.678   1.125 -1.9488  1.5994 -1.3695
 6969TIP3   OH242321   5.251   3.493   2.676  0.2910 -0.1362 -0.1365
 6969TIP3    H142322   5.254   3.438   2.754 -0.1499  0.9724  0.6769
 6969TIP3    H242323   5.190   3.563   2.698 -1.1706 -0.7373 -2.0929
 6970TIP3   OH242324   2.877   6.367  11.672 -0.0061 -0.4311 -0.0401
 6970TIP3    H142325   2.840   6.327  11.751 -2.0802 -2.3681 -1.9001
 6970TIP3    H242326   2.813   6.433  11.646  0.0696 -0.6383 -0.7669
 6971TIP3   OH242327   4.758   4.542  12.621  0.0753 -0.1895 -0.0174
 6971TIP3    H142328   4.789   4.582  12.702  1.1902  2.3496 -1.6561
 6971TIP3    H242329   4.834   4.498  12.585  0.8722  2.7851 -2.0916
 6972TIP3   OH242330   1.441   1.206   0.037  0.3812 -0.0710 -0.1598
 6972TIP3    H142331   1.432   1.260  -0.042 -0.7315 -1.4797 -1.0257
 6972TIP3    H242332   1.406   1.121   0.011 -1.1472 -0.2102  2.2221
 6973TIP3   OH242333   2.351   2.322  12.525 -0.1284 -0.5896  0.2428
 6973TIP3    H142334   2.272   2.335  12.576 -0.5870  0.6392 -0.7630
 6973TIP3    H242335   2.410   2.392  12.553 -0.7485  0.7132 -1.5783
 6974TIP3   OH242336   2.222   5.679   4.642  0.1879  0.8944  0.2359
 6974TIP3    H142337   2.149   5.715   4.591  1.6816  0.5411 -2.1870
 6974TIP3    H242338   2.299   5.727   4.612  1.4499 -0.9079  0.4941
 6975TIP3   OH242339   3.111   4.632   6.187  0.0340 -0.4098  0.4824
 6975TIP3    H142340   3.165   4.555   6.171  0.7645 -0.0245  1.0577
 6975TIP3    H242341   3.069   4.614   6.271 -0.2387 -0.4310  0.3411
 6976TIP3   OH242342   4.463   4.030  13.651  0.7422 -0.6046 -0.4045
 6976TIP3    H142343   4.452   3.946  13.607 -2.8489 -0.2290 -0.3792
 6976TIP3    H242344   4.495   4.008  13.738  1.5547 -1.8020 -0.9978
 6977TIP3   OH242345   6.372   2.152   2.788 -0.2859 -0.1949  0.0662
 6977TIP3    H142346   6.287   2.136   2.747 -0.4225  0.6052  0.0374
 6977TIP3    H242347   6.422   2.071   2.772 -1.0274 -0.6553  0.0672
 6978TIP3   OH242348   0.580   1.203   0.724  0.6436  0.3912  0.3453
 6978TIP3    H142349   0.538   1.288   0.738 -0.4299 -0.3812  1.9424
 6978TIP3    H242350   0.584   1.194   0.629 -1.5164  1.1387  0.1523
 6979TIP3   OH242351   4.137   4.830   2.321 -0.0462 -1.3582  0.4566
 6979TIP3    H142352   4.084   4.875   2.255  0.7914  2.1176  2.0586
 6979TIP3    H242353   4.227   4.835   2.287  0.0179 -2.2137  0.4730
 6980TIP3   OH242354   0.516   3.503   2.673  0.3404 -0.6487  0.0868
 6980TIP3    H142355   0.502   3.418   2.715 -0.9328 -0.9912 -1.0100
 6980TIP3    H242356   0.430   3.528   2.640  1.1012  0.1646 -1.3014
 6981TIP3   OH242357   3.215   1.704  14.082  0.2409 -0.0229  0.1968
 6981TIP3    H142358   3.184   1.795  14.079 -0.7520 -0.3752 -0.7177
 6981TIP3    H242359   3.310   1.711  14.074  0.2103  0.9655  0.5905
 6982TIP3   OH242360   2.754   0.043   0.706  0.5822 -0.4262  0.2107
 6982TIP3    H142361   2.719   0.105   0.769 -1.5642  0.6432 -1.9496
 6982TIP3    H242362   2.823   0.091   0.660  0.8518 -0.5949  0.4308
 6983TIP3   OH242363   2.744   1.420   6.597 -0.3469 -0.3205 -0.6330
 6983TIP3    H142364   2.786   1.351   6.546  0.2658 -0.0826 -0.4577
 6983TIP3    H242365   2.736   1.493   6.536 -0.2018 -0.2551 -0.5752
 6984TIP3   OH242366   4.733   1.870   3.059 -0.1173  0.0284  0.3493
 6984TIP3    H142367   4.803   1.839   3.001 -0.9278 -0.1268 -0.5740
 6984TIP3    H242368   4.685   1.790   3.082 -0.6551  0.2706  0.0701
 6985TIP3   OH242369   1.991   1.557  11.701 -0.2467  0.3300 -0.2597
 6985TIP3    H142370   1.965   1.530  11.612  1.0790  2.1196 -1.2143
 6985TIP3    H242371   1.925   1.517  11.758 -0.6107 -1.5894 -1.9590
 6986TIP3   OH242372   2.816   1.894  16.661  0.1229  0.0236 -0.2883
 6986TIP3    H142373   2.748   1.826  16.661  2.1075 -2.0045  0.1859
 6986TIP3    H242374   2.827   1.917  16.753 -0.7100  1.1845 -0.4686
 6987TIP3   OH242375   2.549   5.155  13.952  0.1255  0.5229 -0.9908
 6987TIP3    H142376   2.561   5.155  14.047 -0.9183 -0.7222 -0.8485
 6987TIP3    H242377   2.477   5.216  13.937 -1.1356 -0.9013 -0.7810
 6988TIP3   OH242378   0.589   2.438   4.713 -0.0057  0.3939  0.0710
 6988TIP3    H142379   0.608   2.413   4.803  1.3464  2.1303  0.3062
 6988TIP3    H242380   0.500   2.408   4.697 -0.5585  0.8212  2.2712
 6989TIP3   OH242381   2.715   5.055  10.901  0.4300  0.5444 -0.1853
 6989TIP3    H142382   2.781   5.019  10.960  0.9111  0.6968 -0.6281
 6989TIP3    H242383   2.646   5.088  10.959  0.1709 -0.7068  0.2465
 6990TIP3   OH242384   1.920   0.309   1.852 -0.6247 -0.3180  0.8181
 6990TIP3    H142385   1.938   0.332   1.943 -1.5059 -0.6390  1.0801
 6990TIP3    H242386   1.825   0.295   1.849 -0.7980  0.9860 -0.4477
 6991TIP3   OH242387   4.118   4.966  15.519  0.4462 -0.2669  0.0254
 6991TIP3    H142388   4.131   4.996  15.429 -1.2308 -0.0938 -0.1705
 6991TIP3    H242389   4.024   4.975  15.534  0.8082  0.4980  2.0713
 6992TIP3   OH242390   2.022   6.067  12.841  0.3369 -0.3062  0.2755
 6992TIP3    H142391   1.959   6.124  12.796  1.0814  0.7245  0.5263
 6992TIP3    H242392   1.996   6.070  12.933 -1.1175 -2.3284 -0.0282
 6993TIP3   OH242393   0.947   4.376  14.442  0.1841  0.7937  0.2318
 6993TIP3    H142394   0.983   4.291  14.418  0.5807  0.1204  3.0729
 6993TIP3    H242395   0.924   4.417  14.358  0.9603 -1.6590 -1.2197
 6994TIP3   OH242396   4.398   1.687   1.487 -0.1381 -0.7737  0.1535
 6994TIP3    H142397   4.315   1.686   1.533 -0.7115 -1.2063 -0.8721
 6994TIP3    H242398   4.421   1.595   1.477 -0.1140 -0.6966 -0.5746
 6995TIP3   OH242399   2.609   3.688   1.925 -0.6210  0.1264  0.2045
 6995TIP3    H142400   2.661   3.764   1.952 -1.6161  1.2685 -1.0358
 6995TIP3    H242401   2.623   3.681   1.831  0.8077 -2.2937  0.5569
 6996TIP3   OH242402   5.179   2.195   2.893 -0.3595 -0.2266 -0.0383
 6996TIP3    H142403   5.118   2.268   2.900  0.1670  0.4521 -2.1448
 6996TIP3    H242404   5.130   2.120   2.926 -0.7981  1.0977  2.4614
 6997TIP3   OH242405   0.217   6.106   4.646 -0.1460 -0.1110 -0.3794
 6997TIP3    H142406   0.152   6.050   4.688  1.0395 -1.1392  0.1250
 6997TIP3    H242407   0.289   6.111   4.709  0.4027  0.7435 -1.0570
 6998TIP3   OH242408   4.071   0.753  11.258 -0.5719 -0.0515 -0.2194
 6998TIP3    H142409   4.104   0.766  11.169 -1.4440 -0.3186 -0.5788
 6998TIP3    H242410   4.081   0.659  11.273  0.9931  0.2087  0.5353
 6999TIP3   OH242411   5.857   2.859   4.503 -0.8242 -0.4526 -0.1729
 6999TIP3    H142412   5.898   2.927   4.556  0.3168 -1.4834  0.2692
 6999TIP3    H242413   5.831   2.792   4.566  1.5290 -2.1840 -1.0066
 7000TIP3   OH242414   3.941   3.609  15.942  0.2057 -0.1492 -0.2243
 7000TIP3    H142415   3.930   3.540  15.876 -0.4825 -1.6576  1.4171
 7000TIP3    H242416   3.988   3.566  16.013 -1.2544  0.7643  1.3128
 7001TIP3   OH242417   1.156   3.652   6.483  0.2709 -0.2070  0.7371
 7001TIP3    H142418   1.248   3.675   6.498  0.6276 -1.2077  0.0767
 7001TIP3    H242419   1.142   3.574   6.536  0.2667 -1.0398 -0.4705
 7002TIP3   OH242420   1.089   0.167   0.326 -0.7762  0.4278 -0.1489
 7002TIP3    H142421   1.057   0.086   0.287 -1.5311  0.5194  0.2564
 7002TIP3    H242422   1.019   0.193   0.387  0.5158  0.1009  1.4993
 7003TIP3   OH242423   3.699   0.917  15.222  0.1723  0.4062  0.5396
 7003TIP3    H142424   3.781   0.867  15.228 -0.2634 -0.3895 -0.0724
 7003TIP3    H242425   3.728   1.006  15.199  0.8127 -0.1211 -0.7604
 7004TIP3   OH242426   2.508   6.056   0.660 -0.7945  0.1604  0.2953
 7004TIP3    H142427   2.558   6.023   0.734 -1.5882  1.2533  1.3498
 7004TIP3    H242428   2.417   6.052   0.689 -1.3060 -1.3355 -1.4064
 7005TIP3   OH242429   5.066   0.957  11.400  0.3202  0.0593 -0.0110
 7005TIP3    H142430   5.044   0.916  11.316 -0.4768  0.0316  0.2100
 7005TIP3    H242431   5.136   0.903  11.436 -1.8392 -2.0928  1.0488
 7006TIP3   OH242432   2.107   2.331   2.780  0.2486  0.1498  0.0108
 7006TIP3    H142433   2.127   2.390   2.708 -3.5726  2.4353  0.6430
 7006TIP3    H242434   2.124   2.382   2.859  0.9503 -1.0711  0.6600
 7007TIP3   OH242435   0.059   5.018   2.586  0.1549 -0.2510  0.4603
 7007TIP3    H142436   0.078   5.030   2.679 -2.2741  0.4070  0.8968
 7007TIP3    H242437   0.114   5.083   2.542  1.0410 -0.3140  1.4360
 7008TIP3   OH242438   0.292   0.922   5.945  0.3178 -0.0814  0.2052
 7008TIP3    H142439   0.231   0.977   5.898 -3.2626 -1.9908  2.3879
 7008TIP3    H242440   0.308   0.968   6.027 -1.1489 -1.2882  1.1982
 7009TIP3   OH242441   0.414   3.901   2.816 -0.4450  0.7877 -0.3816
 7009TIP3    H142442   0.478   3.952   2.766  0.1670  0.0596 -0.3327
 7009TIP3    H242443   0.352   3.869   2.750  0.7803 -0.7969 -0.7776
 7010TIP3   OH242444   1.501   0.499  15.647 -0.0490 -0.4189  0.3114
 7010TIP3    H142445   1.592   0.515  15.670 -0.0185 -0.3981  0.1753
 7010TIP3    H242446   1.488   0.546  15.564 -0.0705 -0.7620  0.1191
 7011TIP3   OH242447   4.595   6.513   1.251 -0.1335  0.3495 -1.0581
 7011TIP3    H142448   4.600   6.604   1.221 -0.2151  0.5332 -0.5254
 7011TIP3    H242449   4.686   6.487   1.263 -0.1520  1.3016  1.5463
 7012TIP3   OH242450   0.932   4.749   0.803 -0.5933 -0.4007  0.3523
 7012TIP3    H142451   0.874   4.700   0.745 -1.4805  2.5754 -1.3875
 7012TIP3    H242452   1.006   4.774   0.748 -1.6954  2.9120  0.2792
 7013TIP3   OH242453   1.494   0.086   2.799 -0.2577 -0.4493 -0.5771
 7013TIP3    H142454   1.525   0.068   2.710  1.9666  1.1539 -0.1784
 7013TIP3    H242455   1.464   0.177   2.795  0.0432 -0.3099  0.3662
 7014TIP3   OH242456   1.459   2.848   5.256 -0.0784  0.1560  0.2626
 7014TIP3    H142457   1.545   2.829   5.219  0.2835 -0.0077  1.1712
 7014TIP3    H242458   1.455   2.944   5.262  0.2137  0.1489  0.6069
 7015TIP3   OH242459   5.196   0.509   0.979 -0.2447 -0.1183 -0.5545
 7015TIP3    H142460   5.198   0.585   1.038  0.7068 -0.0429 -0.6692
 7015TIP3    H242461   5.139   0.536   0.907  0.1032  0.5035 -0.6049
 7016TIP3   OH242462   6.393   5.764   2.490  0.1106 -0.0452  0.1973
 7016TIP3    H142463   6.414   5.751   2.583 -0.0956 -2.4179 -0.0767
 7016TIP3    H242464   6.474   5.797   2.451  0.6905 -0.6283  0.9005
 7017TIP3   OH242465   3.366   4.583   1.148  0.3807  0.4617 -0.4103
 7017TIP3    H142466   3.294   4.522   1.158 -0.4006  1.1870 -1.4743
 7017TIP3    H242467   3.337   4.644   1.080  1.8706  0.9341 -0.6504
 7018TIP3   OH242468   2.165   3.753  13.182  0.0197  0.1854  0.2690
 7018TIP3    H142469   2.258   3.730  13.184 -0.5644 -2.2190  1.9876
 7018TIP3    H242470   2.120   3.669  13.179 -2.1131  1.3441 -1.4791
 7019TIP3   OH242471   0.889   2.204   1.291  0.0053  0.5454  0.8130
 7019TIP3    H142472   0.977   2.190   1.257 -0.3619 -0.2460  0.1663
 7019TIP3    H242473   0.878   2.299   1.292  0.0976  0.5890 -1.1116
 7020TIP3   OH242474   3.200   3.849   3.023  0.0869  0.3129 -0.0769
 7020TIP3    H142475   3.213   3.922   3.084  1.1980  0.1715 -0.1318
 7020TIP3    H242476   3.284   3.803   3.023 -0.6463 -1.0252  0.0301
 7021TIP3   OH242477   4.825   0.225  11.800 -0.2510 -0.5167  0.4804
 7021TIP3    H142478   4.863   0.138  11.810  0.5814 -0.0157  1.6971
 7021TIP3    H242479   4.737   0.217  11.837 -0.1757 -0.8431  0.5928
 7022TIP3   OH242480   1.346   4.542  10.997 -0.4119 -0.0884  0.3565
 7022TIP3    H142481   1.328   4.636  10.996 -1.5188 -0.2945 -2.2285
 7022TIP3    H242482   1.355   4.518  10.905  1.6320 -2.1998  1.0641
 7023TIP3   OH242483   1.498   0.260   1.094  0.2194  0.1805 -0.1178
 7023TIP3    H142484   1.479   0.257   1.188 -0.5286 -0.8614 -0.2922
 7023TIP3    H242485   1.447   0.334   1.062 -1.3132 -0.8265 -0.0761
 7024TIP3   OH242486   2.704   5.687   3.508  0.0177 -0.1077 -0.0513
 7024TIP3    H142487   2.655   5.648   3.580 -1.4456 -0.4144 -1.1914
 7024TIP3    H242488   2.735   5.612   3.457 -0.7208  0.1365 -0.8790
 7025TIP3   OH242489   4.482   2.912   4.342  0.3460  0.0370 -0.1712
 7025TIP3    H142490   4.449   2.891   4.255  1.7399 -0.1793 -0.6503
 7025TIP3    H242491   4.499   3.006   4.339 -2.5707  0.6544  0.8756
 7026TIP3   OH242492   5.135   5.794  11.519 -0.0243 -0.7457  0.1537
 7026TIP3    H142493   5.090   5.768  11.600 -0.4386 -0.4430  0.0164
 7026TIP3    H242494   5.152   5.887  11.530 -0.0261 -0.7187 -0.0858
 7027TIP3   OH242495   2.600   1.368   0.973  0.0037  0.6734 -0.1521
 7027TIP3    H142496   2.665   1.386   0.905  1.3112  0.4385  0.9832
 7027TIP3    H242497   2.526   1.424   0.952  1.0127  1.7438 -0.8833
 7028TIP3   OH242498   3.719   6.443   2.641  0.6951 -0.4672  0.1667
 7028TIP3    H142499   3.759   6.422   2.726  0.1066  1.0802  0.8300
 7028TIP3    H242500   3.793   6.472   2.587  0.5755  2.1031  1.3008
 7029TIP3   OH242501   3.610   4.970   0.074 -0.3016 -0.0367  0.3396
 7029TIP3    H142502   3.528   4.968   0.124 -0.4288 -0.5840  0.1172
 7029TIP3    H242503   3.584   4.950  -0.016  0.0505 -0.0184  0.2339
 7030TIP3   OH242504   1.569   4.264   1.560 -0.6159  0.2071  0.2185
 7030TIP3    H142505   1.495   4.215   1.523 -1.9436  2.8278 -0.6941
 7030TIP3    H242506   1.563   4.248   1.655 -0.6488 -1.8794 -0.1186
 7031TIP3   OH242507   6.198   4.195  15.934 -0.4255  0.1180 -0.6955
 7031TIP3    H142508   6.248   4.265  15.892 -1.1672  1.3994  0.5436
 7031TIP3    H242509   6.114   4.235  15.957 -1.8765 -1.8808 -2.2956
 7032TIP3   OH242510   0.549   5.457   2.361 -0.0750  0.0134  0.6941
 7032TIP3    H142511   0.581   5.510   2.435 -1.4520  1.4158  0.2954
 7032TIP3    H242512   0.454   5.455   2.372 -0.0899 -2.0287  0.4401
 7033TIP3   OH242513   6.511   6.520  13.499 -0.3314 -0.1733 -0.2642
 7033TIP3    H142514   6.581   6.458  13.481  0.1701 -0.1883  1.6482
 7033TIP3    H242515   6.537   6.563  13.581 -1.7134  1.0323 -0.4334
 7034TIP3   OH242516   5.821   1.064  13.112 -0.1525 -0.0234  0.3096
 7034TIP3    H142517   5.823   1.104  13.026 -0.1782 -0.7603 -0.0380
 7034TIP3    H242518   5.740   1.096  13.152 -0.7668 -0.6640 -0.4196
 7035TIP3   OH242519   3.980   4.318  12.317  0.0673  0.0877 -0.2118
 7035TIP3    H142520   3.931   4.317  12.235  0.3895 -0.5782 -0.3983
 7035TIP3    H242521   4.072   4.323  12.290  0.2579 -1.5663  0.0626
 7036TIP3   OH242522   3.190   2.719  15.498  0.0589  0.4309  0.3983
 7036TIP3    H142523   3.102   2.752  15.515  0.3074  0.7165  1.1256
 7036TIP3    H242524   3.227   2.779  15.433 -0.9190 -0.7110 -1.2669
 7037TIP3   OH242525   0.605   3.864  16.922  0.3653 -0.1943  0.3078
 7037TIP3    H142526   0.676   3.808  16.954  0.6267  0.3704  0.7264
 7037TIP3    H242527   0.636   3.953  16.936 -0.8314  0.0706  1.4461
 7038TIP3   OH242528   0.594   0.688  12.153  0.3520 -0.0331 -0.8205
 7038TIP3    H142529   0.675   0.714  12.197 -0.2478  0.7593 -0.1678
 7038TIP3    H242530   0.622   0.664  12.064  1.8404 -3.3939  0.4846
 7039TIP3   OH242531   1.720   0.588   4.684  0.7769  0.2174 -0.7524
 7039TIP3    H142532   1.681   0.528   4.747 -0.2424  0.8575 -0.7578
 7039TIP3    H242533   1.804   0.612   4.722  2.2557 -2.9779 -1.8243
 7040TIP3   OH242534   6.638   2.394   1.143  0.5057  0.4204 -0.3027
 7040TIP3    H142535   6.708   2.356   1.196 -0.3856 -0.0093  0.5993
 7040TIP3    H242536   6.594   2.319   1.102 -0.4138  0.5544  0.4090
 7041TIP3   OH242537   0.810   5.862   5.888  0.2580  0.3045  0.3413
 7041TIP3    H142538   0.732   5.913   5.867  0.6130  0.3744 -0.8204
 7041TIP3    H242539   0.799   5.839   5.981 -0.1192  2.0927  0.7683
 7042TIP3   OH242540   1.660   6.261   2.892 -0.5343 -0.4364 -0.2939
 7042TIP3    H142541   1.710   6.204   2.834  0.6237 -0.8064  1.0264
 7042TIP3    H242542   1.709   6.258   2.975 -0.4125  2.5644 -0.2348
 7043TIP3   OH242543   0.948   2.064  11.539  0.0267  0.5402 -0.1960
 7043TIP3    H142544   0.896   2.142  11.559 -2.7211 -1.4897  0.9594
 7043TIP3    H242545   1.028   2.074  11.590 -0.8884  2.0091  0.9865
 7044TIP3   OH242546   1.292   4.942   5.577 -0.2793 -0.9855  0.4856
 7044TIP3    H142547   1.206   4.906   5.599 -1.4894  1.2774 -0.2991
 7044TIP3    H242548   1.272   5.028   5.540  2.4029 -0.0662  1.1094
 7045TIP3   OH242549   0.206   1.811  16.943 -0.1711  0.1484  0.1924
 7045TIP3    H142550   0.167   1.726  16.966  0.3435  0.1040  0.9173
 7045TIP3    H242551   0.155   1.874  16.995 -2.4258  0.6078 -2.4416
 7046TIP3   OH242552   3.820   3.931  13.669 -0.0769  0.3445 -0.3610
 7046TIP3    H142553   3.843   3.961  13.580  0.2190  2.4579  0.3943
 7046TIP3    H242554   3.902   3.899  13.705  0.1416  0.9696 -0.2943
 7047TIP3   OH242555   1.605   6.610  16.422  0.4270  0.5538 -0.0891
 7047TIP3    H142556   1.624   6.702  16.441 -0.6419  0.5764  0.8982
 7047TIP3    H242557   1.540   6.585  16.487 -0.9618 -0.2737 -1.7736
 7048TIP3   OH242558   2.082   5.241  11.959  0.2395 -0.3400 -0.5369
 7048TIP3    H142559   2.090   5.157  11.914 -1.3855  0.4169 -2.2842
 7048TIP3    H242560   2.172   5.273  11.966  0.7543 -1.6785 -0.8904
 7049TIP3   OH242561   6.737   4.664  16.305  0.3686  0.0109 -0.1988
 7049TIP3    H142562   6.723   4.627  16.393  3.0103  1.1819  0.7832
 7049TIP3    H242563   6.756   4.589  16.250 -0.8883 -0.6962  0.3022
 7050TIP3   OH242564   4.343   2.428   1.239  0.6113 -0.0430  0.9316
 7050TIP3    H142565   4.247   2.423   1.231  0.5031  4.1165 -2.0142
 7050TIP3    H242566   4.358   2.494   1.306  1.2361  3.3713 -2.3765
 7051TIP3   OH242567   4.415   4.924  11.996  0.6267  0.4331  0.4101
 7051TIP3    H142568   4.451   4.861  11.933  1.6068 -0.3756  1.7726
 7051TIP3    H242569   4.328   4.890  12.017  0.7963  0.0237  0.4490
 7052TIP3   OH242570   6.517   2.390   0.042 -0.2855 -0.3032 -0.0372
 7052TIP3    H142571   6.523   2.403  -0.053  1.0138 -1.7774 -0.1795
 7052TIP3    H242572   6.433   2.345   0.054  0.3306 -1.6781 -0.6970
 7053TIP3   OH242573   5.224   0.402   1.565 -0.3481 -0.2443 -0.2952
 7053TIP3    H142574   5.241   0.459   1.491  1.0241 -0.6067 -0.2683
 7053TIP3    H242575   5.300   0.344   1.569 -0.1241  0.1467  1.7323
 7054TIP3   OH242576   3.354   1.948   1.099 -0.3576  0.9417  0.4723
 7054TIP3    H142577   3.327   1.860   1.126  1.5862  0.1086 -0.1909
 7054TIP3    H242578   3.449   1.942   1.089 -0.3911  2.6637 -1.2319
 7055TIP3   OH242579   5.822   4.433   5.030 -0.1119  0.0687 -0.3273
 7055TIP3    H142580   5.858   4.375   4.963  0.0002 -0.0715 -0.1465
 7055TIP3    H242581   5.884   4.506   5.034  0.2203 -0.2316  0.0689
 7056TIP3   OH242582   3.123   5.005   4.475  0.0003  0.4704  0.0868
 7056TIP3    H142583   3.208   5.025   4.436 -0.6646  0.8473 -1.2398
 7056TIP3    H242584   3.073   4.965   4.403 -1.0258  0.5272  0.7594
 7057TIP3   OH242585   2.162   3.926   3.466  0.0491 -0.0078 -0.2078
 7057TIP3    H142586   2.231   3.992   3.470  0.3901 -0.3331 -0.7583
 7057TIP3    H242587   2.195   3.854   3.520 -0.1759  0.1276  0.1150
 7058TIP3   OH242588   6.195   4.487   0.139 -0.7821 -0.3265 -0.2376
 7058TIP3    H142589   6.169   4.425   0.072  0.1760  0.7077 -1.5933
 7058TIP3    H242590   6.277   4.453   0.174 -0.7882 -0.3665 -0.2633
 7059TIP3   OH242591   6.677   6.085  11.216  0.2685  0.0138  0.7796
 7059TIP3    H142592   6.616   6.129  11.275  0.6884  1.0470  0.4457
 7059TIP3    H242593   6.700   6.151  11.151  2.8206  0.0460  1.6842
 7060TIP3   OH242594   2.666   3.351  14.337  0.3495 -0.4681  0.2517
 7060TIP3    H142595   2.643   3.378  14.426 -1.1819 -1.9175  0.3265
 7060TIP3    H242596   2.688   3.258  14.346 -0.2667 -0.7323 -0.9767
 7061TIP3   OH242597   4.015   6.183   1.328  0.2431  0.0881  0.4600
 7061TIP3    H142598   3.925   6.214   1.332 -1.0135 -3.5484  1.6152
 7061TIP3    H242599   4.024   6.146   1.241  0.5924  0.2991  0.4041
 7062TIP3   OH242600   0.253   3.141   2.836 -0.1654  0.4358  0.5107
 7062TIP3    H142601   0.232   3.180   2.751  3.0686 -0.2845 -0.6960
 7062TIP3    H242602   0.218   3.052   2.830  0.2544  0.3069 -0.1777
 7063TIP3   OH242603   4.021   1.826   5.848  0.8421  0.5625 -0.0421
 7063TIP3    H142604   3.984   1.825   5.937 -2.4190 -1.2682 -1.3190
 7063TIP3    H242605   4.035   1.918   5.829 -1.9349  1.2830  1.0597
 7064TIP3   OH242606   6.488   5.184   5.160  0.4355 -0.0789 -1.1498
 7064TIP3    H142607   6.394   5.194   5.177  0.4830  0.1837 -1.0329
 7064TIP3    H242608   6.511   5.102   5.203  0.7958  1.1629  1.1183
 7065TIP3   OH242609   5.189   6.287  10.683 -0.8849  0.8659  0.1039
 7065TIP3    H142610   5.235   6.204  10.670  0.6471  1.6479  0.3508
 7065TIP3    H242611   5.164   6.314  10.595 -0.5165  0.6179 -0.0792
 7066TIP3   OH242612   1.726   0.193   6.640 -0.4960 -0.4590  0.3278
 7066TIP3    H142613   1.788   0.121   6.646  0.0856 -0.2730 -2.7529
 7066TIP3    H242614   1.701   0.210   6.731  3.0149 -1.3175  1.5346
 7067TIP3   OH242615   3.716   2.223   5.811  0.0871 -0.3676 -0.2023
 7067TIP3    H142616   3.719   2.319   5.810 -0.8940 -0.2951  1.3602
 7067TIP3    H242617   3.633   2.202   5.853 -0.1113 -1.9209 -1.3495
 7068TIP3   OH242618   0.727   5.003   4.103 -0.5224 -0.4183 -0.8749
 7068TIP3    H142619   0.655   4.951   4.138 -2.7643  0.9005 -3.3463
 7068TIP3    H242620   0.707   5.093   4.129 -0.7318  0.1948 -3.0825
 7069TIP3   OH242621   3.955   6.085   5.996  0.3325 -0.0044 -0.1111
 7069TIP3    H142622   3.916   6.128   6.072 -1.2174 -1.1558 -0.2264
 7069TIP3    H242623   3.977   6.156   5.936  2.1699  0.9760  1.6522
 7070TIP3   OH242624   6.644   2.549  11.481 -0.2959  0.0004  0.4666
 7070TIP3    H142625   6.589   2.476  11.507 -1.6820  0.8514 -0.0109
 7070TIP3    H242626   6.632   2.614  11.551  0.8049 -0.1553  0.8123
 7071TIP3   OH242627   4.997   4.425   3.403  0.7001  0.0816  0.1827
 7071TIP3    H142628   4.962   4.500   3.450  0.4798  0.3392 -0.3828
 7071TIP3    H242629   5.018   4.361   3.471  0.1346  0.3435  0.6058
 7072TIP3   OH242630   4.218   2.094  12.556 -0.4521  0.2519  0.4474
 7072TIP3    H142631   4.216   2.018  12.614 -1.2093 -1.1482 -1.3846
 7072TIP3    H242632   4.127   2.113  12.537 -0.2370  1.2159  0.3411
 7073TIP3   OH242633   2.168   4.289   2.245 -0.0445  0.0321  0.0565
 7073TIP3    H142634   2.210   4.342   2.312 -1.0744 -0.8318  1.4110
 7073TIP3    H242635   2.227   4.215   2.233  0.5787  0.6398 -0.6377
 7074TIP3   OH242636   4.669   3.468  13.416  0.0220 -0.4079  0.1625
 7074TIP3    H142637   4.761   3.469  13.443  0.7531 -1.4922 -2.1562
 7074TIP3    H242638   4.634   3.387  13.454 -0.2966  0.5791  2.0052
 7075TIP3   OH242639   0.215   0.778   5.476 -0.0492 -0.4141  0.6770
 7075TIP3    H142640   0.171   0.858   5.448  0.5248 -0.1777  0.4447
 7075TIP3    H242641   0.302   0.806   5.502  0.4295 -1.0807 -0.1850
 7076TIP3   OH242642   4.093   2.629   2.446 -0.1677 -0.2031 -0.6400
 7076TIP3    H142643   3.999   2.625   2.463  0.0689 -0.8449  0.5546
 7076TIP3    H242644   4.099   2.660   2.355 -1.5360 -0.6652 -0.9093
 7077TIP3   OH242645   5.442   3.131   3.216 -0.4676 -0.2834 -0.0830
 7077TIP3    H142646   5.441   3.055   3.159  3.0156  1.9193 -3.2685
 7077TIP3    H242647   5.529   3.131   3.256 -0.0128  2.5386 -0.9585
 7078TIP3   OH242648   1.802   2.614  14.893  0.0594  0.8178 -0.5649
 7078TIP3    H142649   1.730   2.564  14.853  0.2237 -1.5026  1.9124
 7078TIP3    H242650   1.783   2.613  14.987  1.4315  3.3254 -0.2221
 7079TIP3   OH242651   3.047   2.044  11.780  0.3313  0.2786  0.1134
 7079TIP3    H142652   3.008   2.125  11.746 -1.9838 -0.7706  0.1097
 7079TIP3    H242653   2.971   1.986  11.795  1.8750 -1.6268  0.7757
 7080TIP3   OH242654   6.061   4.984  15.372  0.3195  0.2185 -0.1898
 7080TIP3    H142655   6.047   5.043  15.298  0.9504  0.0972 -0.4138
 7080TIP3    H242656   6.020   4.902  15.345 -0.7720  0.6236  0.2208
 7081TIP3   OH242657   2.180   5.654  12.046  0.0797 -0.7510  0.3344
 7081TIP3    H142658   2.091   5.622  12.063  0.5347 -1.5339  1.2859
 7081TIP3    H242659   2.180   5.676  11.953 -1.0839 -0.8360  0.3067
 7082TIP3   OH242660   3.190   2.010   5.084 -0.0806  0.3841 -0.0781
 7082TIP3    H142661   3.114   2.022   5.142  0.9287 -0.0057  1.3509
 7082TIP3    H242662   3.160   1.945   5.020 -2.1061  2.7640 -1.6647
 7083TIP3   OH242663   4.332   0.261  13.867  0.3619  0.6515  0.2686
 7083TIP3    H142664   4.390   0.337  13.861  1.4617 -0.2300 -0.5507
 7083TIP3    H242665   4.319   0.234  13.776  0.9888 -0.8830  0.6199
 7084TIP3   OH242666   6.543   1.289   4.347  0.3581 -0.0305  0.0118
 7084TIP3    H142667   6.448   1.280   4.345  0.2710  0.8099  0.0499
 7084TIP3    H242668   6.570   1.282   4.255  0.0252  1.9520 -0.2660
 7085TIP3   OH242669   3.830   3.905   4.996  0.5867 -0.1586 -0.1422
 7085TIP3    H142670   3.868   3.949   4.920  0.5707  0.3744  0.1526
 7085TIP3    H242671   3.780   3.833   4.960  0.6276  0.0590 -0.6344
 7086TIP3   OH242672   2.117   3.631  16.450  0.1412  0.0984  0.1586
 7086TIP3    H142673   2.157   3.634  16.363 -1.6901 -0.4148 -0.7184
 7086TIP3    H242674   2.086   3.541  16.459  1.2554 -0.1451  1.7917
 7087TIP3   OH242675   5.560   0.159   0.352 -0.0705  0.2039  0.0670
 7087TIP3    H142676   5.640   0.176   0.402 -0.0718 -1.5556  0.6868
 7087TIP3    H242677   5.524   0.079   0.390 -1.2186  0.0369 -1.3300
 7088TIP3   OH242678   3.732   0.552   3.080  0.3876  0.0345  0.2656
 7088TIP3    H142679   3.674   0.616   3.120 -0.3286  0.2751 -1.1317
 7088TIP3    H242680   3.818   0.594   3.080  0.1286  0.5633  0.3277
 7089TIP3   OH242681   1.914   0.035  14.560 -0.4061 -0.2661  0.1867
 7089TIP3    H142682   1.955   0.070  14.640  0.5987 -1.5351  0.2548
 7089TIP3    H242683   1.961  -0.047  14.544 -3.2230 -2.0061  0.4986
 7090TIP3   OH242684   1.843   4.106  11.244  0.0754  0.0004 -0.0019
 7090TIP3    H142685   1.796   4.172  11.194  0.1100 -0.9369 -1.3050
 7090TIP3    H242686   1.776   4.043  11.270  0.3429 -0.4524 -0.4090
 7091TIP3   OH242687   5.912   2.158  13.409  0.2085  0.0652 -1.0679
 7091TIP3    H142688   5.824   2.121  13.421  0.7153 -0.5352  1.1422
 7091TIP3    H242689   5.968   2.082  13.392  0.6062  0.2092 -0.4414
 7092TIP3   OH242690   1.494   4.414   4.543 -0.5354 -0.0424  0.8107
 7092TIP3    H142691   1.525   4.462   4.467 -0.4094 -1.7651 -0.2418
 7092TIP3    H242692   1.465   4.482   4.604  0.8452  1.4087 -0.1100
 7093TIP3   OH242693   2.524   6.483   5.401 -0.1524  0.2804 -0.7753
 7093TIP3    H142694   2.544   6.453   5.312 -0.3861 -0.8231 -0.4645
 7093TIP3    H242695   2.558   6.413   5.458 -1.5581  0.1601 -0.0735
 7094TIP3   OH242696   6.772   0.680   5.583 -0.2812  0.1136 -0.5615
 7094TIP3    H142697   6.863   0.650   5.583 -0.7728 -1.4347 -0.0119
 7094TIP3    H242698   6.778   0.774   5.567  1.6693  0.6996  2.9928
 7095TIP3   OH242699   0.924   4.102  15.202 -0.0922 -0.2612 -0.2634
 7095TIP3    H142700   0.938   4.007  15.209 -2.3257 -0.5096  1.4020
 7095TIP3    H242701   0.960   4.125  15.116  0.3289 -2.6435 -0.7702
 7096TIP3   OH242702   4.001   2.337   1.735  0.0390  0.4316  0.1034
 7096TIP3    H142703   3.937   2.316   1.667 -1.1472 -0.6309  1.5101
 7096TIP3    H242704   3.952   2.332   1.817  1.7631  0.2884  1.1640
 7097TIP3   OH242705   4.469   3.773   1.197 -0.6528  0.5480  0.4127
 7097TIP3    H142706   4.501   3.820   1.275  0.5475  0.4983 -0.0422
 7097TIP3    H242707   4.471   3.681   1.222  4.9578 -0.0273 -1.3977
 7098TIP3   OH242708   1.545   1.471  15.629  0.2791  0.0597  0.0281
 7098TIP3    H142709   1.582   1.552  15.663  0.6027 -0.4570  0.9321
 7098TIP3    H242710   1.531   1.416  15.707  0.2818 -0.8396 -0.5925
 7099TIP3   OH242711   1.499   2.294  17.217 -0.6943 -0.4384 -0.2872
 7099TIP3    H142712   1.492   2.212  17.265 -0.7768 -0.3970 -0.2270
 7099TIP3    H242713   1.547   2.352  17.276 -0.6431 -0.4413 -0.3256
 7100TIP3   OH242714   6.286   3.164  14.538  0.1909  0.0301 -0.1200
 7100TIP3    H142715   6.269   3.089  14.595  1.9640 -1.1034 -1.0450
 7100TIP3    H242716   6.345   3.219  14.589 -0.0697  0.1608  0.0428
 7101TIP3   OH242717   4.847   1.851  11.748 -0.1767 -0.4715 -0.4306
 7101TIP3    H142718   4.923   1.882  11.797 -0.2287 -1.4972  0.3147
 7101TIP3    H242719   4.881   1.777  11.697 -0.9787 -1.8873  1.0248
 7102TIP3   OH242720   0.583   2.825   4.347  0.2220  0.1900  0.3454
 7102TIP3    H142721   0.639   2.764   4.393  1.0740  1.8768  1.6061
 7102TIP3    H242722   0.507   2.838   4.405  0.2926  0.7048  0.3312
 7103TIP3   OH242723   5.162   6.070  15.885  0.2714 -0.3510  0.2610
 7103TIP3    H142724   5.181   6.151  15.932  3.1309 -0.9220  0.2058
 7103TIP3    H242725   5.239   6.056  15.829 -1.7832 -1.2211 -2.4250
 7104TIP3   OH242726   2.171   4.582  16.672  0.3870 -0.1050 -0.1918
 7104TIP3    H142727   2.153   4.514  16.608  0.4452  1.2361 -1.6623
 7104TIP3    H242728   2.241   4.635  16.633  2.0579 -0.6088  1.9827
 7105TIP3   OH242729   2.225   5.106  14.269  0.1699  0.6993  0.2005
 7105TIP3    H142730   2.236   5.198  14.295  1.8646  0.5890 -0.0633
 7105TIP3    H242731   2.208   5.060  14.351 -1.3527  1.3339  0.2569
 7106TIP3   OH242732   0.507   4.094  14.705  0.0877 -0.0769  0.4610
 7106TIP3    H142733   0.593   4.118  14.671  0.7633 -0.5497  1.8436
 7106TIP3    H242734   0.489   4.158  14.774 -2.2147  2.2010 -2.0893
 7107TIP3   OH242735   1.706   4.507  11.000  0.1868 -0.2507  0.1954
 7107TIP3    H142736   1.727   4.471  10.914 -4.3820 -0.3433 -1.0250
 7107TIP3    H242737   1.729   4.600  10.993  1.2181 -0.5517 -0.5729
 7108TIP3   OH242738   5.472   5.966  16.524  0.7770  0.4393 -0.0908
 7108TIP3    H142739   5.395   5.910  16.516  1.1445 -0.0960  0.0724
 7108TIP3    H242740   5.539   5.908  16.561  0.7918  1.3259  1.2909
 7109TIP3   OH242741   5.608   6.528  16.043  0.3758 -0.8604  0.6489
 7109TIP3    H142742   5.512   6.532  16.051  0.4082  0.7570  0.3896
 7109TIP3    H242743   5.638   6.616  16.066  1.7813 -1.2532  0.3877
 7110TIP3   OH242744   0.854   6.724   5.466  0.0627  0.2135 -0.1621
 7110TIP3    H142745   0.939   6.733   5.510 -0.0109  1.8256 -0.3020
 7110TIP3    H242746   0.870   6.660   5.397  1.6445  1.8098 -1.3156
 7111TIP3   OH242747   5.237   0.464  10.595 -0.1840  0.0791 -0.1261
 7111TIP3    H142748   5.146   0.434  10.590 -0.2059 -0.0378  0.8949
 7111TIP3    H242749   5.287   0.383  10.608  0.0813  0.1310 -0.8028
 7112TIP3   OH242750   0.258   0.250  10.857  0.8520  0.3476 -0.0395
 7112TIP3    H142751   0.290   0.178  10.801 -1.3348  0.5295 -1.5977
 7112TIP3    H242752   0.258   0.326  10.799 -0.8560  0.6755  0.3780
 7113TIP3   OH242753   3.525   5.953  15.052 -0.1873 -0.0497 -0.3172
 7113TIP3    H142754   3.431   5.938  15.042 -0.4587  1.0867  0.4457
 7113TIP3    H242755   3.559   5.953  14.962 -1.5209  3.1978 -0.9060
 7114TIP3   OH242756   1.339   6.189   2.887  0.8250  0.5079  0.1864
 7114TIP3    H142757   1.296   6.252   2.829 -1.1772  0.1754  1.2449
 7114TIP3    H242758   1.408   6.240   2.930  0.9689  1.2834 -0.9394
 7115TIP3   OH242759   1.059   4.559  14.876 -0.4914  0.2344 -0.3807
 7115TIP3    H142760   1.129   4.568  14.811 -0.8401 -0.7581 -0.8979
 7115TIP3    H242761   1.018   4.475  14.856  1.1720 -1.4381  2.8669
 7116TIP3   OH242762   3.442   1.903   3.958  0.8623  0.1658  0.2375
 7116TIP3    H142763   3.351   1.898   3.930  0.5389  0.8811  1.1388
 7116TIP3    H242764   3.477   1.980   3.914  0.6688  0.6322  0.8890
 7117TIP3   OH242765   2.342   4.710  12.248  0.0315  0.5102  0.0181
 7117TIP3    H142766   2.295   4.632  12.219 -1.9610  1.9565 -0.7834
 7117TIP3    H242767   2.353   4.698  12.342 -0.5137 -0.6011 -0.0533
 7118TIP3   OH242768   3.159   6.087  11.926  0.5088  0.2760  0.0535
 7118TIP3    H142769   3.127   6.063  11.839 -0.4726 -0.0993  0.5068
 7118TIP3    H242770   3.082   6.123  11.971  0.3905 -1.7227  1.5601
 7119TIP3   OH242771   6.320   5.946   2.212 -0.1783 -0.6972  0.0295
 7119TIP3    H142772   6.248   5.888   2.239  1.0736 -2.4698 -0.3381
 7119TIP3    H242773   6.380   5.889   2.165  0.7487  1.0846 -0.9858
 7120TIP3   OH242774   5.488   4.844   5.635 -0.3588 -0.1239 -0.0566
 7120TIP3    H142775   5.575   4.877   5.613 -0.7109 -0.0777 -1.3865
 7120TIP3    H242776   5.493   4.825   5.729  0.4915  1.7338  0.3098
 7121TIP3   OH242777   1.232   3.255  12.089 -0.0438  0.4658 -0.1349
 7121TIP3    H142778   1.181   3.270  12.009  0.0577  0.9171 -0.1171
 7121TIP3    H242779   1.169   3.215  12.149 -0.0059 -0.2822 -0.5856
 7122TIP3   OH242780   5.861   4.320  14.467  0.2750 -0.4255 -0.2813
 7122TIP3    H142781   5.945   4.360  14.486 -0.6702  1.3377  0.3619
 7122TIP3    H242782   5.816   4.317  14.552  0.3251 -2.9454 -0.3003
 7123TIP3   OH242783   0.574   5.311  16.574  0.8524 -0.0197 -0.1647
 7123TIP3    H142784   0.480   5.323  16.592  0.8275 -0.7918  0.2858
 7123TIP3    H242785   0.579   5.302  16.479  0.1523 -2.4213 -0.0074
 7124TIP3   OH242786   2.529   3.409   1.984  0.0023  0.0674  0.1226
 7124TIP3    H142787   2.439   3.387   1.960 -0.0948 -0.0514  0.5878
 7124TIP3    H242788   2.544   3.494   1.944 -1.3839  1.5508  2.6085
 7125TIP3   OH242789   5.134   4.315   5.167 -0.5617  0.0032 -0.2596
 7125TIP3    H142790   5.210   4.257   5.165  0.1925  0.9682  0.4030
 7125TIP3    H242791   5.130   4.347   5.257 -1.0166  0.9461 -0.6094
 7126TIP3   OH242792   0.999   3.473  14.576  0.2886  0.8568  0.1232
 7126TIP3    H142793   0.919   3.428  14.546 -0.0154  1.5535 -0.1188
 7126TIP3    H242794   1.047   3.492  14.495  1.5581 -1.1396  0.3871
 7127TIP3   OH242795   4.952   2.815   2.862 -0.0659  0.6760  0.2738
 7127TIP3    H142796   4.957   2.760   2.784  0.2296  0.3348  0.5307
 7127TIP3    H242797   4.862   2.846   2.863  0.2522  1.6760 -0.8771
 7128TIP3   OH242798   4.566   6.072   1.483  0.4427 -0.1066  0.7183
 7128TIP3    H142799   4.488   6.017   1.489 -0.5337  1.1618  0.1276
 7128TIP3    H242800   4.532   6.159   1.460  2.2547 -0.3341 -3.3668
 7129TIP3   OH242801   2.176   5.394  11.372  0.2360  0.0346  0.1977
 7129TIP3    H142802   2.113   5.380  11.302 -0.0219  1.7068  0.0682
 7129TIP3    H242803   2.124   5.399  11.452  0.2132  1.1750  0.1207
 7130TIP3   OH242804   5.827   0.155  15.706 -0.2098  0.5923  0.0691
 7130TIP3    H142805   5.897   0.219  15.699 -0.9227  1.3034 -0.8486
 7130TIP3    H242806   5.799   0.159  15.797  0.5064  0.7766  0.2801
 7131TIP3   OH242807   5.587   5.749   3.945  0.4958 -0.2559 -0.7433
 7131TIP3    H142808   5.519   5.817   3.941  0.8349  0.3034  1.9997
 7131TIP3    H242809   5.650   5.774   3.879  0.7375  2.2870  0.3826
 7132TIP3   OH242810   2.880   4.663  16.547 -0.1435  0.0618 -0.3432
 7132TIP3    H142811   2.856   4.612  16.625 -3.0117  0.7727 -0.7054
 7132TIP3    H242812   2.909   4.597  16.484  1.8873 -0.5470  1.1879
 7133TIP3   OH242813   2.697   3.080   3.915  0.1829  0.0802  0.0141
 7133TIP3    H142814   2.692   3.013   3.847  0.8441 -0.4443  0.4820
 7133TIP3    H242815   2.778   3.127   3.897  0.4318 -0.1534  0.5343
 7134TIP3   OH242816   4.851   4.964  11.388 -0.2076  0.2290  0.2939
 7134TIP3    H142817   4.802   5.034  11.431 -1.0827 -1.1377  1.5682
 7134TIP3    H242818   4.937   4.966  11.431 -0.1793  0.6272  0.2172
 7135TIP3   OH242819   3.332   1.260  14.873 -0.4539 -0.0682 -0.6262
 7135TIP3    H142820   3.253   1.206  14.865 -1.6004  1.3955  0.3493
 7135TIP3    H242821   3.314   1.337  14.819 -0.1549  0.7630  0.4267
 7136TIP3   OH242822   3.279   4.648   5.597  0.1838  0.5307 -0.0125
 7136TIP3    H142823   3.312   4.559   5.610 -1.1230  0.2123  1.2382
 7136TIP3    H242824   3.278   4.686   5.685 -1.9559  0.8251 -0.1589
 7137TIP3   OH242825   2.118   1.272   3.653 -0.0505  0.1515 -0.1972
 7137TIP3    H142826   2.182   1.294   3.586 -0.5401 -2.4272 -1.5723
 7137TIP3    H242827   2.036   1.259   3.605 -0.6704 -0.6105  1.0315
 7138TIP3   OH242828   1.512   3.054   3.187 -0.3142 -0.2929  0.1340
 7138TIP3    H142829   1.440   3.008   3.229  0.4096  0.7513  2.6730
 7138TIP3    H242830   1.487   3.061   3.095 -2.8681 -1.0181  0.7399
 7139TIP3   OH242831   0.388   6.380   3.341 -0.3380 -0.3457 -0.0256
 7139TIP3    H142832   0.415   6.423   3.260 -0.6149  0.4993  0.3225
 7139TIP3    H242833   0.422   6.436   3.410 -2.0582  0.1804  0.4211
 7140TIP3   OH242834   3.634   0.280  15.558  0.6938 -0.2443  0.1335
 7140TIP3    H142835   3.568   0.218  15.526  1.3326 -1.0408  0.3501
 7140TIP3    H242836   3.610   0.294  15.650  1.5688 -1.5153  0.5616
 7141TIP3   OH242837   3.654   2.273   6.377  0.2624 -0.2502 -0.1027
 7141TIP3    H142838   3.723   2.290   6.313 -0.2607 -3.0462 -1.4463
 7141TIP3    H242839   3.628   2.361   6.407  4.5309  0.8733  0.6659
 7142TIP3   OH242840   5.002   5.922   1.081  0.0172  0.0355  0.1177
 7142TIP3    H142841   4.922   5.886   1.041  0.2552 -1.6734  1.1172
 7142TIP3    H242842   5.022   5.861   1.153  1.0225  1.6314  1.2222
 7143TIP3   OH242843   5.250   1.002   5.342  0.0367 -0.2313  0.1938
 7143TIP3    H142844   5.308   0.927   5.354 -0.2977 -0.7588 -1.4158
 7143TIP3    H242845   5.260   1.026   5.250 -0.8202  0.9039  0.3836
 7144TIP3   OH242846   4.480   0.544   3.696  0.2153  0.0869  0.7778
 7144TIP3    H142847   4.532   0.470   3.728 -0.1034 -0.2771  0.4724
 7144TIP3    H242848   4.430   0.572   3.773 -0.6091 -0.8368  0.5995
 7145TIP3   OH242849   1.900   0.803   2.374 -0.3882  0.6322  0.0344
 7145TIP3    H142850   1.992   0.815   2.397  0.3178 -0.9538 -1.8804
 7145TIP3    H242851   1.872   0.727   2.425  0.1718 -0.6348 -1.5075
 7146TIP3   OH242852   0.983   5.670  12.223  0.4264 -0.2347 -0.0672
 7146TIP3    H142853   0.908   5.619  12.256  0.8652 -1.8241 -1.4284
 7146TIP3    H242854   1.059   5.613  12.237  0.8149 -0.3591 -2.3851
 7147TIP3   OH242855   6.613   0.500  12.959 -0.2752 -0.0605  0.8501
 7147TIP3    H142856   6.576   0.582  12.929 -0.1490 -0.3534 -0.1097
 7147TIP3    H242857   6.606   0.504  13.055  0.5451  1.4521  0.8653
 7148TIP3   OH242858   3.001   6.134   6.345 -0.6117  0.1849  0.1343
 7148TIP3    H142859   3.024   6.211   6.293 -2.4575  0.1804 -0.7257
 7148TIP3    H242860   2.979   6.169   6.431 -0.5236  0.5315  0.0182
 7149TIP3   OH242861   5.870   1.877  16.448  0.0122  0.5160  0.6864
 7149TIP3    H142862   5.876   1.950  16.509  0.4147  1.0667 -0.0163
 7149TIP3    H242863   5.782   1.842  16.462 -0.0564  0.9069  1.2650
 7150TIP3   OH242864   3.584   3.356   3.029 -0.3234 -0.1209  0.1916
 7150TIP3    H142865   3.499   3.399   3.037 -0.8932 -1.2646  0.3946
 7150TIP3    H242866   3.579   3.282   3.089  0.9838  0.0530  0.5327
 7151TIP3   OH242867   4.617   2.646  14.364 -0.0082  0.7102 -0.0089
 7151TIP3    H142868   4.655   2.671  14.280 -1.0339  1.7959 -0.1572
 7151TIP3    H242869   4.553   2.714  14.383 -1.0361 -0.4620  0.8199
 7152TIP3   OH242870   2.856   2.739  13.089  0.9359  0.0648 -0.1269
 7152TIP3    H142871   2.763   2.759  13.100  0.9733  0.4176 -0.4353
 7152TIP3    H242872   2.892   2.816  13.045  1.6833  0.6278  1.4035
 7153TIP3   OH242873   5.740   5.046   3.720 -0.3357  0.3178 -0.2135
 7153TIP3    H142874   5.699   5.095   3.648  0.0657 -0.0212 -0.6812
 7153TIP3    H242875   5.764   5.112   3.784  0.1923  0.7359 -0.8311
 7154TIP3   OH242876   0.794   3.278  17.073  0.3037 -0.1704 -1.3837
 7154TIP3    H142877   0.802   3.325  16.990 -0.8626  0.2184 -1.2848
 7154TIP3    H242878   0.718   3.221  17.060 -0.0516  0.0938 -0.4872
 7155TIP3   OH242879   4.757   4.288   2.944  0.2123  0.2618  0.0686
 7155TIP3    H142880   4.712   4.339   2.877  0.4015  2.0657  1.2688
 7155TIP3    H242881   4.700   4.292   3.020  1.5156  1.0488  1.0365
 7156TIP3   OH242882   1.036   0.116  11.268 -1.0988  0.0052  0.5283
 7156TIP3    H142883   0.984   0.077  11.198 -1.6038 -0.3227  1.0912
 7156TIP3    H242884   1.084   0.187  11.225 -1.0903 -0.4661 -0.2380
 7157TIP3   OH242885   4.127   3.563   4.006  0.0207 -0.1430 -0.0730
 7157TIP3    H142886   4.173   3.646   4.011 -0.2817  0.0729 -0.8071
 7157TIP3    H242887   4.197   3.497   4.007  0.2305  0.0939  1.0934
 7158TIP3   OH242888   3.450   4.245  15.734 -0.3769 -0.0998 -0.2073
 7158TIP3    H142889   3.501   4.213  15.808  0.9297 -1.6639 -1.7312
 7158TIP3    H242890   3.491   4.329  15.712 -0.2233 -0.0357  0.3138
 7159TIP3   OH242891   6.285   3.373  13.200  0.3472 -0.0171 -0.3267
 7159TIP3    H142892   6.291   3.389  13.106  1.5315 -0.2763 -0.3022
 7159TIP3    H242893   6.191   3.372  13.218  0.1126  0.0368 -1.5015
 7160TIP3   OH242894   2.046   3.065  13.363  0.1489  0.0422 -0.3802
 7160TIP3    H142895   2.062   3.142  13.308 -0.2123 -0.5705 -1.3499
 7160TIP3    H242896   1.956   3.039  13.344  0.0761 -0.2914  0.3719
 7161TIP3   OH242897   4.436   2.860  14.964 -0.4415 -0.2361  0.4317
 7161TIP3    H142898   4.446   2.836  14.871 -1.3877  0.5418  0.1255
 7161TIP3    H242899   4.514   2.824  15.006  0.4752  0.2271 -0.8325
 7162TIP3   OH242900   3.481   5.772   2.622  0.1213 -0.6731  0.2070
 7162TIP3    H142901   3.553   5.731   2.670 -0.6478 -1.0687  1.0255
 7162TIP3    H242902   3.409   5.778   2.685 -0.9244 -1.2395 -0.9013
 7163TIP3   OH242903   2.537   4.871   0.038 -0.7739  0.6475  0.4465
 7163TIP3    H142904   2.502   4.848  -0.048  1.0388  2.2699 -0.7722
 7163TIP3    H242905   2.500   4.957   0.057 -0.0131  0.9375  0.6260
 7164TIP3   OH242906   4.805   3.196   3.249  0.2308  0.9511  0.4910
 7164TIP3    H142907   4.729   3.175   3.304  0.3105 -0.4992  0.0592
 7164TIP3    H242908   4.851   3.264   3.297 -0.5886  0.8561  1.4257
 7165TIP3   OH242909   0.733   1.804   6.025  0.8884  0.2271  0.2346
 7165TIP3    H142910   0.713   1.855   6.103  2.2191  1.6430 -0.3310
 7165TIP3    H242911   0.660   1.742   6.017 -0.0338  1.1067  1.7108
 7166TIP3   OH242912   0.123   6.630  17.094 -0.2057  0.8139  0.2286
 7166TIP3    H142913   0.044   6.578  17.079  0.6574 -0.8352  1.2914
 7166TIP3    H242914   0.105   6.679  17.174  0.2173 -0.3360  1.0425
 7167TIP3   OH242915   6.263   1.616   4.187  0.3092 -0.7469 -0.5014
 7167TIP3    H142916   6.227   1.531   4.162 -0.9138 -0.6072  0.7612
 7167TIP3    H242917   6.253   1.620   4.282  1.0575  0.4980 -0.4578
 7168TIP3   OH242918   3.093   1.007  13.540  0.2646 -0.7333  0.0327
 7168TIP3    H142919   3.145   1.075  13.582  0.6103 -0.5444 -0.6949
 7168TIP3    H242920   3.121   1.008  13.448  0.0736 -1.6549 -0.0469
 7169TIP3   OH242921   1.041   0.298   2.889  0.2363 -0.4769  0.1767
 7169TIP3    H142922   0.961   0.321   2.843 -0.1796 -0.3305  0.9710
 7169TIP3    H242923   1.046   0.203   2.882 -0.5025 -0.5744  0.9431
 7170TIP3   OH242924   2.083   3.992  12.587  0.6499  0.2660 -0.4908
 7170TIP3    H142925   2.047   4.081  12.580 -0.3708  0.0002  1.1550
 7170TIP3    H242926   2.130   3.992  12.670 -2.3075 -1.7278  1.2710
 7171TIP3   OH242927   0.905   5.040   0.460 -0.4048  0.1977  0.7021
 7171TIP3    H142928   0.827   5.005   0.417  0.3986 -0.9922  0.1681
 7171TIP3    H242929   0.970   5.044   0.390  0.4438 -0.2140  1.4581
 7172TIP3   OH242930   6.108   2.590   6.192  0.0914  0.1590  0.4144
 7172TIP3    H142931   6.179   2.536   6.225 -0.5594  0.3842  2.2462
 7172TIP3    H242932   6.148   2.643   6.122  1.5168 -0.2684  0.8904
 7173TIP3   OH242933   2.850   1.510  12.119  0.0954 -0.1781  0.0870
 7173TIP3    H142934   2.868   1.436  12.177  1.0074  0.8361  1.1081
 7173TIP3    H242935   2.933   1.526  12.075  0.5014  1.5950  1.4466
 7174TIP3   OH242936   3.482   2.652  11.271  0.0407 -0.6786 -0.1628
 7174TIP3    H142937   3.501   2.719  11.205 -0.0100 -0.9147 -0.4189
 7174TIP3    H242938   3.565   2.637  11.316  0.1756 -0.8231 -0.4588
 7175TIP3   OH242939   5.247   6.713   0.212 -0.5220  0.6795 -0.5124
 7175TIP3    H142940   5.254   6.659   0.291 -4.1470  2.0446  0.8656
 7175TIP3    H242941   5.212   6.653   0.146 -0.4514  0.2807 -0.1907
 7176TIP3   OH242942   1.011   2.418  11.694  0.0037  0.4187  0.0689
 7176TIP3    H142943   1.027   2.377  11.779  1.3124 -0.2952 -0.5030
 7176TIP3    H242944   1.025   2.512  11.710 -1.3298  0.4702  0.9931
 7177TIP3   OH242945   4.626   2.535   4.259 -0.0871 -0.1945 -0.3906
 7177TIP3    H142946   4.677   2.536   4.340 -0.1697 -0.0834 -0.3401
 7177TIP3    H242947   4.642   2.448   4.223  0.8130  0.1308 -0.8044
 7178TIP3   OH242948   5.014   5.859  10.895  0.4731 -0.1196  0.3002
 7178TIP3    H142949   5.096   5.839  10.849  0.7306 -1.1726  1.2022
 7178TIP3    H242950   4.949   5.866  10.826  1.0135 -0.8697 -0.3008
 7179TIP3   OH242951   2.019   3.611  14.171  0.0202 -0.1360 -0.2928
 7179TIP3    H142952   2.029   3.622  14.265 -0.7862  0.3643 -0.2593
 7179TIP3    H242953   2.093   3.658  14.133 -0.9252  1.6538  0.0222
 7180TIP3   OH242954   3.875   0.807   3.907 -0.3071 -0.1383 -0.4107
 7180TIP3    H142955   3.956   0.761   3.886  0.3378  1.2384 -0.9782
 7180TIP3    H242956   3.886   0.894   3.869 -0.7875  1.0777  2.1228
 7181TIP3   OH242957   5.447   5.002   2.296 -0.1102 -0.1120 -0.0482
 7181TIP3    H142958   5.378   4.942   2.325 -1.0884  0.2274 -1.5786
 7181TIP3    H242959   5.449   4.991   2.201 -0.0432  1.9724 -0.3111
 7182TIP3   OH242960   5.868   2.670  12.567  0.0270  0.4747 -0.5018
 7182TIP3    H142961   5.797   2.703  12.621 -0.4428  2.1110 -2.0665
 7182TIP3    H242962   5.825   2.635  12.489  0.7307 -1.3511 -0.1160
 7183TIP3   OH242963   1.571   3.218  13.816  0.2273 -0.0909 -0.3414
 7183TIP3    H142964   1.656   3.218  13.860  1.2282  0.8589 -2.2257
 7183TIP3    H242965   1.591   3.236  13.724 -2.1611  1.9287 -0.5202
 7184TIP3   OH242966   0.892   2.041  14.259 -0.9565 -0.2560  0.7895
 7184TIP3    H142967   0.921   2.087  14.181 -0.4490  0.8124  1.5991
 7184TIP3    H242968   0.949   1.964  14.265 -2.5526 -1.6521 -1.2042
 7185TIP3   OH242969   5.728   0.483   0.331 -0.2848 -0.4309  0.4081
 7185TIP3    H142970   5.640   0.499   0.297 -1.1529 -1.8037  1.9354
 7185TIP3    H242971   5.757   0.568   0.364 -0.1564  0.5050 -1.9882
 7186TIP3   OH242972   0.708   1.412   4.007  0.0214  0.3418 -0.5251
 7186TIP3    H142973   0.711   1.466   3.929  1.0724  0.2837 -0.5287
 7186TIP3    H242974   0.665   1.331   3.979  0.3007  0.3637 -1.0166
 7187TIP3   OH242975   2.302   0.870  13.707  0.0699  0.1259 -0.1267
 7187TIP3    H142976   2.249   0.949  13.714  0.0565 -0.0241  1.9697
 7187TIP3    H242977   2.337   0.871  13.618 -1.5299  1.4498 -0.7528
 7188TIP3   OH242978   3.982   2.343   5.337 -0.2204  0.1290 -0.0342
 7188TIP3    H142979   4.071   2.308   5.327  0.3749  1.1369  1.5913
 7188TIP3    H242980   3.935   2.276   5.386  0.2546  0.5518  1.0028
 7189TIP3   OH242981   3.210   4.693  16.331  0.2307 -0.6333 -0.8773
 7189TIP3    H142982   3.282   4.747  16.299  1.1329 -0.5402  1.2443
 7189TIP3    H242983   3.182   4.735  16.412 -0.9158 -1.7938 -0.6452
 7190TIP3   OH242984   1.257   5.567  14.092 -0.6108 -0.3997 -0.7895
 7190TIP3    H142985   1.198   5.637  14.067 -1.6239 -1.5920 -1.7634
 7190TIP3    H242986   1.313   5.606  14.160  0.2594  1.9789 -2.7982
 7191TIP3   OH242987   5.099   1.897  13.682 -0.4951  0.7037 -0.4719
 7191TIP3    H142988   5.052   1.901  13.599  0.8139  0.9675 -1.2151
 7191TIP3    H242989   5.033   1.871  13.746 -1.9511  2.3244 -1.2628
 7192TIP3   OH242990   3.982   5.895  16.830 -0.5409  0.4478 -0.0639
 7192TIP3    H142991   4.038   5.824  16.798 -0.8286  0.3406 -0.3327
 7192TIP3    H242992   4.038   5.972  16.827  0.4788 -0.1639  2.3638
 7193TIP3   OH242993   3.968   3.978  16.624  0.8291 -0.2481  0.3412
 7193TIP3    H142994   3.905   3.906  16.621  0.4403  0.1477 -1.0698
 7193TIP3    H242995   3.916   4.057  16.613  1.6956  0.0018 -2.3854
 7194TIP3   OH242996   2.578   6.226   4.601 -0.4206  0.5966  0.2879
 7194TIP3    H142997   2.605   6.240   4.692  2.4168  0.7580 -0.5414
 7194TIP3    H242998   2.483   6.220   4.606 -0.2775 -0.3268  3.3978
 7195TIP3   OH242999   3.493   3.708   5.389  0.3057 -0.1020  0.0477
 7195TIP3    H143000   3.432   3.651   5.342 -0.3315 -1.8632  2.8780
 7195TIP3    H243001   3.471   3.695   5.481  2.7402  1.8361  0.9473
 7196TIP3   OH243002   3.342   4.072   0.688  0.6076  0.6921 -0.4696
 7196TIP3    H143003   3.421   4.066   0.742  1.0165  0.0455 -1.1255
 7196TIP3    H243004   3.290   3.996   0.713  0.0732  1.2538  0.1401
 7197TIP3   OH243005   0.010   5.714   3.830  0.2560  0.2098  0.0078
 7197TIP3    H143006  -0.012   5.802   3.861  0.6677 -0.3983  2.0929
 7197TIP3    H243007   0.103   5.720   3.807  0.2501  0.3412  0.0160
 7198TIP3   OH243008   3.548   5.041  12.998  0.3959  0.5353  0.5672
 7198TIP3    H143009   3.623   5.051  13.056  0.2977  0.3016  0.7378
 7198TIP3    H243010   3.502   4.963  13.031  0.8026 -0.1039 -0.3331
 7199TIP3   OH243011   2.018   3.795   3.882  0.0291  0.1146 -0.0440
 7199TIP3    H143012   1.969   3.746   3.949  1.3867 -1.4329 -0.1535
 7199TIP3    H243013   1.952   3.818   3.817 -0.6874 -1.3243  0.1569
 7200TIP3   OH243014   3.430   6.204  14.280 -0.1115  0.2201 -0.0980
 7200TIP3    H143015   3.494   6.141  14.313  0.1802  1.5587  1.9896
 7200TIP3    H243016   3.349   6.181  14.326 -0.4342  0.2931 -0.6278
 7201TIP3   OH243017   2.399   2.384   2.581 -0.1834  0.0540 -0.6511
 7201TIP3    H143018   2.350   2.302   2.574  0.8377 -0.6000 -0.1800
 7201TIP3    H243019   2.402   2.418   2.491 -1.4036  0.0523 -0.7027
 7202TIP3   OH243020   2.153   0.820   2.063 -0.1773  0.0517 -0.2570
 7202TIP3    H143021   2.060   0.804   2.083  0.3734 -0.2506  2.2652
 7202TIP3    H243022   2.157   0.914   2.043 -1.1703 -0.1186 -1.3386
 7203TIP3   OH243023   3.753   6.057  13.123  0.0627 -0.3865  0.0986
 7203TIP3    H143024   3.690   6.122  13.093  1.3156  0.0244 -1.6772
 7203TIP3    H243025   3.779   6.087  13.210  0.3727  1.2973 -0.5660
 7204TIP3   OH243026   4.350   4.176   0.602  0.4291 -0.0138 -0.1205
 7204TIP3    H143027   4.342   4.271   0.594 -1.2791 -0.0737  0.6801
 7204TIP3    H243028   4.439   4.157   0.573  0.9749  1.8928  0.2480
 7205TIP3   OH243029   0.283   4.706  16.510 -0.3122 -0.0650  0.5068
 7205TIP3    H143030   0.331   4.744  16.437 -2.1111 -1.8637 -1.6833
 7205TIP3    H243031   0.211   4.767  16.527 -1.7824 -1.2211 -1.4049
 7206TIP3   OH243032   0.307   4.196   6.448  0.2461 -0.9144 -0.1427
 7206TIP3    H143033   0.360   4.147   6.385  0.2763 -1.8276  0.5846
 7206TIP3    H243034   0.272   4.129   6.507 -4.0071 -0.7509 -2.2300
 7207TIP3   OH243035   2.048   2.390   2.087  0.1311 -0.0799  0.8685
 7207TIP3    H143036   1.994   2.388   2.166 -0.3252  1.2443  0.6012
 7207TIP3    H243037   1.985   2.395   2.015  0.4888 -2.5545  0.3142
 7208TIP3   OH243038   6.455   2.821  14.327  0.6811 -0.4709 -0.0075
 7208TIP3    H143039   6.365   2.792  14.314  0.4403  0.3548 -0.1696
 7208TIP3    H243040   6.448   2.901  14.378  1.3325 -0.4455  0.0491
 7209TIP3   OH243041   2.021   4.823  17.101 -0.5199 -0.6130  0.0917
 7209TIP3    H143042   1.990   4.905  17.064  0.2646 -0.3641 -0.0041
 7209TIP3    H243043   2.055   4.774  17.027 -1.9160 -1.4591 -0.0186
 7210TIP3   OH243044   6.663   2.908  14.163  0.0558 -0.5674  0.2071
 7210TIP3    H143045   6.586   2.891  14.217 -0.5747  0.1276 -0.4734
 7210TIP3    H243046   6.649   2.856  14.084 -0.2251  0.3799 -0.3759
 7211TIP3   OH243047   4.394   5.130   0.824  1.0309  0.0040 -0.0815
 7211TIP3    H143048   4.469   5.111   0.768  1.5512  0.0606  0.5866
 7211TIP3    H243049   4.367   5.218   0.798  1.2062 -0.0094 -0.3168
 7212TIP3   OH243050   2.677   0.748  13.588 -0.3032 -0.1253  0.1700
 7212TIP3    H143051   2.761   0.716  13.621 -0.6909 -0.6630  0.6418
 7212TIP3    H243052   2.652   0.685  13.521 -0.2960  0.0779 -0.0250
 7213TIP3   OH243053   1.915   0.259   4.545  0.1809 -0.0255  0.3665
 7213TIP3    H143054   2.004   0.226   4.533 -0.2212 -0.7856 -0.6523
 7213TIP3    H243055   1.898   0.312   4.467 -0.2123  0.2118  0.6127
 7214TIP3   OH243056   1.566   6.380  15.716 -0.2300 -0.7200  0.5544
 7214TIP3    H143057   1.628   6.319  15.756  0.4131 -0.7311 -0.4433
 7214TIP3    H243058   1.562   6.454  15.777  1.2250 -0.4481  0.3416
 7215TIP3   OH243059   1.212   4.596   6.250 -0.3147  0.1471  0.4472
 7215TIP3    H143060   1.276   4.530   6.276  0.5598  1.2323  1.0509
 7215TIP3    H243061   1.190   4.574   6.159  1.9234  0.5724 -0.2158
 7216TIP3   OH243062   2.598   4.297  16.413  0.5925 -0.4827 -0.4741
 7216TIP3    H143063   2.653   4.228  16.375  3.0537 -1.3776  4.3123
 7216TIP3    H243064   2.514   4.255  16.431  1.6012 -1.9027  1.0607
 7217TIP3   OH243065   0.728   3.563   3.687  0.2688 -0.6702  0.3173
 7217TIP3    H143066   0.764   3.504   3.754  0.5143 -2.1480 -1.0688
 7217TIP3    H243067   0.775   3.538   3.607 -0.4010  0.7093 -0.5124
 7218TIP3   OH243068   3.935   1.121  11.919  0.1070 -0.1965  0.1493
 7218TIP3    H143069   3.985   1.188  11.873  2.7493  0.4976  3.7564
 7218TIP3    H243070   3.962   1.038  11.879  0.1764  0.5651 -1.4042
 7219TIP3   OH243071   6.272   5.395  16.873 -0.4135 -0.1641  0.5212
 7219TIP3    H143072   6.185   5.427  16.894 -0.5798  1.6222 -2.5306
 7219TIP3    H243073   6.329   5.434  16.939 -1.3809  2.1257  0.0703
 7220TIP3   OH243074   3.298   2.326   5.015 -0.1980 -0.8535  0.3300
 7220TIP3    H143075   3.229   2.386   4.988  1.9412  1.5634 -0.0008
 7220TIP3    H243076   3.270   2.293   5.100 -1.6234  0.3530  0.3471
 7221TIP3   OH243077   3.908   1.281   1.522  0.5742  0.6209  0.1636
 7221TIP3    H143078   3.894   1.194   1.485 -0.3315  1.0227 -0.4869
 7221TIP3    H243079   3.973   1.269   1.590  2.4268 -0.1268 -1.6881
 7222TIP3   OH243080   6.112   5.333   4.386 -0.2675 -0.1426 -0.5627
 7222TIP3    H143081   6.204   5.354   4.405 -0.0069  0.6487 -2.6269
 7222TIP3    H243082   6.064   5.408   4.422 -0.1233 -0.5447  0.5003
 7223TIP3   OH243083   4.628   1.478   4.203 -0.0247  0.4787 -0.2223
 7223TIP3    H143084   4.558   1.517   4.255  0.1095 -1.5139  1.5247
 7223TIP3    H243085   4.703   1.474   4.262  0.2784 -1.3882 -0.7086
 7224TIP3   OH243086   0.808   3.658  12.644 -0.5214  0.5670 -0.4238
 7224TIP3    H143087   0.743   3.672  12.575 -1.1997  0.9692  0.2896
 7224TIP3    H243088   0.880   3.717  12.622 -1.4900  1.9937  0.1663
 7225TIP3   OH243089   6.053   3.718  15.518 -0.0081  0.2541 -0.1538
 7225TIP3    H143090   6.125   3.684  15.571 -1.1955 -0.6666  0.9119
 7225TIP3    H243091   6.018   3.791  15.568 -2.0016 -1.4609  1.0692
 7226TIP3   OH243092   0.595   4.120  13.265  0.0236 -0.3915  0.3382
 7226TIP3    H143093   0.660   4.054  13.242  1.1424  0.3560  1.2951
 7226TIP3    H243094   0.594   4.180  13.190 -0.8359 -1.3554 -0.4351
 7227TIP3   OH243095   1.225   2.234   2.715  0.1298 -0.2092 -0.6422
 7227TIP3    H143096   1.314   2.236   2.751 -0.3688 -0.7307  0.6353
 7227TIP3    H243097   1.197   2.143   2.726 -0.4476 -0.1160 -1.3250
 7228TIP3   OH243098   4.927   5.908   0.773 -0.0347  0.4464 -0.5025
 7228TIP3    H143099   5.011   5.925   0.815  0.9469  0.0703 -2.3039
 7228TIP3    H243100   4.904   5.991   0.731 -0.4480  0.4730 -0.2316
 7229TIP3   OH243101   2.417   0.312  13.599 -0.2956 -0.3869  0.0445
 7229TIP3    H143102   2.381   0.380  13.542  0.8079 -1.4244 -1.9408
 7229TIP3    H243103   2.357   0.238  13.588 -0.5029 -0.3286  0.8070
 7230TIP3   OH243104   5.313   1.637  16.919  0.2568  0.3720 -0.3271
 7230TIP3    H143105   5.300   1.676  16.833 -0.4108 -0.6394 -0.6876
 7230TIP3    H243106   5.261   1.692  16.978  1.3243  1.5179 -0.4452
 7231TIP3   OH243107   5.586   4.535   0.226 -0.3447 -0.2948 -0.7708
 7231TIP3    H143108   5.560   4.446   0.247 -0.6808 -0.0380 -0.0749
 7231TIP3    H243109   5.682   4.532   0.226 -0.3615 -0.9032 -1.8663
 7232TIP3   OH243110   4.175   2.122   5.221 -0.0195 -0.3641  0.4626
 7232TIP3    H143111   4.166   2.147   5.312 -2.3537  0.5625  0.0099
 7232TIP3    H243112   4.261   2.155   5.195  0.7129 -0.7596  2.3298
 7233TIP3   OH243113   4.581   0.395  11.904  0.1982  0.1480 -0.0997
 7233TIP3    H143114   4.548   0.310  11.876  1.3019  0.8407 -3.7583
 7233TIP3    H243115   4.505   0.452  11.904  0.0541 -0.0398 -1.0380
 7234TIP3   OH243116   5.878   1.411  15.476 -0.0300  0.0144  0.7142
 7234TIP3    H143117   5.918   1.341  15.527  0.6602 -0.1401 -0.0250
 7234TIP3    H243118   5.791   1.377  15.452 -0.1221 -0.1460  1.2772
 7235TIP3   OH243119   5.504   4.763  12.974  0.0713  0.1231 -0.3725
 7235TIP3    H143120   5.532   4.675  12.999  0.6204  0.7316  1.2739
 7235TIP3    H243121   5.547   4.780  12.891  2.0525 -0.1908  0.5650
 7236TIP3   OH243122   0.018   0.596   4.633 -0.0237  0.3620  0.4334
 7236TIP3    H143123  -0.027   0.516   4.607  0.8503  0.6505 -2.1175
 7236TIP3    H243124   0.067   0.623   4.555  1.2454  2.3217  1.8415
 7237TIP3   OH243125   1.259   1.355  10.899 -0.2887  0.1546 -0.6240
 7237TIP3    H143126   1.180   1.345  10.845  0.3001 -0.8234 -1.3262
 7237TIP3    H243127   1.329   1.314  10.847  0.6461  0.8267  0.0774
 7238TIP3   OH243128   3.818   1.442   0.361  0.6455 -0.4800  0.3749
 7238TIP3    H143129   3.912   1.447   0.344  0.6759 -2.0317  0.0631
 7238TIP3    H243130   3.788   1.367   0.310 -0.6754 -0.3214  0.8982
 7239TIP3   OH243131   2.915   4.825  15.045 -0.4551  0.4849  0.0449
 7239TIP3    H143132   2.847   4.842  14.980 -1.0210 -2.1820 -0.1306
 7239TIP3    H243133   2.996   4.819  14.994 -0.7617 -0.6671 -0.3299
 7240TIP3   OH243134   3.117   1.463  10.694 -0.1501  0.1232 -1.0555
 7240TIP3    H143135   3.028   1.441  10.721 -0.7775  0.8933 -2.4581
 7240TIP3    H243136   3.108   1.499  10.606  1.4711  0.8650 -0.9476
 7241TIP3   OH243137   0.470   5.326  13.949 -0.1950 -0.1859  0.3023
 7241TIP3    H143138   0.374   5.323  13.939 -0.2121 -1.0837  0.7771
 7241TIP3    H243139   0.502   5.259  13.888  0.2123  1.0293 -0.8487
 7242TIP3   OH243140   2.548   3.528  13.600 -0.1969 -0.2569 -0.2970
 7242TIP3    H143141   2.636   3.528  13.637  0.2477  0.7379 -1.3505
 7242TIP3    H243142   2.492   3.557  13.672  0.5288  0.5965 -0.0664
 7243TIP3   OH243143   2.534   1.123  11.537  0.2004  0.3261  0.1667
 7243TIP3    H143144   2.532   1.204  11.486 -0.6605  0.7749  0.8882
 7243TIP3    H243145   2.614   1.131  11.590  1.8480 -0.7820 -2.0925
 7244TIP3   OH243146   2.106   1.575   1.943 -0.3583  0.0545 -0.1035
 7244TIP3    H143147   2.122   1.499   1.999  0.4731  0.0442 -0.3567
 7244TIP3    H243148   2.021   1.556   1.902  0.5245 -1.4330 -1.2891
 7245TIP3   OH243149   0.283   1.697   0.018  0.3627 -0.2529  0.1024
 7245TIP3    H143150   0.233   1.776   0.037 -1.3627 -0.7713 -2.0541
 7245TIP3    H243151   0.229   1.625   0.054  1.2032 -0.5613  0.7547
 7246TIP3   OH243152   3.486   3.223  17.014  0.2883 -0.0936  0.4188
 7246TIP3    H143153   3.579   3.226  17.035  0.2764  2.5758  0.2025
 7246TIP3    H243154   3.477   3.147  16.955  2.6873  0.8368 -1.2081
 7247TIP3   OH243155   1.573   5.504   4.345 -0.1554 -0.0710 -0.1277
 7247TIP3    H143156   1.482   5.480   4.330 -0.8742  2.5988 -0.3440
 7247TIP3    H243157   1.569   5.572   4.412  1.7493 -0.5514  0.4894
 7248TIP3   OH243158   5.360   6.523   4.144 -0.3387 -0.2054 -0.5402
 7248TIP3    H143159   5.371   6.428   4.144 -0.1071 -0.1787 -0.2181
 7248TIP3    H243160   5.420   6.555   4.211 -0.9636  0.1058 -0.1241
 7249TIP3   OH243161   4.838   5.677  15.895  0.4904 -0.1955 -0.2316
 7249TIP3    H143162   4.846   5.630  15.812  0.4033  0.3848 -0.5706
 7249TIP3    H243163   4.880   5.762  15.879 -0.3809  0.2931  0.0219
 7250TIP3   OH243164   0.600   1.627  12.452  0.0263 -0.0730 -0.3444
 7250TIP3    H143165   0.631   1.681  12.380 -2.1703  2.6086  0.5892
 7250TIP3    H243166   0.661   1.645  12.524  0.5164 -0.4686 -0.6623
 7251TIP3   OH243167   1.733   0.756   5.686  0.8987  0.3677  0.6692
 7251TIP3    H143168   1.768   0.675   5.721 -1.1200 -0.2546  1.2621
 7251TIP3    H243169   1.647   0.766   5.726  1.2800  3.0370  0.9691
 7252TIP3   OH243170   0.247   1.263  13.535 -0.1648  0.4672 -0.4702
 7252TIP3    H143171   0.325   1.310  13.507  1.0112 -0.1955  1.5192
 7252TIP3    H243172   0.268   1.171  13.521 -0.7227  0.3022 -0.2608
 7253TIP3   OH243173   2.533   2.795  13.123 -0.3854 -0.0733  0.2027
 7253TIP3    H143174   2.486   2.754  13.051 -4.5526  0.1308  2.6956
 7253TIP3    H243175   2.514   2.740  13.199  3.2547  0.1670  1.4162
 7254TIP3   OH243176   1.213   5.819  11.657  0.3187  0.5322  0.0459
 7254TIP3    H143177   1.167   5.802  11.739 -2.0697 -1.7104 -1.7177
 7254TIP3    H243178   1.281   5.752  11.653  0.8057  0.9944  0.4334
 7255TIP3   OH243179   3.973   4.570  16.279 -0.3271 -0.0402 -0.7079
 7255TIP3    H143180   4.031   4.495  16.292 -0.0973  0.0506 -1.2064
 7255TIP3    H243181   3.979   4.619  16.361 -1.2713 -1.1009  0.0159
 7256TIP3   OH243182   6.343   5.691   4.979  0.6964 -0.3086  0.3498
 7256TIP3    H143183   6.420   5.746   4.969  0.2099  0.7406  2.1427
 7256TIP3    H243184   6.373   5.617   5.032  0.3934  0.2797  1.3493
 7257TIP3   OH243185   0.852   6.528   0.194 -0.5082 -0.3301 -0.1420
 7257TIP3    H143186   0.800   6.479   0.129  0.2624  0.1827 -1.1477
 7257TIP3    H243187   0.923   6.567   0.144  0.8897 -1.0412  1.2347
 7258TIP3   OH243188   1.474   5.585  11.333  0.5162  0.3525 -0.2314
 7258TIP3    H143189   1.401   5.523  11.337 -0.0737  0.8635 -2.5279
 7258TIP3    H243190   1.433   5.671  11.333  1.2492  0.7142  0.8142
 7259TIP3   OH243191   0.112   6.172  11.441 -0.0486  0.9802  0.4146
 7259TIP3    H143192   0.116   6.113  11.517 -0.9996 -0.9266 -0.9632
 7259TIP3    H243193   0.049   6.239  11.467 -1.1259 -0.2173  0.9573
 7260TIP3   OH243194   2.525   6.166  11.658  0.9427  0.0161  0.0118
 7260TIP3    H143195   2.441   6.165  11.704  0.5635 -0.1605 -0.6791
 7260TIP3    H243196   2.570   6.242  11.694  0.1280  0.6324 -0.2455
 7261TIP3   OH243197   3.505   6.261  13.172  0.1681 -0.2765  0.2484
 7261TIP3    H143198   3.550   6.242  13.090  1.1783  1.5527  0.3600
 7261TIP3    H243199   3.500   6.356  13.175 -2.4017 -0.4009  0.9533
 7262TIP3   OH243200   6.548   3.180   6.200 -0.6069  0.3828 -0.1460
 7262TIP3    H143201   6.542   3.118   6.127 -0.6513  0.6713 -0.3896
 7262TIP3    H243202   6.502   3.258   6.169 -2.4510 -0.2351  0.9878
 7263TIP3   OH243203   4.301   2.171  11.636  0.3978  0.0577  0.1116
 7263TIP3    H143204   4.262   2.252  11.605  0.2537  0.8856  2.3728
 7263TIP3    H243205   4.241   2.102  11.605  0.9140  0.7140 -2.4404
 7264TIP3   OH243206   1.604   6.429   5.580  0.2139 -0.3735 -0.2707
 7264TIP3    H143207   1.594   6.471   5.665 -2.2724  1.0409 -1.2176
 7264TIP3    H243208   1.616   6.336   5.600 -0.4424 -0.0640  1.6176
 7265TIP3   OH243209   2.231   4.371  12.383 -0.3095 -0.5595  0.2471
 7265TIP3    H143210   2.228   4.413  12.297 -0.4354 -2.7560 -0.8611
 7265TIP3    H243211   2.298   4.303  12.374 -1.1103 -1.5415  1.5435
 7266TIP3   OH243212   5.874   4.100   4.026 -0.3297 -0.7388  0.1542
 7266TIP3    H143213   5.906   4.009   4.026  2.4087  0.1776  0.3841
 7266TIP3    H243214   5.953   4.153   4.014 -2.1228  1.5611 -1.9825
 7267TIP3   OH243215   0.691   5.932  13.614 -0.1381 -0.3633  0.7331
 7267TIP3    H143216   0.755   5.969  13.553 -0.4321  0.5509  0.9765
 7267TIP3    H243217   0.727   5.952  13.700  0.2869 -1.6724  0.8787
 7268TIP3   OH243218   5.141   5.870   2.145  0.0926 -0.1626 -0.1867
 7268TIP3    H143219   5.137   5.908   2.057 -0.3067 -0.6577 -0.3826
 7268TIP3    H243220   5.203   5.926   2.192  1.2445 -0.5997 -1.1384
 7269TIP3   OH243221   2.008   0.467   6.247 -0.0112  0.2195 -0.4805
 7269TIP3    H143222   1.982   0.552   6.282  0.0768 -0.0024  0.1197
 7269TIP3    H243223   2.006   0.408   6.322 -1.9655 -0.7516 -1.2626
 7270TIP3   OH243224   1.522   3.735  11.819 -0.0089  0.4069 -0.0380
 7270TIP3    H143225   1.434   3.770  11.833  0.3833  0.4515  2.7148
 7270TIP3    H243226   1.580   3.801  11.856  0.9948 -1.0055  0.9603
 7271TIP3   OH243227   2.985   3.042  17.148  0.0973  0.0453  0.4234
 7271TIP3    H143228   3.072   3.070  17.119  0.4280 -0.4880  0.8899
 7271TIP3    H243229   2.925   3.107  17.110  0.8630  1.4930  1.5982
 7272TIP3   OH243230   4.302   0.438  10.920 -0.2799  1.1262 -0.1185
 7272TIP3    H143231   4.354   0.359  10.934  0.6509  1.7078 -0.2575
 7272TIP3    H243232   4.213   0.413  10.944 -0.4125 -0.6455 -2.3546
 7273TIP3   OH243233   2.876   4.827   3.559 -0.4686 -0.8700  0.0884
 7273TIP3    H143234   2.848   4.907   3.514  1.0787  0.4313  1.3749
 7273TIP3    H243235   2.897   4.856   3.648  0.6545 -2.6096  0.4072
 7274TIP3   OH243236   5.450   6.061  14.309  0.0978  0.8855 -0.0618
 7274TIP3    H143237   5.498   6.046  14.390 -0.8152  0.6691  0.4416
 7274TIP3    H243238   5.517   6.054  14.240  0.1682 -3.3760  0.3050
 7275TIP3   OH243239   2.338   6.582   1.208 -0.4437 -0.4411 -0.1453
 7275TIP3    H143240   2.341   6.615   1.298  1.0057 -1.6304  0.2553
 7275TIP3    H243241   2.388   6.501   1.211  0.3478 -0.0416 -2.2165
 7276TIP3   OH243242   2.927   0.914   1.821 -0.1675  0.3659  0.1382
 7276TIP3    H143243   2.850   0.968   1.842 -0.1947  0.2649  0.2981
 7276TIP3    H243244   2.990   0.934   1.891 -0.4659 -0.3895  0.6283
 7277TIP3   OH243245   1.512   2.925  16.105 -0.0972  0.3591  0.3150
 7277TIP3    H143246   1.432   2.894  16.147 -1.2851  0.2823 -1.9178
 7277TIP3    H243247   1.551   2.984  16.169 -0.7512 -1.3168  2.3382
 7278TIP3   OH243248   6.311   0.031  16.505  0.2508  0.1955  0.1071
 7278TIP3    H143249   6.396   0.024  16.463  1.0219 -3.7252  2.1422
 7278TIP3    H243250   6.254  -0.026  16.453 -0.1887 -0.1615  0.9746
 7279TIP3   OH243251   6.259   2.458  14.834  0.5445  0.2902 -0.2014
 7279TIP3    H143252   6.313   2.535  14.814  0.2161  0.4903 -0.3201
 7279TIP3    H243253   6.196   2.454  14.763 -0.8595  1.2016  0.9816
 7280TIP3   OH243254   4.107   1.773  11.027  0.1863 -0.1168  0.4978
 7280TIP3    H143255   4.081   1.710  10.959 -0.9528 -0.9208  1.6563
 7280TIP3    H243256   4.179   1.822  10.987  0.1805 -1.2240 -0.9441
 7281TIP3   OH243257   4.768   1.687  14.605  0.5290  0.1148 -0.8955
 7281TIP3    H143258   4.828   1.756  14.633 -1.3673  1.4258  0.0871
 7281TIP3    H243259   4.786   1.677  14.511 -0.6198  3.5564 -1.5789
 7282TIP3   OH243260   3.591   1.097  15.662  0.2699  0.1923 -0.5259
 7282TIP3    H143261   3.542   1.017  15.680 -1.3562  1.1668 -0.4869
 7282TIP3    H243262   3.666   1.068  15.610 -0.7705 -1.2369 -1.2644
 7283TIP3   OH243263   2.695   3.400   3.679  0.3664 -0.5535  0.0980
 7283TIP3    H143264   2.753   3.401   3.603 -0.0616  1.4229 -0.2341
 7283TIP3    H243265   2.745   3.444   3.748 -1.2174  2.4067 -0.5877
 7284TIP3   OH243266   5.294   2.774  15.692 -0.0321  0.5617 -0.0096
 7284TIP3    H143267   5.335   2.692  15.665  2.4105  1.8688 -0.3297
 7284TIP3    H243268   5.224   2.747  15.752  0.1423 -1.7895 -0.8358
 7285TIP3   OH243269   4.258   5.091   2.867 -0.0397 -0.4271  0.4911
 7285TIP3    H143270   4.192   5.106   2.934 -3.2967  0.7826 -2.7838
 7285TIP3    H243271   4.308   5.173   2.862 -3.9332  1.9303 -2.7458
 7286TIP3   OH243272   3.827   5.923  14.633 -0.5686 -1.3687 -0.2093
 7286TIP3    H143273   3.835   5.967  14.548  2.4882 -0.6624  0.3874
 7286TIP3    H243274   3.869   5.838  14.620 -0.8569 -1.5934  0.3591
 7287TIP3   OH243275   3.675   5.947   3.659  0.2908  0.5038 -0.0896
 7287TIP3    H143276   3.616   5.961   3.586 -1.9461 -0.3492  1.4866
 7287TIP3    H243277   3.709   6.034   3.681 -0.9603  1.1118 -0.5541
 7288TIP3   OH243278   2.677   2.435   3.168  0.7236  0.0648  0.1321
 7288TIP3    H143279   2.606   2.405   3.112 -0.3317 -0.2008  1.5991
 7288TIP3    H243280   2.741   2.364   3.166  0.2684 -0.3460  0.0091
 7289TIP3   OH243281   3.174   6.246  16.362 -1.1890  0.0920  0.7248
 7289TIP3    H143282   3.266   6.238  16.338 -1.2783  3.1704 -0.8904
 7289TIP3    H243283   3.170   6.220  16.454  1.2445 -0.2533  0.7564
 7290TIP3   OH243284   3.885   5.573   3.153  0.1262  0.2157 -0.1632
 7290TIP3    H143285   3.915   5.513   3.221 -0.9584 -0.3289 -0.1490
 7290TIP3    H243286   3.912   5.659   3.183  1.9060 -0.2849 -0.2902
 7291TIP3   OH243287   3.671   4.415  11.483  0.2515 -0.3407  0.8202
 7291TIP3    H143288   3.645   4.507  11.470 -0.7113 -0.4726  1.6960
 7291TIP3    H243289   3.658   4.374  11.397  1.1016  0.4313  0.3145
 7292TIP3   OH243290   5.749   3.260   1.428 -0.1563 -0.1547  0.2249
 7292TIP3    H143291   5.778   3.170   1.447 -0.9592 -0.6264 -0.7312
 7292TIP3    H243292   5.692   3.251   1.352 -0.9059  1.0679  0.6250
 7293TIP3   OH243293   3.623   5.137   3.216 -0.2101 -0.5668  0.3078
 7293TIP3    H143294   3.608   5.044   3.233 -0.1694 -0.3372  1.6454
 7293TIP3    H243295   3.567   5.182   3.279  0.0857  0.3221 -0.0543
 7294TIP3   OH243296   2.598   2.222  11.221  0.0469  0.0532 -0.5634
 7294TIP3    H143297   2.639   2.268  11.148  1.6284 -0.2659  0.0880
 7294TIP3    H243298   2.522   2.179  11.183 -1.8062  3.6008 -1.0883
 7295TIP3   OH243299   3.578   1.724  12.704  0.2255 -0.0028  0.2024
 7295TIP3    H143300   3.584   1.648  12.647 -2.1802 -0.3060  0.3213
 7295TIP3    H243301   3.511   1.780  12.664 -0.6409  0.3466  2.0477
 7296TIP3   OH243302   2.793   1.752   0.912  0.2579 -0.3040 -0.0613
 7296TIP3    H143303   2.817   1.837   0.947 -0.1462 -0.1074 -0.2649
 7296TIP3    H243304   2.835   1.689   0.971  0.8356  0.0341 -0.1100
 7297TIP3   OH243305   6.571   3.508   0.979  0.9414  0.2039 -0.5592
 7297TIP3    H143306   6.485   3.483   0.943  0.6834  0.7830 -0.3553
 7297TIP3    H243307   6.553   3.586   1.032  1.3874 -0.3973  0.4986
 7298TIP3   OH243308   1.278   0.423  12.770  0.0770  0.5475 -0.7838
 7298TIP3    H143309   1.228   0.384  12.698 -0.9659 -1.2691  0.8581
 7298TIP3    H243310   1.214   0.477  12.817  0.7928  1.8648 -1.3152
 7299TIP3   OH243311   1.336   6.399   6.143  0.1849  0.5554 -0.0483
 7299TIP3    H143312   1.359   6.374   6.054 -0.7594  1.7933 -0.6472
 7299TIP3    H243313   1.327   6.316   6.189 -1.1397 -0.1764 -1.5699
 7300TIP3   OH243314   3.176   3.274   5.317  0.0461  0.4327 -0.1718
 7300TIP3    H143315   3.084   3.302   5.316 -0.4789 -0.9273  2.9000
 7300TIP3    H243316   3.181   3.209   5.246 -1.6662 -0.2905  0.3212
 7301TIP3   OH243317   5.242   5.661   1.728 -0.3520  0.0699 -0.2528
 7301TIP3    H143318   5.325   5.643   1.770 -0.7124  0.7629  0.7757
 7301TIP3    H243319   5.242   5.755   1.714 -0.3902 -0.1107 -1.4786
 7302TIP3   OH243320   4.785   0.375   1.774  1.2813 -0.8531  0.1585
 7302TIP3    H143321   4.746   0.295   1.810  1.4749 -0.8969  0.2701
 7302TIP3    H243322   4.765   0.371   1.681  1.3293 -1.0547  0.1567
 7303TIP3   OH243323   2.484   4.697   4.683  0.2999 -0.3878 -0.0212
 7303TIP3    H143324   2.568   4.734   4.710  0.3361 -0.4089 -0.1032
 7303TIP3    H243325   2.499   4.670   4.592 -0.1777  0.7953 -0.4582
 7304TIP3   OH243326   5.905   5.252  14.933  0.1980  0.2501 -0.6130
 7304TIP3    H143327   5.927   5.276  14.843 -1.1823 -0.7851 -1.2465
 7304TIP3    H243328   5.812   5.227  14.929  0.3444 -0.6012  0.9240
 7305TIP3   OH243329   1.013   1.081   0.459 -0.3159 -0.4293  0.4335
 7305TIP3    H143330   0.926   1.099   0.495 -0.3467 -0.5112  0.3987
 7305TIP3    H243331   1.072   1.094   0.533 -0.4010 -0.8224  0.5727
 7306TIP3   OH243332   2.507   3.375   2.804  0.3635  0.1504 -0.1275
 7306TIP3    H143333   2.435   3.435   2.786  0.4924  0.2513 -0.3198
 7306TIP3    H243334   2.552   3.413   2.880  1.4871  1.2581 -1.3115
 7307TIP3   OH243335   5.505   2.101  14.659  0.4257  0.5337 -0.1166
 7307TIP3    H143336   5.437   2.052  14.612  0.9280  0.6538 -0.9806
 7307TIP3    H243337   5.535   2.167  14.596  1.1914  0.6129  0.3281
 7308TIP3   OH243338   0.225   2.771   3.534  0.3036 -0.2425 -0.1311
 7308TIP3    H143339   0.313   2.785   3.569  0.2885  1.9142 -0.8883
 7308TIP3    H243340   0.239   2.735   3.447  0.4678  0.5129 -0.4258
 7309TIP3   OH243341   2.216   1.712  12.121 -0.0672 -0.1374 -0.0875
 7309TIP3    H143342   2.300   1.683  12.156  0.1498  0.4847 -0.0807
 7309TIP3    H243343   2.236   1.792  12.073 -0.9033  0.9817  1.3658
 7310TIP3   OH243344   0.990   1.135  12.559  0.6984 -0.0725  0.4202
 7310TIP3    H143345   0.991   1.176  12.472  0.3565  0.5742  0.7141
 7310TIP3    H243346   1.077   1.152  12.595  0.2092  1.3444  0.9677
 7311TIP3   OH243347   5.779   6.056  13.052 -0.2508  0.6937 -0.3089
 7311TIP3    H143348   5.758   5.972  13.092  0.3883  1.8651  2.5584
 7311TIP3    H243349   5.800   6.034  12.961 -2.3946 -1.9295 -0.2425
 7312TIP3   OH243350   3.301   6.259  12.846 -0.2426  0.5007  0.2067
 7312TIP3    H143351   3.353   6.294  12.774  0.6959 -0.1464  0.5658
 7312TIP3    H243352   3.219   6.231  12.805 -0.5172  1.9749 -0.2820
 7313TIP3   OH243353   2.414   2.485  12.071 -0.3700 -0.4542  0.2500
 7313TIP3    H143354   2.384   2.422  12.006  1.3365 -0.7015 -0.3294
 7313TIP3    H243355   2.410   2.570  12.026 -0.5965 -0.4266  0.3191
 7314TIP3   OH243356   0.179   6.014   3.485  0.3611  0.2255 -0.2513
 7314TIP3    H143357   0.150   6.045   3.570 -0.0270  1.5527 -0.8542
 7314TIP3    H243358   0.120   5.940   3.465 -2.6327  2.7917 -1.3954
 7315TIP3   OH243359   3.487   2.179   4.170  0.2626 -0.1794 -0.1005
 7315TIP3    H143360   3.444   2.218   4.094 -0.0118  0.1614  0.2268
 7315TIP3    H243361   3.425   2.193   4.242  0.9173  0.3175  0.3769
 7316TIP3   OH243362   1.566   3.586   2.170  0.3946  0.0548  0.0527
 7316TIP3    H143363   1.482   3.631   2.156  1.0698  1.4031  0.2789
 7316TIP3    H243364   1.573   3.526   2.097 -0.8268 -0.1443  0.0869
 7317TIP3   OH243365   5.270   4.073  16.500  0.3397 -0.5358 -0.0865
 7317TIP3    H143366   5.295   4.098  16.411  0.5579  0.4492  0.2442
 7317TIP3    H243367   5.218   3.993  16.489 -1.9304  1.0572 -1.3554
 7318TIP3   OH243368   4.831   6.146  14.517  0.7816  0.4086 -0.0343
 7318TIP3    H143369   4.789   6.121  14.435  1.6419 -1.3192  0.0380
 7318TIP3    H243370   4.903   6.203  14.491 -1.0022  2.6310 -0.2189
 7319TIP3   OH243371   2.108   4.024  16.329 -0.2797 -0.2824  0.3488
 7319TIP3    H143372   2.121   4.119  16.337 -0.5434 -0.2319  0.1978
 7319TIP3    H243373   2.088   4.011  16.236 -1.6537 -0.3119  0.6487
 7320TIP3   OH243374   6.343   1.588   2.533  0.0748  0.1410 -0.3300
 7320TIP3    H143375   6.390   1.526   2.589 -1.0204 -1.4921 -1.1765
 7320TIP3    H243376   6.386   1.580   2.448 -0.9258 -0.4534 -0.7878
 7321TIP3   OH243377   0.653   3.287  13.504  0.0075  0.7796  0.8214
 7321TIP3    H143378   0.686   3.369  13.542 -0.9694  1.3375  0.4775
 7321TIP3    H243379   0.668   3.221  13.572 -0.7556  1.5740  1.7658
 7322TIP3   OH243380   0.177   3.164   4.465  0.0271  0.5853 -0.2477
 7322TIP3    H143381   0.162   3.243   4.517 -0.0206  1.1094 -1.0433
 7322TIP3    H243382   0.141   3.093   4.518  2.7741  0.6669  1.8766
 7323TIP3   OH243383   3.343   2.506   2.917 -0.5230  0.3309  0.8245
 7323TIP3    H143384   3.247   2.507   2.926 -0.4973 -0.7669  1.1996
 7323TIP3    H243385   3.370   2.593   2.949 -1.2954  0.2040  1.8728
 7324TIP3   OH243386   2.945   2.007   4.360 -0.1699 -0.8487  0.6173
 7324TIP3    H143387   3.038   2.025   4.347 -0.4557  0.7720  0.7588
 7324TIP3    H243388   2.934   2.004   4.455 -0.7409  1.6410  0.6584
 7325TIP3   OH243389   5.014   6.639  12.936 -0.2968  0.1033  0.1290
 7325TIP3    H143390   4.986   6.569  12.877  0.6324  0.6248 -0.9610
 7325TIP3    H243391   5.046   6.708  12.878 -0.8520  1.2912  1.2023
 7326TIP3   OH243392   0.437   3.581   0.893 -0.3759 -0.0946 -0.2253
 7326TIP3    H143393   0.519   3.582   0.942  0.4178 -3.6861 -1.3909
 7326TIP3    H243394   0.462   3.589   0.802 -1.3961 -0.3370 -0.5370
 7327TIP3   OH243395   0.881   2.159  16.807  0.2066 -0.1243  0.1661
 7327TIP3    H143396   0.799   2.208  16.815 -0.0786 -0.4808 -0.5607
 7327TIP3    H243397   0.946   2.215  16.850 -0.1347  0.8586 -0.5855
 7328TIP3   OH243398   2.494   2.288   4.989  0.0241 -0.3122  0.4984
 7328TIP3    H143399   2.445   2.351   5.043 -1.8234 -1.0695 -0.2343
 7328TIP3    H243400   2.535   2.342   4.921 -0.4451  0.2603  0.6572
 7329TIP3   OH243401   0.750   5.732  16.725  0.0951  0.5956 -0.1937
 7329TIP3    H143402   0.756   5.649  16.678  0.2589  1.1655 -1.2070
 7329TIP3    H243403   0.726   5.796  16.658  2.1858  1.7598  0.0962
 7330TIP3   OH243404   4.191   3.608   0.404 -0.2852 -0.2821 -0.2405
 7330TIP3    H143405   4.250   3.649   0.468 -1.9973  0.9664  0.5762
 7330TIP3    H243406   4.236   3.617   0.321  0.5773  0.8997  0.3292
 7331TIP3   OH243407   3.689   6.239   5.945  0.1449 -0.2056  0.5827
 7331TIP3    H143408   3.659   6.183   6.017 -0.1471  0.1438  0.7377
 7331TIP3    H243409   3.685   6.184   5.867 -0.9977 -0.1322  0.5880
 7332TIP3   OH243410   1.297   2.074  12.585 -0.2357  0.4004  0.1076
 7332TIP3    H143411   1.203   2.069  12.572 -0.2660 -0.6825  0.6774
 7332TIP3    H243412   1.325   2.149  12.532 -1.0091 -0.9977 -2.3529
 7333TIP3   OH243413   1.253   1.406   3.438  0.0481 -0.4457 -0.2850
 7333TIP3    H143414   1.267   1.430   3.346  0.4647  0.7648  0.0763
 7333TIP3    H243415   1.160   1.421   3.452  0.6372  2.9729  0.4501
 7334TIP3   OH243416   2.654   5.396  12.143  0.0264 -0.3916  0.0161
 7334TIP3    H143417   2.642   5.460  12.074  0.4890 -1.3743 -0.9872
 7334TIP3    H243418   2.571   5.349  12.146  0.4331 -1.1796 -0.7429
 7335TIP3   OH243419   5.777   5.720   0.525 -0.4623  1.0618 -0.2193
 7335TIP3    H143420   5.754   5.629   0.506 -0.1948  0.1250  3.5597
 7335TIP3    H243421   5.695   5.761   0.550 -0.0959  1.0296  1.0639
 7336TIP3   OH243422   2.113   6.533   2.562 -0.3593 -0.3485 -0.7406
 7336TIP3    H143423   2.032   6.495   2.596 -0.2543 -1.5056 -1.7282
 7336TIP3    H243424   2.182   6.479   2.601 -0.2433 -1.7919 -2.8403
 7337TIP3   OH243425   3.042   4.310  15.491  0.4151  0.4851 -0.0663
 7337TIP3    H143426   2.965   4.255  15.505  0.0957  0.4806 -1.7320
 7337TIP3    H243427   3.116   4.254  15.513 -0.0342  0.4060  1.2935
 7338TIP3   OH243428   1.091   0.108   2.190 -0.0083 -0.5037 -0.1873
 7338TIP3    H143429   1.167   0.057   2.216  0.4016 -0.1567 -0.7037
 7338TIP3    H243430   1.045   0.053   2.127 -1.4563 -1.7061  1.8331
 7339TIP3   OH243431   3.401   0.362  15.242 -0.2311 -0.5366 -0.3477
 7339TIP3    H143432   3.476   0.398  15.291  1.0190 -1.5377 -1.4854
 7339TIP3    H243433   3.408   0.403  15.156 -1.7084  0.2823 -0.0825
 7340TIP3   OH243434   0.354   6.043   2.448 -0.7740 -0.2462 -0.1945
 7340TIP3    H143435   0.355   5.988   2.527 -0.0812 -0.9142 -0.6565
 7340TIP3    H243436   0.334   6.130   2.480  0.0164 -0.4172  0.7972
 7341TIP3   OH243437   4.723   0.621   5.330  0.0793 -0.0921  0.2383
 7341TIP3    H143438   4.771   0.542   5.355  0.1218 -0.6553 -1.5655
 7341TIP3    H243439   4.666   0.593   5.259  0.1499  1.5224 -0.4737
 7342TIP3   OH243440   0.120   3.878  16.501 -0.6186  0.2760  0.0387
 7342TIP3    H143441   0.092   3.868  16.410  1.5826 -1.8113 -0.4491
 7342TIP3    H243442   0.188   3.946  16.498  1.0340 -1.3730 -0.2337
 7343TIP3   OH243443   4.742   5.195   4.145  0.0177  0.4643  0.2725
 7343TIP3    H143444   4.747   5.251   4.068  1.7432 -1.2116 -0.8904
 7343TIP3    H243445   4.776   5.249   4.216 -1.0028  1.8185 -0.2507
 7344TIP3   OH243446   2.219   3.158   0.814  0.1497  0.0998  0.1383
 7344TIP3    H143447   2.290   3.126   0.870  1.3112  0.8082 -0.9005
 7344TIP3    H243448   2.226   3.253   0.818  0.3500  0.1556 -1.3271
 7345TIP3   OH243449   1.143   6.248  15.397 -0.2649 -0.8658  0.1808
 7345TIP3    H143450   1.190   6.296  15.465  1.3554  0.9615 -2.1667
 7345TIP3    H243451   1.211   6.221  15.335 -2.0350  0.1773 -2.3131
 7346TIP3   OH243452   0.805   4.418   5.245 -0.2979  0.1676 -0.3059
 7346TIP3    H143453   0.742   4.356   5.283 -1.8759  1.4507 -0.7323
 7346TIP3    H243454   0.890   4.388   5.275 -1.1993 -1.0846  1.0789
 7347TIP3   OH243455   5.772   5.486   1.174 -0.3616 -0.1867  0.2371
 7347TIP3    H143456   5.745   5.445   1.255  0.1444 -1.7006 -0.3444
 7347TIP3    H243457   5.867   5.493   1.181 -0.3602  0.0830 -0.0371
 7348TIP3   OH243458   6.258   4.226   5.549  0.3121  0.1811 -0.3293
 7348TIP3    H143459   6.262   4.233   5.644 -0.2231 -0.7519 -0.2313
 7348TIP3    H243460   6.328   4.283   5.518  1.7795 -1.0312  0.6831
 7349TIP3   OH243461   2.169   0.259  15.400  0.5132 -0.7399 -0.3805
 7349TIP3    H143462   2.150   0.303  15.483 -0.5313 -0.5197 -0.7299
 7349TIP3    H243463   2.189   0.169  15.425  0.9884 -0.4802  0.1847
 7350TIP3   OH243464   3.982   3.124  15.474  0.1120 -0.3500 -0.0905
 7350TIP3    H143465   4.064   3.163  15.445  1.3795 -1.0810  2.4214
 7350TIP3    H243466   3.916   3.193  15.461  1.7774  1.5653  1.4965
 7351TIP3   OH243467   2.088   0.358   0.047 -1.2012  0.3677  0.0866
 7351TIP3    H143468   2.179   0.329   0.054 -1.2748  0.2524  0.5959
 7351TIP3    H243469   2.058   0.321  -0.036 -0.4537  1.3376 -0.6260
 7352TIP3   OH243470   0.042   6.367  13.231  0.1097  0.4970 -0.1766
 7352TIP3    H143471  -0.025   6.319  13.279 -1.2197  3.0930  0.6490
 7352TIP3    H243472   0.125   6.333  13.265 -0.7850 -0.9430  0.6206
 7353TIP3   OH243473   5.077   1.942   3.002 -0.6266  0.2230  0.6297
 7353TIP3    H143474   5.063   1.854   3.037  1.3116  0.5659  2.3777
 7353TIP3    H243475   5.019   1.947   2.926 -2.3614 -1.7893  1.7503
 7354TIP3   OH243476   1.183   2.729   3.625 -0.0387  0.4665 -0.0021
 7354TIP3    H143477   1.230   2.784   3.688  0.2971  0.5507 -0.3223
 7354TIP3    H243478   1.243   2.657   3.606 -0.5509 -0.1048  0.5472
 7355TIP3   OH243479   4.299   5.705   1.213  0.4583 -0.2144 -0.1551
 7355TIP3    H143480   4.263   5.741   1.294  0.8646  1.3571 -0.6562
 7355TIP3    H243481   4.325   5.615   1.236 -0.0076  0.0084  1.2776
 7356TIP3   OH243482   0.915   3.666  15.923 -0.0233  0.2618 -0.1019
 7356TIP3    H143483   0.846   3.600  15.922 -1.2153  1.4194  1.6868
 7356TIP3    H243484   0.992   3.621  15.958 -0.1265 -0.7891 -1.1963
 7357TIP3   OH243485   0.444   6.377  14.481 -0.2512  0.1681  0.1000
 7357TIP3    H143486   0.415   6.446  14.541  0.8231  0.7461 -0.0201
 7357TIP3    H243487   0.366   6.353  14.431 -0.5773  1.5170 -0.0579
 7358TIP3   OH243488   6.432   0.436  13.341 -0.3910  0.3872 -0.2139
 7358TIP3    H143489   6.403   0.346  13.325  0.8209 -0.1470  0.5037
 7358TIP3    H243490   6.351   0.487  13.344 -1.1852 -0.8930  0.6702
 7359TIP3   OH243491   3.390   1.372  14.428  0.4054  0.1134 -0.0947
 7359TIP3    H143492   3.307   1.348  14.469  0.9704 -3.4746 -0.8439
 7359TIP3    H243493   3.454   1.368  14.499  0.3336  0.3222 -0.0209
 7360TIP3   OH243494   3.228   1.216  13.649 -0.5212 -0.5913 -0.2555
 7360TIP3    H143495   3.229   1.307  13.619 -3.4473 -0.6778 -0.6779
 7360TIP3    H243496   3.229   1.223  13.744  2.6359 -0.2294 -0.2454
 7361TIP3   OH243497   0.224   6.342   4.920 -0.4048 -0.5929 -0.0728
 7361TIP3    H143498   0.218   6.400   4.844  0.4855  0.0331  0.3220
 7361TIP3    H243499   0.292   6.381   4.975  0.6657 -2.3441 -0.0950
 7362TIP3   OH243500   2.276   1.652  15.822 -0.3373  0.0791  0.0922
 7362TIP3    H143501   2.328   1.572  15.833 -0.2982  0.2188  0.9757
 7362TIP3    H243502   2.337   1.723  15.841 -0.4758  0.3003 -0.2983
 7363TIP3   OH243503   2.764   3.969   2.213  0.4380 -0.3193  0.3310
 7363TIP3    H143504   2.743   4.045   2.267  1.0571 -0.8594  1.3477
 7363TIP3    H243505   2.846   3.936   2.249  0.5822 -1.0106 -0.6091
 7364TIP3   OH243506   5.050   5.071  10.963  0.5803  0.6763  0.3163
 7364TIP3    H143507   5.118   5.021  10.917  0.0275  0.9055 -0.7729
 7364TIP3    H243508   4.973   5.063  10.907 -0.2175  0.6316  1.4252
 7365TIP3   OH243509   0.090   3.339   5.329 -0.2213 -0.3258 -0.0797
 7365TIP3    H143510   0.139   3.308   5.405  0.6138  1.9016  0.3009
 7365TIP3    H243511   0.128   3.292   5.255 -0.7343 -2.1660  0.7939
 7366TIP3   OH243512   0.497   0.440   0.657 -0.3145  0.2134  0.4182
 7366TIP3    H143513   0.506   0.353   0.696 -1.3616  0.8530  2.1450
 7366TIP3    H243514   0.582   0.457   0.617  0.5009 -0.8764  1.6250
 7367TIP3   OH243515   3.072   3.401   2.246 -0.4220  0.3179  0.0195
 7367TIP3    H143516   3.058   3.438   2.159  0.9142 -1.3629 -0.9451
 7367TIP3    H243517   2.985   3.378   2.277 -0.8010 -0.0962 -1.3441
 7368TIP3   OH243518   2.078   4.174   4.668 -0.2391  0.5084  0.0336
 7368TIP3    H143519   2.161   4.140   4.636 -0.0937 -0.7621  1.7040
 7368TIP3    H243520   2.098   4.213   4.753 -0.8098  2.9581 -0.8929
 7369TIP3   OH243521   6.012   1.245  14.930  0.0007  0.2880 -0.0415
 7369TIP3    H143522   6.012   1.149  14.929  1.6720  0.2624 -0.3585
 7369TIP3    H243523   5.957   1.269  15.004 -0.2154 -0.9306  0.2054
 7370TIP3   OH243524   0.442   0.420   2.025  0.6683 -0.2628 -0.1059
 7370TIP3    H143525   0.356   0.423   2.068  0.6061 -0.5835 -0.2109
 7370TIP3    H243526   0.439   0.343   1.969  0.7287  0.1925 -0.7397
 7371TIP3   OH243527   2.862   6.661  13.019  0.0439 -0.3590  0.0192
 7371TIP3    H143528   2.901   6.664  12.932  1.4597 -0.5460  0.6289
 7371TIP3    H243529   2.936   6.653  13.079 -0.8970 -0.1249  1.2560
 7372TIP3   OH243530   2.141   5.511  14.061  0.1783 -0.3636 -0.4332
 7372TIP3    H143531   2.052   5.525  14.027  0.8432 -1.1817 -2.5910
 7372TIP3    H243532   2.162   5.421  14.034  0.2901 -1.4920  3.2417
 7373TIP3   OH243533   0.397   5.221   5.516  0.2625  0.2454  0.4708
 7373TIP3    H143534   0.306   5.199   5.536  0.0496  1.9649  1.5021
 7373TIP3    H243535   0.403   5.315   5.532  1.8582  0.4161 -1.0218
 7374TIP3   OH243536   1.200   3.741   5.725 -0.1383 -0.3987  0.0604
 7374TIP3    H143537   1.177   3.782   5.642  0.7124  1.5451  0.7419
 7374TIP3    H243538   1.245   3.661   5.701 -1.5361 -0.7972 -1.3191
 7375TIP3   OH243539   1.113   1.281   1.567  0.0796 -0.2224 -0.3470
 7375TIP3    H143540   1.050   1.239   1.626 -0.5680  1.5102  0.2195
 7375TIP3    H243541   1.196   1.280   1.615 -0.3107  0.6360  0.3530
 7376TIP3   OH243542   1.880   4.683  12.502 -0.0333  0.6277 -0.0368
 7376TIP3    H143543   1.882   4.769  12.461 -1.1830  0.8144  0.2834
 7376TIP3    H243544   1.813   4.690  12.570 -0.5639 -0.6850 -0.4023
 7377TIP3   OH243545   3.765   6.372  15.122 -0.2124 -0.0683  0.1985
 7377TIP3    H143546   3.688   6.426  15.140 -0.5590 -0.8585  1.1087
 7377TIP3    H243547   3.771   6.313  15.197  0.1642 -1.3051 -0.7949
 7378TIP3   OH243548   5.856   0.942   0.231 -0.0391 -0.0116  0.1943
 7378TIP3    H143549   5.825   1.029   0.253 -1.5320 -0.4739  0.0221
 7378TIP3    H243550   5.863   0.942   0.136  1.8815  0.5314  0.3281
 7379TIP3   OH243551   0.798   4.283   2.498  0.4907 -0.0303 -0.0426
 7379TIP3    H143552   0.850   4.225   2.553 -1.4409 -1.3969  0.3592
 7379TIP3    H243553   0.811   4.249   2.409  0.0200 -0.5798  0.0967
 7380TIP3   OH243554   3.145   0.765  11.808  0.1178  0.0579 -0.3035
 7380TIP3    H143555   3.096   0.684  11.797  0.1006 -0.0426  0.5510
 7380TIP3    H243556   3.228   0.739  11.849  0.5183  0.3475 -0.9078
 7381TIP3   OH243557   6.195   2.152   5.137  0.1797  0.3227 -0.7705
 7381TIP3    H143558   6.247   2.094   5.192  0.2895 -0.1344 -1.3552
 7381TIP3    H243559   6.207   2.239   5.176  2.8553  0.5405 -1.9241
 7382TIP3   OH243560   0.438   3.230   2.482 -0.0176  0.1927  0.2611
 7382TIP3    H143561   0.502   3.198   2.546  0.2708 -1.6947 -0.9234
 7382TIP3    H243562   0.489   3.249   2.404 -0.9088 -1.7190 -0.8308
 7383TIP3   OH243563   4.146   5.379   1.171  0.0386 -0.2661  0.6568
 7383TIP3    H143564   4.207   5.428   1.116 -0.5483 -0.0879  0.1664
 7383TIP3    H243565   4.187   5.379   1.258  0.7996 -0.2620  0.2990
 7384TIP3   OH243566   4.726   4.173  13.587  0.1756 -0.2420 -0.1019
 7384TIP3    H143567   4.667   4.102  13.610 -0.6835  0.5166  0.0439
 7384TIP3    H243568   4.802   4.129  13.547 -0.9538 -1.1513 -1.2991
 7385TIP3   OH243569   6.608   3.023   5.454  0.2383  0.2236 -0.4129
 7385TIP3    H143570   6.521   3.051   5.484  0.0259 -0.4379 -0.4090
 7385TIP3    H243571   6.611   3.051   5.363 -0.3520 -0.6064 -0.6910
 7386TIP3   OH243572   3.918   6.357  17.165  0.0249  0.3178 -0.3630
 7386TIP3    H143573   3.947   6.353  17.256  1.8034  0.8878 -0.8857
 7386TIP3    H243574   3.839   6.411  17.167 -1.4038 -1.7241  1.1685
 7387TIP3   OH243575   3.695   1.040  12.156  0.7490 -0.1022 -0.3683
 7387TIP3    H143576   3.668   1.132  12.168  1.5683  0.5239 -3.0379
 7387TIP3    H243577   3.636   1.006  12.089  0.9475 -1.3242  0.0670
 7388TIP3   OH243578   1.932   3.669   1.175 -0.0166 -0.0376  0.0706
 7388TIP3    H143579   1.955   3.598   1.234 -0.4574 -1.2312 -1.1521
 7388TIP3    H243580   1.884   3.626   1.104  1.4347  1.1926 -1.7095
 7389TIP3   OH243581   5.470   1.541  12.795  0.1044 -0.3245  0.1504
 7389TIP3    H143582   5.436   1.557  12.883 -1.0568 -1.5968 -0.0452
 7389TIP3    H243583   5.429   1.608  12.740  1.4607  0.9784  0.7086
 7390TIP3   OH243584   0.322   5.146   4.673 -0.8830  0.4898 -0.0097
 7390TIP3    H143585   0.389   5.115   4.734 -0.7169  1.7879  0.4805
 7390TIP3    H243586   0.290   5.066   4.631 -2.8955 -0.7976  3.6953
 7391TIP3   OH243587   4.577   1.000  11.875  0.6545 -0.1413  0.1013
 7391TIP3    H143588   4.660   0.953  11.862  0.9370  0.3555  0.0923
 7391TIP3    H243589   4.592   1.086  11.835  1.0044  0.8661  2.2724
 7392TIP3   OH243590   3.896   3.224  13.612 -0.2697  0.3947  0.3102
 7392TIP3    H143591   3.898   3.293  13.677 -1.1433  0.6084  0.1189
 7392TIP3    H243592   3.811   3.181  13.625 -0.0041 -0.2296  0.0091
 7393TIP3   OH243593   2.067   6.651   3.689 -0.2147  0.1712 -0.8240
 7393TIP3    H143594   2.023   6.634   3.606 -1.4562 -1.4579  0.1393
 7393TIP3    H243595   2.079   6.564   3.728  2.3759  0.7224 -0.3106
 7394TIP3   OH243596   6.391   3.211  15.896 -0.2951  0.0461  0.2714
 7394TIP3    H143597   6.304   3.173  15.886  0.5097 -1.8050 -0.0047
 7394TIP3    H243598   6.441   3.176  15.822  0.9305  0.3184  0.9472
 7395TIP3   OH243599   1.510   0.575   1.053  0.9646 -0.2025  0.0116
 7395TIP3    H143600   1.547   0.590   0.966 -0.4850  1.2446 -0.3850
 7395TIP3    H243601   1.415   0.575   1.039  0.6249  2.2327  1.9034
 7396TIP3   OH243602   4.006   1.458  12.023  0.2187  0.0327 -0.5387
 7396TIP3    H143603   4.062   1.399  12.074  0.8215  0.7794 -0.3258
 7396TIP3    H243604   4.033   1.443  11.933 -0.9471 -1.3950 -0.6837
 7397TIP3   OH243605   5.147   6.415  15.516  0.3934 -0.0191  0.0832
 7397TIP3    H143606   5.097   6.335  15.531  2.7975 -1.8314 -1.2157
 7397TIP3    H243607   5.160   6.418  15.421  0.2136  2.0326  0.0888
 7398TIP3   OH243608   6.422   2.622   6.200 -0.1546 -0.0518  0.5520
 7398TIP3    H143609   6.400   2.530   6.212  2.1517 -0.6043  0.7516
 7398TIP3    H243610   6.510   2.631   6.236  0.1509  1.9646 -0.6141
 7399TIP3   OH243611   0.179   1.217  11.719  0.2249  0.4966  0.2582
 7399TIP3    H143612   0.094   1.193  11.683  0.1282  0.1505  0.7045
 7399TIP3    H243613   0.231   1.137  11.713  2.0196  1.8238 -4.1782
 7400TIP3   OH243614   1.245   2.515   0.340 -0.1451  0.1013  0.1654
 7400TIP3    H143615   1.151   2.500   0.327  0.0714 -0.6145 -0.6357
 7400TIP3    H243616   1.285   2.430   0.320  0.5431 -0.0399  2.0186
 7401TIP3   OH243617   4.461   2.406  14.312 -0.2842  0.2175 -0.0557
 7401TIP3    H143618   4.442   2.442  14.226 -1.8782  2.4234  1.1792
 7401TIP3    H243619   4.509   2.475  14.357  1.7831 -1.4557  0.3699
 7402TIP3   OH243620   5.039   5.311  15.081  0.9697 -0.0324 -0.0961
 7402TIP3    H143621   4.983   5.286  15.155  1.1537 -1.1788 -0.3263
 7402TIP3    H243622   5.106   5.367  15.119  0.7776 -0.2124  0.5199
 7403TIP3   OH243623   3.602   4.251  14.542 -0.6431  0.3360  0.2226
 7403TIP3    H143624   3.537   4.202  14.492  1.0452 -1.2592 -0.4808
 7403TIP3    H243625   3.682   4.243  14.490 -0.1612  3.2930  0.4437
 7404TIP3   OH243626   4.017   0.348  15.601  0.1445  0.8667 -0.5999
 7404TIP3    H143627   4.109   0.324  15.612 -0.5473 -1.1952  0.8834
 7404TIP3    H243628   3.982   0.353  15.690 -1.4335  0.5865 -1.1819
 7405TIP3   OH243629   5.992   2.078   2.154 -0.6013  0.0522  0.4973
 7405TIP3    H143630   6.049   2.154   2.152 -1.0189  0.3738  0.6992
 7405TIP3    H243631   6.049   2.004   2.131 -0.2403  0.4495  0.1085
 7406TIP3   OH243632   3.645   3.542  13.210 -0.1469 -0.1167  0.0267
 7406TIP3    H143633   3.713   3.479  13.235  1.1701  0.2978 -2.3891
 7406TIP3    H243634   3.569   3.517  13.262  1.1233 -2.1055  0.9896
 7407TIP3   OH243635   1.955   1.955   4.702 -0.8043  0.3327 -0.5111
 7407TIP3    H143636   2.000   1.905   4.769  1.2160  0.7768 -1.5153
 7407TIP3    H243637   1.863   1.926   4.709 -0.5379 -0.0037  2.0326
 7408TIP3   OH243638   6.682   1.371  12.453 -0.7223  0.0318 -0.2794
 7408TIP3    H143639   6.650   1.457  12.426  1.0774  1.2298  1.2505
 7408TIP3    H243640   6.657   1.364  12.545  0.5084 -0.4016  0.0305
 7409TIP3   OH243641   4.204   5.372  17.108  0.0694  0.1808 -0.1048
 7409TIP3    H143642   4.271   5.304  17.101 -0.0125  0.0189  0.6233
 7409TIP3    H243643   4.162   5.374  17.022  1.1286  0.4104 -0.6341
 7410TIP3   OH243644   6.710   0.551  11.568  0.6038  0.4606  0.2285
 7410TIP3    H143645   6.697   0.457  11.568  0.3676  0.4810 -1.5657
 7410TIP3    H243646   6.622   0.587  11.583  0.4709  0.4153 -0.4397
 7411TIP3   OH243647   5.189   6.745  14.862 -0.3122  0.5743  0.1966
 7411TIP3    H143648   5.187   6.663  14.911 -1.6731  0.2215 -0.4290
 7411TIP3    H243649   5.220   6.719  14.775  2.1156  1.1986  0.8198
 7412TIP3   OH243650   1.523   4.025   0.776 -0.4578 -0.8534  0.1927
 7412TIP3    H143651   1.496   3.969   0.703  1.8532 -0.8274 -0.7277
 7412TIP3    H243652   1.581   3.970   0.828  0.2027  0.0355  0.4051
 7413TIP3   OH243653   2.749   4.416  13.316 -0.2805 -0.4336  0.3195
 7413TIP3    H143654   2.689   4.423  13.390  1.2893 -1.0150  1.6697
 7413TIP3    H243655   2.808   4.344  13.339  1.5462  0.7506 -0.5425
 7414TIP3   OH243656   3.126   4.909  14.601  0.1660  0.1462 -0.0180
 7414TIP3    H143657   3.053   4.966  14.576  0.3023  0.3689  0.0920
 7414TIP3    H243658   3.115   4.895  14.695  0.6177  0.6807  0.1127
 7415TIP3   OH243659   3.494   1.713  13.999  0.3702 -0.5681  0.3559
 7415TIP3    H143660   3.581   1.739  13.971  0.7815  0.4900  2.5524
 7415TIP3    H243661   3.509   1.654  14.073 -0.7822  0.0674  1.1148
 7416TIP3   OH243662   5.229   0.554  15.655  0.2512 -0.1486 -0.1549
 7416TIP3    H143663   5.247   0.641  15.618 -1.3081 -0.3612 -1.4677
 7416TIP3    H243664   5.201   0.501  15.580  1.8984 -2.0172  0.5019
 7417TIP3   OH243665   5.400   5.372  16.997  0.5509 -0.3082  0.3689
 7417TIP3    H143666   5.354   5.309  16.941  0.3416 -0.9676  1.2642
 7417TIP3    H243667   5.331   5.427  17.033  0.7902  0.7837 -0.8356
 7418TIP3   OH243668   5.275   1.575   1.266  0.3248 -0.2580  0.7716
 7418TIP3    H143669   5.189   1.591   1.226 -0.7815  0.5091  3.3341
 7418TIP3    H243670   5.312   1.663   1.276  0.4002 -0.4092  1.8080
 7419TIP3   OH243671   4.938   0.136  12.415  0.2174 -0.3063  0.3329
 7419TIP3    H143672   4.982   0.101  12.338 -1.6573  1.2881 -1.5291
 7419TIP3    H243673   4.846   0.113  12.403 -0.4714  2.0157  0.8631
 7420TIP3   OH243674   5.551   1.235   2.399 -0.2752 -0.1441  0.1753
 7420TIP3    H143675   5.503   1.313   2.371 -0.9174 -0.2008  1.1079
 7420TIP3    H243676   5.542   1.174   2.326  1.2103  1.0573 -1.0654
 7421TIP3   OH243677   1.286   1.830   2.562  0.3556  0.2569 -0.0803
 7421TIP3    H143678   1.266   1.889   2.635  1.7190  1.3752 -0.5842
 7421TIP3    H243679   1.248   1.746   2.588 -1.2121  1.2236  0.8680
 7422TIP3   OH243680   4.416   3.668   6.756  0.0356 -0.3572  0.5421
 7422TIP3    H143681   4.454   3.701   6.675 -2.0698 -0.4910 -0.5420
 7422TIP3    H243682   4.322   3.678   6.745 -0.4101 -2.2232  2.1569
 7423TIP3   OH243683   3.945   5.221  15.785 -0.2689 -0.0485 -0.2178
 7423TIP3    H143684   4.040   5.234  15.791 -0.0190 -1.7675 -0.2593
 7423TIP3    H243685   3.909   5.276  15.854  0.6923  1.1370 -0.6176
 7424TIP3   OH243686   0.206   5.394   4.893 -0.2841 -0.1662  0.3532
 7424TIP3    H143687   0.225   5.365   4.982  0.2112 -1.7605 -0.2553
 7424TIP3    H243688   0.119   5.434   4.899 -0.0090  0.2746  1.6479
 7425TIP3   OH243689   1.634   2.544  13.452  0.6880 -0.7127  0.4276
 7425TIP3    H143690   1.595   2.462  13.423  0.7350 -0.4963 -0.2479
 7425TIP3    H243691   1.560   2.604  13.463  0.9212  0.0448 -1.9740
 7426TIP3   OH243692   1.210   6.684   2.914 -0.0708 -0.0077 -0.2138
 7426TIP3    H143693   1.250   6.603   2.946 -0.8496 -0.7001 -0.9630
 7426TIP3    H243694   1.127   6.690   2.961 -2.0816 -1.9829 -3.3067
 7427TIP3   OH243695   0.102   4.897  16.580 -0.0036 -0.3088  0.7739
 7427TIP3    H143696   0.039   4.931  16.644  0.3393  0.5401  0.6680
 7427TIP3    H243697   0.180   4.953  16.591  0.1663 -0.3545 -0.1716
 7428TIP3   OH243698   2.332   6.728  15.261 -0.1881 -0.0271 -0.5918
 7428TIP3    H143699   2.356   6.762  15.347  0.9684 -0.7473 -0.6291
 7428TIP3    H243700   2.258   6.670  15.278 -0.0807 -0.0247 -0.1159
 7429TIP3   OH243701   4.714   0.802   0.995  0.2879  0.6050  0.1086
 7429TIP3    H143702   4.686   0.893   1.005 -0.8538  0.2756 -0.0975
 7429TIP3    H243703   4.698   0.762   1.081  0.0397  0.3957 -0.0348
 7430TIP3   OH243704   6.277   6.295   2.579 -0.0329  0.4845 -0.0524
 7430TIP3    H143705   6.285   6.390   2.583  2.7262  0.3082 -0.4990
 7430TIP3    H243706   6.289   6.265   2.669  2.0726  0.3893 -0.3466
 7431TIP3   OH243707   3.908   4.333  12.046  0.0559  0.4461 -0.6323
 7431TIP3    H143708   3.951   4.253  12.014  0.4931  0.5797 -0.3826
 7431TIP3    H243709   3.842   4.352  11.980 -0.2920 -0.3271 -0.5143
 7432TIP3   OH243710   5.002   5.732   5.716 -0.0179 -0.3689  0.0039
 7432TIP3    H143711   4.960   5.659   5.672 -3.8081  0.3812  2.1333
 7432TIP3    H243712   4.958   5.810   5.681  2.7049  0.8375 -0.9213
 7433TIP3   OH243713   6.684   3.087  16.193  0.2875  0.5404 -0.5632
 7433TIP3    H143714   6.772   3.120  16.212  0.0481  0.5336  0.6221
 7433TIP3    H243715   6.684   3.070  16.099  1.1420  1.7760 -0.8006
 7434TIP3   OH243716   5.949   6.226  10.897  0.5697 -0.4891  0.1609
 7434TIP3    H143717   6.041   6.214  10.922  0.9268  0.1932 -0.7761
 7434TIP3    H243718   5.918   6.138  10.878  1.0085 -0.7334  0.5631
 7435TIP3   OH243719   4.552   6.627  16.867 -0.0429  0.3689 -0.1445
 7435TIP3    H143720   4.518   6.540  16.848 -0.8811  0.1687  2.1451
 7435TIP3    H243721   4.477   6.676  16.901  0.9799  1.1876  1.0197
 7436TIP3   OH243722   6.468   2.776  11.614 -0.6118 -0.0798 -0.0041
 7436TIP3    H143723   6.418   2.709  11.662 -1.1544  0.7833  0.6442
 7436TIP3    H243724   6.401   2.832  11.575 -0.1575 -0.2846 -1.0889
 7437TIP3   OH243725   3.256   4.698  13.959  0.2427 -0.3355  0.5136
 7437TIP3    H143726   3.261   4.713  13.865  0.8965  1.1701  0.7671
 7437TIP3    H243727   3.165   4.718  13.982  0.5873  1.3310  0.5096
 7438TIP3   OH243728   0.285   0.995  12.235  0.5342 -0.0933 -0.2333
 7438TIP3    H143729   0.237   1.064  12.279  1.8097  1.2035 -0.8317
 7438TIP3    H243730   0.261   0.915  12.282  1.3542  1.1581  2.3897
 7439TIP3   OH243731   6.658   0.771  14.868  0.3574 -0.6575 -0.8113
 7439TIP3    H143732   6.635   0.682  14.896 -0.8114  0.2743  1.2696
 7439TIP3    H243733   6.702   0.809  14.943  0.8623  0.5453 -1.7018
 7440TIP3   OH243734   4.294   1.162  10.205 -0.1638  0.1779  0.0237
 7440TIP3    H143735   4.379   1.186  10.242 -0.0926  1.5275 -0.9777
 7440TIP3    H243736   4.240   1.240  10.217 -0.6977 -0.0261 -1.0091
 7441TIP3   OH243737   1.834   1.056  16.535 -0.0188  0.6502  0.4517
 7441TIP3    H143738   1.743   1.071  16.560 -0.2925 -0.1760 -0.0431
 7441TIP3    H243739   1.882   1.055  16.618 -1.1635 -3.8830  1.2036
 7442TIP3   OH243740   3.420   2.390  11.241  0.0404 -0.3528  0.0688
 7442TIP3    H143741   3.357   2.360  11.307  0.2747  0.1654  0.5305
 7442TIP3    H243742   3.428   2.484  11.256  1.2848 -0.4900  0.3219
 7443TIP3   OH243743   3.246   3.320   4.932  0.1866  0.2845  0.0089
 7443TIP3    H143744   3.181   3.385   4.904  1.0255  1.2155  0.1777
 7443TIP3    H243745   3.324   3.372   4.954  0.3952 -0.6470  1.5487
 7444TIP3   OH243746   1.016   4.846  14.754  0.2389  0.5249  0.0122
 7444TIP3    H143747   0.937   4.799  14.782 -1.1624  0.7834 -3.2211
 7444TIP3    H243748   1.067   4.780  14.707  0.2711  1.1837 -0.8839
 7445TIP3   OH243749   4.230   2.971  11.391  0.2489  0.1646  0.1368
 7445TIP3    H143750   4.225   2.973  11.486  1.1456  0.6278  0.1752
 7445TIP3    H243751   4.148   3.012  11.362  1.0742  2.2946  0.7334
 7446TIP3   OH243752   1.069   2.245   2.099  0.2756 -0.2332 -0.2090
 7446TIP3    H143753   1.077   2.202   2.014 -0.1261 -1.8876  0.5743
 7446TIP3    H243754   0.976   2.270   2.105  0.0104 -1.3461  0.3258
 7447TIP3   OH243755   0.786   2.247   6.020 -0.2600 -0.2961 -0.1968
 7447TIP3    H143756   0.877   2.221   6.006 -0.4610 -1.3501  0.3965
 7447TIP3    H243757   0.739   2.213   5.944 -0.6599 -2.4162  0.9743
 7448TIP3   OH243758   3.354   1.084  11.399  0.0749  0.0310 -0.6980
 7448TIP3    H143759   3.349   1.069  11.305 -1.0832  1.6491 -0.9012
 7448TIP3    H243760   3.446   1.105  11.414  0.2017  0.0805 -1.5067
 7449TIP3   OH243761   0.784   1.328   3.330 -0.0712 -0.2659  0.1058
 7449TIP3    H143762   0.860   1.364   3.376  1.3012 -1.7852 -0.9292
 7449TIP3    H243763   0.806   1.236   3.317 -0.9589 -0.1272 -2.5381
 7450TIP3   OH243764   6.217   2.265  13.850  0.3243 -0.2184  0.2631
 7450TIP3    H143765   6.133   2.242  13.890 -0.7366  1.3772 -0.9618
 7450TIP3    H243766   6.244   2.346  13.893  1.1305 -0.6125  0.5038
 7451TIP3   OH243767   5.884   0.082   1.314  0.0061  0.3549  0.4186
 7451TIP3    H143768   5.855   0.059   1.402 -1.2090  1.9230  0.4454
 7451TIP3    H243769   5.843   0.016   1.257  0.1040 -0.1484  0.9254
 7452TIP3   OH243770   1.767   3.115   5.103  0.3295 -0.0434 -0.4750
 7452TIP3    H143771   1.723   3.189   5.146  0.8213 -0.2031  0.3029
 7452TIP3    H243772   1.726   3.038   5.141  0.2273 -0.1772 -0.8609
 7453TIP3   OH243773   1.942   6.595  12.775  0.1436  0.2992  0.4682
 7453TIP3    H143774   1.949   6.641  12.859  0.0972 -1.1025  1.2605
 7453TIP3    H243775   1.850   6.605  12.750  0.0895  0.4768  0.7302
 7454TIP3   OH243776   2.609   2.917   3.710 -0.0193  0.1038 -0.2933
 7454TIP3    H143777   2.515   2.899   3.707  0.1677 -0.9732  0.0677
 7454TIP3    H243778   2.623   2.983   3.642 -1.3862  1.9307  1.1619
 7455TIP3   OH243779   5.639   2.775  14.182  0.2845 -0.6714 -0.3695
 7455TIP3    H143780   5.571   2.754  14.117 -0.7982 -1.3910  0.9825
 7455TIP3    H243781   5.688   2.847  14.142 -0.8107 -0.6335 -1.6825
 7456TIP3   OH243782   0.253   0.073  13.367 -0.5207  0.0184  0.0186
 7456TIP3    H143783   0.303   0.153  13.381  2.0508 -1.3139 -1.2433
 7456TIP3    H243784   0.271   0.019  13.444  0.1901 -0.5752 -0.5644
 7457TIP3   OH243785   5.440   2.838  11.735 -0.1689  0.4479 -0.1605
 7457TIP3    H143786   5.532   2.866  11.739  0.5246 -1.0294 -3.5768
 7457TIP3    H243787   5.397   2.885  11.806  3.1524  1.5197  1.2318
 7458TIP3   OH243788   0.755   0.233  11.063  0.3681 -0.2269 -0.5211
 7458TIP3    H143789   0.789   0.144  11.073  1.5883  0.3759  1.0191
 7458TIP3    H243790   0.701   0.230  10.984 -0.0707 -2.4587 -0.1561
 7459TIP3   OH243791   2.241   5.935   5.985 -0.1052 -0.0361 -0.2079
 7459TIP3    H143792   2.290   5.955   5.905  1.0847  1.8375  0.9366
 7459TIP3    H243793   2.149   5.937   5.958  0.3635 -2.0310 -2.0620
 7460TIP3   OH243794   0.107   0.325  14.960 -0.2194 -0.0336 -0.1316
 7460TIP3    H143795   0.111   0.387  15.033 -0.0974 -0.0813 -0.0977
 7460TIP3    H243796   0.198   0.315  14.932 -0.1059 -1.0580  0.5852
 7461TIP3   OH243797   2.153   6.135  14.912  0.4493  0.8751  0.1818
 7461TIP3    H143798   2.138   6.048  14.876  0.1167  0.5518  1.0945
 7461TIP3    H243799   2.227   6.125  14.970  1.4073  1.5402 -0.9024
 7462TIP3   OH243800   3.092   5.471   3.302  0.2922 -0.4630  0.2944
 7462TIP3    H143801   3.045   5.444   3.223 -0.8967  1.1511  0.4064
 7462TIP3    H243802   3.028   5.461   3.372  1.3003 -1.7548  1.0454
 7463TIP3   OH243803   0.608   4.789  12.357  0.4254 -0.0614  0.3207
 7463TIP3    H143804   0.575   4.738  12.283 -0.1616  0.2397  0.3714
 7463TIP3    H243805   0.530   4.806  12.411  0.8079 -0.0638  0.8743
 7464TIP3   OH243806   2.499   5.568  13.305 -0.4932  0.1415  0.2534
 7464TIP3    H143807   2.544   5.646  13.336 -1.0252  0.4094  0.3617
 7464TIP3    H243808   2.419   5.563  13.358  1.4383 -2.7652  3.0919
 7465TIP3   OH243809   4.700   1.650   3.961  0.0596  0.3319  0.6765
 7465TIP3    H143810   4.636   1.714   3.992  0.3098  0.6482  0.5357
 7465TIP3    H243811   4.666   1.566   3.992  0.4352  0.6690  2.0581
 7466TIP3   OH243812   5.918   1.055   4.788  0.2287 -0.1831 -0.2118
 7466TIP3    H143813   5.911   1.018   4.876 -0.5598  0.7077  0.1091
 7466TIP3    H243814   5.828   1.077   4.765  0.7393  2.0457 -0.1617
 7467TIP3   OH243815   6.677   1.500   3.518  0.4378  0.1495  0.0482
 7467TIP3    H143816   6.670   1.517   3.424 -1.0293 -0.6108 -0.0064
 7467TIP3    H243817   6.692   1.586   3.557  0.4039  0.5614 -0.8296
 7468TIP3   OH243818   3.758   3.975  11.370 -0.1763 -0.1138 -0.6042
 7468TIP3    H143819   3.827   3.989  11.306  0.1845 -2.3914 -0.7557
 7468TIP3    H243820   3.785   4.026  11.446  0.4655  0.8797 -1.4791
 7469TIP3   OH243821   4.876   4.639  13.491 -0.9685  0.3925 -0.0128
 7469TIP3    H143822   4.801   4.591  13.525  0.2254 -0.3234  1.7199
 7469TIP3    H243823   4.919   4.675  13.569 -0.0308  1.5607 -1.0441
 7470TIP3   OH243824   3.991   4.132   0.423 -0.3264  0.3181  0.1132
 7470TIP3    H143825   4.031   4.045   0.426 -1.0202  0.0186  1.2560
 7470TIP3    H243826   3.907   4.121   0.467 -0.9842  1.2848 -0.8774
 7471TIP3   OH243827   0.491   4.227  14.930 -0.4486  0.5645 -0.2135
 7471TIP3    H143828   0.549   4.185  14.993 -0.6609 -1.1142 -1.0978
 7471TIP3    H243829   0.431   4.280  14.983 -0.3361 -0.4635  0.9504
 7472TIP3   OH243830   3.242   0.899  13.777 -0.5419  0.0497 -0.1266
 7472TIP3    H143831   3.284   0.873  13.859  0.2956 -0.3220 -0.6692
 7472TIP3    H243832   3.253   0.994  13.774  1.7504 -0.2113 -1.0583
 7473TIP3   OH243833   0.184   5.754   3.373 -0.3737 -0.1080 -0.4313
 7473TIP3    H143834   0.279   5.762   3.367 -0.4060  1.1772  0.4685
 7473TIP3    H243835   0.152   5.775   3.285  0.3076 -3.3517 -1.5071
 7474TIP3   OH243836   2.116   2.477   1.716  0.5309  0.1196  0.3445
 7474TIP3    H143837   2.140   2.477   1.808 -1.0553  3.9175  0.8530
 7474TIP3    H243838   2.198   2.488   1.669  1.0248  1.6051  1.5141
 7475TIP3   OH243839   4.024   5.962  13.986 -0.2176  0.1811  0.2202
 7475TIP3    H143840   4.008   6.025  13.916 -0.0594  1.9057  1.6844
 7475TIP3    H243841   4.119   5.951  13.989 -0.0747  1.5721  1.3733
 7476TIP3   OH243842   5.337   6.630   5.735  0.1685 -0.5153 -0.0025
 7476TIP3    H143843   5.357   6.584   5.817 -0.4872  1.5342  1.3287
 7476TIP3    H243844   5.406   6.696   5.727 -0.0628 -0.3675 -0.8562
 7477TIP3   OH243845   4.635   4.486   5.906  0.2099  0.4758  0.9169
 7477TIP3    H143846   4.617   4.570   5.865 -0.1437 -0.4530 -0.9100
 7477TIP3    H243847   4.728   4.489   5.928  0.1789  1.3631  0.9486
 7478TIP3   OH243848   1.431   6.106  11.316  0.0350  0.2605 -0.4486
 7478TIP3    H143849   1.509   6.093  11.261  2.1763 -0.2204  2.5744
 7478TIP3    H243850   1.464   6.156  11.391 -2.7287  0.4882  0.6390
 7479TIP3   OH243851   3.366   4.695   5.994 -0.2284 -0.2937  0.0935
 7479TIP3    H143852   3.288   4.750   6.008  0.9951  1.1680  1.3551
 7479TIP3    H243853   3.331   4.607   5.979 -2.0818  0.1012  1.9056
 7480TIP3   OH243854   0.427   1.418   3.172 -0.0810 -0.0044  0.8947
 7480TIP3    H143855   0.442   1.456   3.259  0.1404  0.3595  0.6974
 7480TIP3    H243856   0.515   1.404   3.137 -0.1611 -0.8171  1.0180
 7481TIP3   OH243857   4.673   6.213   0.076  0.0996 -0.3188 -0.0853
 7481TIP3    H143858   4.736   6.145   0.054  1.6422  0.7359  1.0141
 7481TIP3    H243859   4.678   6.275   0.003  0.1966 -0.3248 -0.0832
 7482TIP3   OH243860   4.741   2.338   3.819  0.0489 -0.3462 -0.1641
 7482TIP3    H143861   4.745   2.394   3.742 -0.3921 -0.1013 -0.0080
 7482TIP3    H243862   4.741   2.398   3.893 -0.3091 -0.5505  0.0046
 7483TIP3   OH243863   3.086   6.689  17.219  0.0624 -0.8731 -0.8518
 7483TIP3    H143864   3.166   6.741  17.230  0.4564 -1.3360 -1.5358
 7483TIP3    H243865   3.092   6.622  17.287  0.4316 -1.1397 -1.1534
 7484TIP3   OH243866   5.086   5.418   0.433  0.4742  0.0095 -0.1974
 7484TIP3    H143867   5.145   5.434   0.359 -0.6265  0.2892 -1.0284
 7484TIP3    H243868   5.122   5.340   0.476  1.9537  0.6871 -0.1550
 7485TIP3   OH243869   2.968   1.125   2.820  0.0848 -0.8011  0.4820
 7485TIP3    H143870   2.976   1.030   2.813 -0.0975 -0.8308  0.6831
 7485TIP3    H243871   3.033   1.159   2.759 -0.4220 -1.0627 -0.2158
 7486TIP3   OH243872   2.146   1.819   4.858 -0.5471  0.3982 -0.1947
 7486TIP3    H143873   2.173   1.867   4.779 -0.0443  0.0392 -0.2426
 7486TIP3    H243874   2.169   1.878   4.930  0.8934 -0.1246 -0.1993
 7487TIP3   OH243875   5.658   0.644   3.349  0.2173 -0.1742 -0.2209
 7487TIP3    H143876   5.729   0.696   3.387  0.0640 -0.1192 -0.0082
 7487TIP3    H243877   5.605   0.617   3.425  1.4326 -2.3473 -0.1079
 7488TIP3   OH243878   1.960   3.751  11.311 -0.4608 -0.4637  0.0005
 7488TIP3    H143879   2.005   3.678  11.268 -2.1643 -0.9709 -0.9966
 7488TIP3    H243880   1.871   3.717  11.328 -0.5920  0.6216  1.5737
 7489TIP3   OH243881   2.401   4.650   5.785 -0.6063  0.1513  0.7114
 7489TIP3    H143882   2.451   4.588   5.731 -1.5971 -2.2192  2.4940
 7489TIP3    H243883   2.321   4.604   5.807 -2.1867  2.7602  0.6014
 7490TIP3   OH243884   2.565   5.945   4.888 -0.2038  0.0104  0.2863
 7490TIP3    H143885   2.650   5.987   4.905  0.4265 -0.9823 -0.3241
 7490TIP3    H243886   2.575   5.856   4.923 -0.6949 -0.3818 -0.5360
 7491TIP3   OH243887   0.001   5.899  17.142 -0.2944 -0.5296  0.2195
 7491TIP3    H143888   0.011   5.888  17.048 -1.5822 -0.6438  0.0828
 7491TIP3    H243889   0.090   5.903  17.176  0.2214 -3.4066 -0.6559
 7492TIP3   OH243890   4.907   1.655  14.963 -0.0371  0.6958 -0.4875
 7492TIP3    H143891   4.977   1.661  14.897 -1.3664  0.1779 -1.9859
 7492TIP3    H243892   4.907   1.564  14.991  0.2089  0.8053 -0.1321
 7493TIP3   OH243893   3.957   6.266   5.773 -0.4247  0.3702 -0.1225
 7493TIP3    H143894   3.997   6.289   5.689  0.1531 -0.3809 -0.0584
 7493TIP3    H243895   3.873   6.227   5.748 -1.9869  3.6150 -0.1743
 7494TIP3   OH243896   3.367   1.136   4.821 -0.2721  0.2765 -0.1961
 7494TIP3    H143897   3.293   1.197   4.827  0.0311  0.7269 -0.8502
 7494TIP3    H243898   3.330   1.051   4.845 -0.7319  0.6916  0.6184
 7495TIP3   OH243899   3.091   5.257   5.086 -0.0604 -0.0271  0.5367
 7495TIP3    H143900   3.183   5.237   5.073 -0.8066 -3.8870  0.3154
 7495TIP3    H243901   3.053   5.254   4.998 -1.0406 -2.6216  0.9883
 7496TIP3   OH243902   5.431   2.951   5.425  0.0822  0.3283 -0.0750
 7496TIP3    H143903   5.336   2.955   5.422  0.0900  1.0269  0.5110
 7496TIP3    H243904   5.451   2.861   5.449 -0.4079 -0.0192 -0.9511
 7497TIP3   OH243905   4.440   4.347   5.430 -0.1790  0.0439 -0.0061
 7497TIP3    H143906   4.410   4.399   5.505 -1.5039 -0.3507 -0.2576
 7497TIP3    H243907   4.495   4.279   5.469 -0.2148  0.3204  0.5314
 7498TIP3   OH243908   4.543   6.422  13.884 -0.2978  0.0633 -0.0619
 7498TIP3    H143909   4.554   6.509  13.845  2.1484  0.1660  0.7561
 7498TIP3    H243910   4.621   6.374  13.855 -0.3376 -1.0361  1.6179
 7499TIP3   OH243911   4.597   4.306  14.790  0.0917 -1.2396  0.6055
 7499TIP3    H143912   4.522   4.258  14.754 -0.7406  0.3747  0.1540
 7499TIP3    H243913   4.646   4.335  14.713  0.5220 -1.2349  0.8760
 7500TIP3   OH243914   1.877   3.165   5.512  0.0144 -0.3807  0.0915
 7500TIP3    H143915   1.953   3.110   5.534  0.5443  0.5382  0.5619
 7500TIP3    H243916   1.915   3.240   5.467 -0.6884 -0.2381 -0.2608
 7501TIP3   OH243917   1.758   2.433   0.298 -0.1697  0.2589 -0.5239
 7501TIP3    H143918   1.699   2.481   0.240 -1.3307 -1.5513 -0.8606
 7501TIP3    H243919   1.799   2.368   0.242 -0.6044 -0.8949  0.4727
 7502TIP3   OH243920   1.425   6.707  13.275  0.1207  0.3001  0.2893
 7502TIP3    H143921   1.334   6.683  13.296 -0.4923  0.9386 -1.5497
 7502TIP3    H243922   1.473   6.624  13.280 -0.9371 -0.3877 -0.6530
 7503TIP3   OH243923   4.290   3.712  14.842 -0.3032 -0.2248 -0.5154
 7503TIP3    H143924   4.263   3.802  14.821  0.0237 -0.1949 -0.8200
 7503TIP3    H243925   4.216   3.658  14.816  0.2103 -0.2151 -2.0524
 7504TIP3   OH243926   3.010   3.133   3.289 -0.3226  0.4211  0.1585
 7504TIP3    H143927   2.985   3.224   3.273  0.6123  1.2528  3.2357
 7504TIP3    H243928   2.982   3.116   3.379  1.1481 -1.7750  0.2211
 7505TIP3   OH243929   4.281   1.657  10.437 -0.5660 -0.8960  0.1185
 7505TIP3    H143930   4.371   1.690  10.445 -0.6686 -0.7359  0.6362
 7505TIP3    H243931   4.236   1.694  10.513 -0.9648 -1.3178  0.0848
 7506TIP3   OH243932   3.531   2.532   6.376  0.3425  0.2312 -0.5090
 7506TIP3    H143933   3.499   2.588   6.447  1.4566  0.5147 -0.2257
 7506TIP3    H243934   3.592   2.588   6.327  1.7142 -0.8341 -0.0290
 7507TIP3   OH243935   0.787   2.699   3.769  0.2736 -0.4854  0.2770
 7507TIP3    H143936   0.794   2.698   3.865  3.3025  0.7190  0.1243
 7507TIP3    H243937   0.851   2.633   3.740 -0.9989 -1.2175 -0.9162
 7508TIP3   OH243938   1.229   0.419   1.044 -0.3913 -0.2361 -0.0876
 7508TIP3    H143939   1.162   0.432   0.976 -0.9249  2.5608  0.8954
 7508TIP3    H243940   1.193   0.464   1.121  1.3857 -1.0946  1.2649
 7509TIP3   OH243941   0.716   3.811   2.039 -0.4471 -0.1669  0.2650
 7509TIP3    H143942   0.723   3.845   2.128 -2.1606  0.0062  0.3576
 7509TIP3    H243943   0.639   3.754   2.042  1.4855 -2.9127 -0.2581
 7510TIP3   OH243944   1.318   0.408   0.489 -0.2002 -0.1460 -0.3036
 7510TIP3    H143945   1.309   0.458   0.408 -1.2150  0.2921  0.0678
 7510TIP3    H243946   1.401   0.438   0.527  0.6166 -0.8504 -1.5044
 7511TIP3   OH243947   6.547   3.446  14.347  0.3203  0.0499  0.1510
 7511TIP3    H143948   6.484   3.518  14.337  1.4375  1.2864  1.6920
 7511TIP3    H243949   6.558   3.411  14.259 -0.6410  1.4397 -0.5383
 7512TIP3   OH243950   0.188   2.512  14.796  0.5240 -0.4597 -0.3507
 7512TIP3    H143951   0.200   2.602  14.824  0.7235 -0.1566 -1.4118
 7512TIP3    H243952   0.093   2.498  14.799  0.2270  0.7093 -3.0202
 7513TIP3   OH243953   2.505   2.438  16.034  0.0510  0.7976  0.1320
 7513TIP3    H143954   2.542   2.526  16.023 -1.9688  1.3275 -3.1238
 7513TIP3    H243955   2.429   2.451  16.090 -0.4318  1.2167 -0.6072
 7514TIP3   OH243956   4.139   2.877  15.067 -0.6035 -0.2493  0.8536
 7514TIP3    H143957   4.099   2.921  14.992  0.9657  1.9193  1.2281
 7514TIP3    H243958   4.233   2.885  15.052 -0.1772 -4.6419  0.3226
 7515TIP3   OH243959   0.061   1.466   2.395  0.1652 -0.4820  0.0035
 7515TIP3    H143960   0.086   1.391   2.341  2.6527  0.6238 -0.4305
 7515TIP3    H243961   0.047   1.537   2.333  0.3431  0.0903  0.6138
 7516TIP3   OH243962   4.525   6.001   5.503 -0.5287 -0.1760  0.1341
 7516TIP3    H143963   4.620   5.999   5.516 -0.7821  1.9630  2.7913
 7516TIP3    H243964   4.494   5.917   5.539  0.2140 -0.2281  0.6728
 7517TIP3   OH243965   3.906   4.313  14.491 -0.4750 -0.2840  0.0977
 7517TIP3    H143966   3.895   4.348  14.402  3.4245 -2.3495 -1.3570
 7517TIP3    H243967   3.973   4.369  14.530  1.5268 -2.4012 -0.1743
 7518TIP3   OH243968   4.272   0.530  15.958  0.5225  0.2924 -0.1639
 7518TIP3    H143969   4.365   0.543  15.939  0.3669  0.5232 -0.7669
 7518TIP3    H243970   4.258   0.436  15.943  0.8758  0.0582  0.8947
 7519TIP3   OH243971   2.642   2.472   5.860  0.0134 -0.1787  0.1606
 7519TIP3    H143972   2.702   2.451   5.931  0.7404  1.4205  0.0389
 7519TIP3    H243973   2.565   2.416   5.876  1.1983 -1.6675  0.7461
 7520TIP3   OH243974   1.134   5.388   1.559 -0.7683 -0.0107 -0.0079
 7520TIP3    H143975   1.121   5.468   1.609  0.8867  0.4253 -0.2165
 7520TIP3    H243976   1.100   5.408   1.472  0.5023  0.8067 -0.3280
 7521TIP3   OH243977   6.520   1.546   2.313  0.5542  0.5587  0.1453
 7521TIP3    H143978   6.570   1.487   2.371  0.8905 -0.8952 -1.5914
 7521TIP3    H243979   6.457   1.489   2.269  2.8645  0.8814 -3.8236
 7522TIP3   OH243980   2.156   2.280  10.169  0.8830 -0.4969 -0.0863
 7522TIP3    H143981   2.246   2.310  10.181  0.8471  0.3615 -1.7412
 7522TIP3    H243982   2.102   2.345  10.214  1.0325 -0.2818 -0.2159
 7523TIP3   OH243983   5.916   3.915   2.781  0.3676 -0.2029  0.3061
 7523TIP3    H143984   6.000   3.885   2.815  0.1645 -2.2667 -0.8763
 7523TIP3    H243985   5.907   3.870   2.697 -1.6722  0.4039  0.1568
 7524TIP3   OH243986   3.729   5.129   2.543 -0.0933  0.1951  0.4151
 7524TIP3    H143987   3.706   5.205   2.489  0.9401 -0.1901 -0.5962
 7524TIP3    H243988   3.771   5.167   2.620 -0.4307  0.6970  0.3550
 7525TIP3   OH243989   2.847   5.910  13.538 -0.1100 -0.4180 -0.6017
 7525TIP3    H143990   2.863   6.000  13.510 -0.6144  0.0387  0.5341
 7525TIP3    H243991   2.888   5.904  13.624 -1.0760 -0.9168 -0.1604
 7526TIP3   OH243992   2.725   3.013   0.339 -0.0007  1.1071 -0.1300
 7526TIP3    H143993   2.757   3.104   0.337  0.9104  0.8201  0.8450
 7526TIP3    H243994   2.773   2.970   0.269 -1.3085  1.6430 -1.3834
 7527TIP3   OH243995   0.830   1.888  14.533 -0.2670 -0.2355 -0.2188
 7527TIP3    H143996   0.897   1.955  14.518 -1.0362  0.6034  0.0580
 7527TIP3    H243997   0.875   1.821  14.585  0.7249 -0.3059 -1.1469
 7528TIP3   OH243998   4.574   1.218  15.377  0.4025 -0.3626 -0.2976
 7528TIP3    H143999   4.480   1.232  15.385  0.5380  0.8268 -0.7576
 7528TIP3    H244000   4.584   1.171  15.294  0.4292  1.8738 -1.6040
 7529TIP3   OH244001   1.881   1.935   6.432  0.4606  0.3866 -0.1034
 7529TIP3    H144002   1.925   2.012   6.467 -0.1956  0.6575  0.1274
 7529TIP3    H244003   1.797   1.932   6.477  0.1690 -0.0327 -0.6599
 7530TIP3   OH244004   6.225   4.081   0.779 -0.0094  0.4662 -0.3805
 7530TIP3    H144005   6.169   4.154   0.751 -0.4413  0.0457 -0.6231
 7530TIP3    H244006   6.313   4.118   0.783 -0.3767  1.2524  0.4523
 7531TIP3   OH244007   3.270   0.143  15.764 -0.9564 -0.2114 -0.3443
 7531TIP3    H144008   3.328   0.109  15.696  0.9736  0.6178  0.8297
 7531TIP3    H244009   3.244   0.066  15.815 -0.3716 -0.5220 -0.5142
 7532TIP3   OH244010   4.085   5.535   0.074 -0.0452  0.0075 -0.0048
 7532TIP3    H144011   4.150   5.474   0.040 -0.0746  0.9227 -1.7853
 7532TIP3    H244012   4.018   5.538   0.005 -0.0060  2.0840  0.0170
 7533TIP3   OH244013   4.013   4.690   1.093 -0.0500 -0.1806  0.0848
 7533TIP3    H144014   3.955   4.764   1.114  1.4554  0.7804  0.9364
 7533TIP3    H244015   3.991   4.624   1.159  0.6834  0.6711  1.2192
 7534TIP3   OH244016   1.318   6.392  15.579 -0.4377 -0.6878 -0.4804
 7534TIP3    H144017   1.408   6.363  15.594  0.5800  2.4190 -0.2372
 7534TIP3    H244018   1.290   6.426  15.664 -1.6081 -0.9782 -0.7436
 7535TIP3   OH244019   3.662   5.835   0.845  0.2297 -0.3232  0.3417
 7535TIP3    H144020   3.729   5.782   0.888 -0.5310 -1.0865  0.5874
 7535TIP3    H244021   3.665   5.807   0.753 -0.1268 -0.7349  0.4584
 7536TIP3   OH244022   3.684   5.626  12.769  0.1350 -0.3141  0.3527
 7536TIP3    H144023   3.661   5.623  12.862 -1.6337  0.3451 -0.0615
 7536TIP3    H244024   3.689   5.719  12.748  0.8312 -0.4611 -0.1462
 7537TIP3   OH244025   5.783   1.788  11.889 -0.2292 -0.5342 -0.3615
 7537TIP3    H144026   5.837   1.778  11.967  0.1206 -0.5849 -0.6127
 7537TIP3    H244027   5.742   1.874  11.899 -0.6883 -0.8184  0.1919
 7538TIP3   OH244028   2.298   4.568  17.138 -0.0693 -0.4777 -0.2653
 7538TIP3    H144029   2.266   4.525  17.218  0.2067  1.3963  0.8599
 7538TIP3    H244030   2.348   4.500  17.093  1.1507 -1.0817  1.9623
 7539TIP3   OH244031   4.774   4.288   1.696  0.2719  0.5466  0.3633
 7539TIP3    H144032   4.687   4.254   1.675  0.6215 -0.1084 -0.0401
 7539TIP3    H244033   4.802   4.334   1.617  0.0508  1.2614  0.6979
 7540TIP3   OH244034   3.363   2.586  16.814  0.4043  0.3119 -0.1984
 7540TIP3    H144035   3.445   2.633  16.797  1.1917 -0.6010  0.9356
 7540TIP3    H244036   3.330   2.626  16.895 -0.0448  0.3872 -0.4221
 7541TIP3   OH244037   4.764   1.402  12.317  0.1127 -0.6692  0.2488
 7541TIP3    H144038   4.681   1.367  12.284  1.8311 -2.8903 -1.9043
 7541TIP3    H244039   4.805   1.441  12.240  1.1856  0.1974  1.2503
 7542TIP3   OH244040   5.311   2.516  11.872  0.6470  0.0527 -0.7486
 7542TIP3    H144041   5.323   2.611  11.872 -2.2908  0.5613  2.4511
 7542TIP3    H244042   5.364   2.485  11.946  0.6693 -0.6197 -1.0454
 7543TIP3   OH244043   3.625   6.262   4.861 -0.2960 -0.3943  0.5003
 7543TIP3    H144044   3.600   6.188   4.805 -0.6482 -0.9273  1.3511
 7543TIP3    H244045   3.574   6.335   4.827 -1.1128 -0.8977  0.6128
 7544TIP3   OH244046   0.773   3.811   0.089 -0.5969  0.2582  0.2449
 7544TIP3    H144047   0.780   3.777   0.178 -0.9240 -1.3088 -0.3195
 7544TIP3    H244048   0.860   3.845   0.070 -0.2159 -0.4050  0.7622
 7545TIP3   OH244049   2.849   5.661   2.962  0.4880 -0.4122 -0.4836
 7545TIP3    H144050   2.814   5.667   2.873 -0.5085  0.1936 -0.0514
 7545TIP3    H244051   2.942   5.639   2.949 -0.0278 -2.0351 -1.6229
 7546TIP3   OH244052   2.816   6.381   4.304 -0.6275  0.3514 -0.3025
 7546TIP3    H144053   2.788   6.428   4.225 -1.1939  0.4613 -0.0404
 7546TIP3    H244054   2.763   6.418   4.374 -1.5007 -1.0420 -0.1844
 7547TIP3   OH244055   1.471   4.065  15.031 -0.4971 -0.1383 -0.4435
 7547TIP3    H144056   1.396   4.092  14.978  1.3624  0.3357 -2.9441
 7547TIP3    H244057   1.447   3.980  15.066 -1.4572 -0.8950 -2.8402
 7548TIP3   OH244058   5.263   5.856   3.659 -0.1218 -0.4921 -0.4529
 7548TIP3    H144059   5.288   5.905   3.580  1.6571 -0.3913  0.1361
 7548TIP3    H244060   5.179   5.817   3.637 -0.3742  0.7643 -1.8546
 7549TIP3   OH244061   3.377   2.844   4.178  0.6272  0.3553  0.4124
 7549TIP3    H144062   3.464   2.850   4.219  0.5262  4.0899  0.2108
 7549TIP3    H244063   3.318   2.828   4.252  1.1831  0.5379  0.9072
 7550TIP3   OH244064   0.998   4.225  11.128 -0.1122 -0.2324  0.4762
 7550TIP3    H144065   0.918   4.212  11.076  0.3396 -1.0802 -0.0152
 7550TIP3    H244066   0.986   4.311  11.168  0.2275  1.1356 -2.2491
 7551TIP3   OH244067   5.606   2.948   3.839  0.5605 -0.2033  0.5510
 7551TIP3    H144068   5.601   2.992   3.924 -0.7838 -0.1484  0.4553
 7551TIP3    H244069   5.564   2.863   3.854 -0.1608  0.0194 -0.1884
 7552TIP3   OH244070   2.059   2.524  14.956 -0.0824 -0.2682  0.0547
 7552TIP3    H144071   1.980   2.574  14.934  1.4296  1.6032 -1.1812
 7552TIP3    H244072   2.106   2.580  15.018  0.7590 -0.9663  0.0538
 7553TIP3   OH244073   5.293   1.872  16.743  0.7394 -0.6170 -0.2966
 7553TIP3    H144074   5.325   1.844  16.657  1.6269  0.4105 -0.3095
 7553TIP3    H244075   5.200   1.849  16.743  1.0544 -1.9547 -0.9689
 7554TIP3   OH244076   0.285   2.059   2.528  0.1556  0.0176 -0.6933
 7554TIP3    H144077   0.254   1.974   2.498 -1.3983  0.6387 -0.8880
 7554TIP3    H244078   0.300   2.109   2.447 -1.8966  0.9472 -0.5226
 7555TIP3   OH244079   5.929   4.470  16.849  0.1078 -0.0571  0.6732
 7555TIP3    H144080   5.907   4.553  16.805 -2.4896 -0.4076  1.2253
 7555TIP3    H244081   5.980   4.422  16.784 -0.9498  0.7530 -0.7931
 7556TIP3   OH244082   5.178   4.478   2.507  0.0868 -0.2150 -0.6710
 7556TIP3    H144083   5.263   4.453   2.470  0.8913 -0.6645  1.4175
 7556TIP3    H244084   5.123   4.401   2.492  0.5383 -0.5762 -0.4932
 7557TIP3   OH244085   5.953   4.019   1.790  0.1545  0.7895 -0.4318
 7557TIP3    H144086   5.907   3.970   1.857  0.6112 -0.2199 -0.8476
 7557TIP3    H244087   5.944   4.111   1.816 -2.5931  0.6600 -0.8273
 7558TIP3   OH244088   0.026   2.999  15.495 -0.4010  0.0534  0.3559
 7558TIP3    H144089   0.095   2.996  15.561  1.4682  1.8853 -1.4213
 7558TIP3    H244090   0.013   2.908  15.469 -0.6519 -0.6031  2.7003
 7559TIP3   OH244091   6.636   5.984  12.498  0.6981 -0.0468  0.0947
 7559TIP3    H144092   6.572   6.052  12.519  0.7891  0.3789 -0.9352
 7559TIP3    H244093   6.664   5.949  12.582 -0.6434  0.0012  0.5593
 7560TIP3   OH244094   3.614   1.313   2.626  0.2591  0.1996 -0.4659
 7560TIP3    H144095   3.582   1.364   2.552  0.7216  0.1804 -0.6759
 7560TIP3    H244096   3.699   1.352   2.648  2.1306 -2.5068 -2.6758
 7561TIP3   OH244097   4.264   1.013  11.913  0.6063  0.0432  0.1004
 7561TIP3    H144098   4.226   1.016  11.826  0.8167 -4.4826 -0.2901
 7561TIP3    H244099   4.355   0.986  11.898  0.8112 -0.1829  1.6628
 7562TIP3   OH244100   5.124   2.108  12.828  0.2039  0.5304 -0.1044
 7562TIP3    H144101   5.048   2.109  12.770  1.1865  2.9095 -1.4097
 7562TIP3    H244102   5.154   2.017  12.827 -0.9601  0.1529 -1.7823
 7563TIP3   OH244103   2.896   3.929   4.391 -0.3381  0.0398  0.2567
 7563TIP3    H144104   2.977   3.936   4.441 -1.0566 -1.0563  1.6002
 7563TIP3    H244105   2.831   3.976   4.444 -0.6379  0.7470 -0.7164
 7564TIP3   OH244106   3.937   3.895  14.802  0.3376  0.2198 -0.5499
 7564TIP3    H144107   3.908   3.868  14.890  2.1063 -0.9828 -0.3075
 7564TIP3    H244108   3.859   3.933  14.762 -1.2861 -1.8801  0.4902
 7565TIP3   OH244109   6.652   5.295   3.372  0.3960 -0.4309  0.1271
 7565TIP3    H144110   6.604   5.257   3.299 -0.0474  0.4612 -0.0505
 7565TIP3    H244111   6.722   5.346   3.332 -1.3097  2.0470  0.2160
 7566TIP3   OH244112   5.928   0.673   5.234  0.5440  0.5609  1.0335
 7566TIP3    H144113   5.885   0.687   5.149  1.9225  1.3325  0.4316
 7566TIP3    H244114   5.895   0.744   5.289 -0.0999  0.2606  1.0382
 7567TIP3   OH244115   0.326   4.396   2.345 -0.1650  0.1665 -0.4685
 7567TIP3    H144116   0.379   4.474   2.333 -1.1523  1.0480  0.7857
 7567TIP3    H244117   0.313   4.362   2.257  0.9693  0.9362 -0.9482
 7568TIP3   OH244118   2.903   5.543   0.671  0.2838 -0.3089  0.1776
 7568TIP3    H144119   2.895   5.453   0.638  0.9288 -0.9305  1.6742
 7568TIP3    H244120   2.996   5.564   0.658  0.1307  0.1460 -0.1791
 7569TIP3   OH244121   5.862   2.809   5.812 -0.3640  0.3638  0.3274
 7569TIP3    H144122   5.816   2.756   5.746 -1.6606 -0.3221  1.7347
 7569TIP3    H244123   5.855   2.899   5.780  1.5232 -0.2224 -1.9022
 7570TIP3   OH244124   3.911   3.832   3.084 -1.0926  0.3332  0.0495
 7570TIP3    H144125   3.821   3.861   3.097 -1.0597 -0.7348  2.9696
 7570TIP3    H244126   3.959   3.864   3.160  1.1434  1.2815 -1.6820
 7571TIP3   OH244127   3.401   4.654   4.627  0.2011  0.4283  0.5479
 7571TIP3    H144128   3.358   4.644   4.712  0.0791  0.6684  0.5135
 7571TIP3    H244129   3.331   4.679   4.567  0.1310 -0.6128  0.1952
 7572TIP3   OH244130   3.840   3.056  13.848 -0.1090  0.4244  0.0674
 7572TIP3    H144131   3.750   3.087  13.854 -0.1632  0.6859 -1.7835
 7572TIP3    H244132   3.893   3.135  13.853  0.1242  0.1758  2.4212
 7573TIP3   OH244133   4.978   1.222  12.855 -0.1349 -0.1384 -0.0546
 7573TIP3    H144134   5.024   1.295  12.816  0.0568 -0.2122  0.0353
 7573TIP3    H244135   4.885   1.239  12.836 -0.0148 -0.3452 -0.8180
 7574TIP3   OH244136   4.663   2.490   3.529  0.2440 -0.1547 -0.1040
 7574TIP3    H144137   4.752   2.524   3.535 -1.0571  3.2300  0.4952
 7574TIP3    H244138   4.664   2.437   3.449  2.6773  0.1784 -0.3280
 7575TIP3   OH244139   3.080   0.086   6.260  0.3500 -0.0610 -0.0063
 7575TIP3    H144140   3.008   0.082   6.323  0.9001 -0.7260  0.5820
 7575TIP3    H244141   3.080  -0.000   6.218  0.8826 -0.1122  0.0907
 7576TIP3   OH244142   4.255   5.761   6.146 -0.3240 -0.6584  0.1200
 7576TIP3    H144143   4.236   5.720   6.231 -2.1834  1.1513  0.5982
 7576TIP3    H244144   4.169   5.774   6.106  0.5302 -1.2228 -1.9323
 7577TIP3   OH244145   5.827   3.022  13.674 -0.1987 -0.7771 -0.2346
 7577TIP3    H144146   5.875   3.026  13.757 -1.3282 -1.2098  0.4530
 7577TIP3    H244147   5.793   3.110  13.661  0.3160 -0.6090 -0.4385
 7578TIP3   OH244148   3.384   5.329   0.171 -0.5176  0.0148  0.1856
 7578TIP3    H144149   3.475   5.340   0.200 -1.0285 -1.1635  2.3404
 7578TIP3    H244150   3.373   5.234   0.166 -1.2431  0.1757 -1.3880
 7579TIP3   OH244151   2.008   4.061   1.960 -0.1850 -0.1153 -0.4254
 7579TIP3    H144152   1.963   4.127   2.014 -0.6030 -0.4154 -0.4082
 7579TIP3    H244153   2.097   4.058   1.996 -0.5266 -0.4796  0.3901
 7580TIP3   OH244154   3.736   0.518   0.876  0.0902  0.3685 -0.8620
 7580TIP3    H144155   3.667   0.560   0.927 -0.1848  1.1378 -1.8595
 7580TIP3    H244156   3.691   0.486   0.797  0.9522  1.2739 -1.7320
 7581TIP3   OH244157   6.310   1.003  15.541  0.6117 -0.5881  0.7837
 7581TIP3    H144158   6.297   0.964  15.455  0.1038  0.0328  0.5807
 7581TIP3    H244159   6.270   0.940  15.601  0.5193 -0.7745  0.5279
 7582TIP3   OH244160   6.695   3.588   3.188  0.5603 -0.1751  0.1342
 7582TIP3    H144161   6.741   3.551   3.264  0.0623 -1.1817 -0.0495
 7582TIP3    H244162   6.686   3.681   3.209  2.5312  0.0140  0.2529
 7583TIP3   OH244163   2.299   1.914  11.564  0.5429  0.4636  0.4085
 7583TIP3    H144164   2.274   1.866  11.643  0.5199 -1.5149 -0.7647
 7583TIP3    H244165   2.394   1.921  11.569  0.7573 -1.4664 -0.3402
 7584TIP3   OH244166   3.660   4.353   3.760  0.2493 -0.1988 -0.7264
 7584TIP3    H144167   3.728   4.417   3.738  0.5139 -0.6285 -1.1760
 7584TIP3    H244168   3.625   4.382   3.844 -1.3889  1.9986 -2.1015
 7585TIP3   OH244169   6.108   0.725  16.562  0.2611 -0.1685 -0.4862
 7585TIP3    H144170   6.200   0.702  16.576  0.2699  0.4246  0.4455
 7585TIP3    H244171   6.064   0.641  16.546  1.2154 -0.3197 -2.4748
 7586TIP3   OH244172   5.217   3.092   6.253 -0.5172  0.3709  0.4015
 7586TIP3    H144173   5.274   3.028   6.210 -2.5006 -0.4255 -1.0891
 7586TIP3    H244174   5.217   3.066   6.346  0.5754 -0.3285  0.2149
 7587TIP3   OH244175   2.231   2.482   1.075  0.3154  0.0204 -0.2413
 7587TIP3    H144176   2.185   2.439   1.002 -1.0787  1.0773 -0.0069
 7587TIP3    H244177   2.259   2.410   1.131 -0.4886 -0.6824 -0.7343
 7588TIP3   OH244178   3.613   0.686  13.067 -0.1294  0.5588 -0.1891
 7588TIP3    H144179   3.654   0.765  13.101  1.2241  0.2899 -1.1536
 7588TIP3    H244180   3.654   0.614  13.115 -0.8120  0.3933  0.1536
 7589TIP3   OH244181   1.971   2.906  14.125 -0.2645 -0.0608  0.4345
 7589TIP3    H144182   1.911   2.872  14.059  0.5315  1.1183 -0.9303
 7589TIP3    H244183   1.965   3.001  14.117  1.7243  0.0800  0.3176
 7590TIP3   OH244184   5.373   1.793   4.625 -0.1351  0.6854  0.9742
 7590TIP3    H144185   5.367   1.791   4.721  0.5693  0.8386  1.0278
 7590TIP3    H244186   5.283   1.784   4.595 -0.3617  0.6429  1.6544
 7591TIP3   OH244187   3.404   2.182  15.677  0.1597  0.6375  0.6534
 7591TIP3    H144188   3.353   2.252  15.635 -1.0749  0.3072  1.5758
 7591TIP3    H244189   3.487   2.223  15.699  0.2482  1.2360 -0.7101
 7592TIP3   OH244190   1.717   6.049  16.378 -0.3687  0.0029 -0.1659
 7592TIP3    H144191   1.700   6.140  16.402 -0.7072 -0.5899  1.9300
 7592TIP3    H244192   1.634   6.018  16.342 -1.3271 -0.4769  2.3697
 7593TIP3   OH244193   3.026   1.710  13.020  0.4752 -0.5147 -0.9049
 7593TIP3    H144194   2.972   1.730  12.944 -1.3308  0.4514  0.5954
 7593TIP3    H244195   2.981   1.752  13.093  1.2509 -2.8581  0.9855
 7594TIP3   OH244196   0.587   1.969   2.291 -0.4062 -0.1384 -0.2282
 7594TIP3    H144197   0.586   1.891   2.347 -2.1506 -1.2584 -1.7444
 7594TIP3    H244198   0.505   1.964   2.242  0.0396  2.0126 -1.2541
 7595TIP3   OH244199   0.455   4.995  14.282  0.0506  0.4862 -0.3561
 7595TIP3    H144200   0.463   4.900  14.272 -1.3286  0.2459  0.6790
 7595TIP3    H244201   0.409   5.025  14.204 -3.0651 -0.2518  1.0993
 7596TIP3   OH244202   3.580   0.142  14.618  0.8820  0.1528 -0.1049
 7596TIP3    H144203   3.616   0.100  14.696 -0.5729 -0.8311  0.0538
 7596TIP3    H244204   3.578   0.073  14.552  0.7876  0.6138 -0.5854
 7597TIP3   OH244205   3.080   1.316  15.260  0.7799 -0.1692 -0.1503
 7597TIP3    H144206   3.039   1.305  15.345  0.7058 -2.8011 -0.4758
 7597TIP3    H244207   3.014   1.287  15.197 -0.2942  4.4744 -1.4176
 7598TIP3   OH244208   2.022   5.723  13.580  0.4218 -0.4534  0.5229
 7598TIP3    H144209   2.114   5.703  13.562  0.8349  1.6476  0.1326
 7598TIP3    H244210   1.973   5.674  13.514  1.2195 -1.9172  0.9897
 7599TIP3   OH244211   1.034   2.732   1.008 -0.0400 -0.1377 -0.2941
 7599TIP3    H144212   0.948   2.773   1.012  0.8024  1.6082  1.0459
 7599TIP3    H244213   1.055   2.711   1.099  1.1343 -0.0724 -0.5324
 7600TIP3   OH244214   3.335   0.375   4.421 -0.5901 -0.4787 -0.0212
 7600TIP3    H144215   3.383   0.298   4.391 -1.9594 -1.3433 -0.0024
 7600TIP3    H244216   3.257   0.378   4.366  0.7555  2.5080 -1.9712
 7601TIP3   OH244217   1.608   1.730  14.063 -0.2376 -0.2729 -0.0675
 7601TIP3    H144218   1.625   1.636  14.061  2.0127  0.1308 -1.5447
 7601TIP3    H244219   1.659   1.763  14.137 -0.4696 -0.0968  0.0180
 7602TIP3   OH244220   0.239   5.669  11.298 -0.0390  0.1993 -0.4063
 7602TIP3    H144221   0.156   5.699  11.336  0.6527  0.3437  1.0195
 7602TIP3    H244222   0.263   5.592  11.351  0.1393 -0.5510 -1.5732
 7603TIP3   OH244223   4.362   4.113   5.764 -0.1933  0.1091  0.0352
 7603TIP3    H144224   4.414   4.033   5.754 -0.4487  0.1729 -1.9939
 7603TIP3    H244225   4.302   4.112   5.690 -1.7396  1.0580  1.2525
 7604TIP3   OH244226   2.727   1.138  14.872  0.2699  0.0005 -0.6066
 7604TIP3    H144227   2.703   1.229  14.854 -0.9811  0.3242  2.5054
 7604TIP3    H244228   2.660   1.086  14.828 -1.3825  0.7051  1.0463
 7605TIP3   OH244229   4.824   4.138  15.888 -0.5654 -0.3350 -0.0304
 7605TIP3    H144230   4.813   4.065  15.827  2.2510 -1.2767  0.4773
 7605TIP3    H244231   4.891   4.193  15.847 -1.6433  1.2415  0.2657
 7606TIP3   OH244232   3.382   6.392  15.539  0.4149 -0.5545  0.1724
 7606TIP3    H144233   3.345   6.309  15.568 -1.0472 -0.5199 -1.5071
 7606TIP3    H244234   3.384   6.385  15.444  1.5026  0.8306  0.0807
 7607TIP3   OH244235   0.000   5.372  15.767 -0.2202  0.0834 -0.0290
 7607TIP3    H144236  -0.064   5.327  15.822  1.1888 -2.0756 -0.0680
 7607TIP3    H244237  -0.050   5.403  15.692 -1.5333  0.0121  0.8064
 7608TIP3   OH244238   5.896   1.134  15.305 -0.2766 -0.6523 -0.2271
 7608TIP3    H144239   5.897   1.039  15.309 -2.2165 -0.6658  0.2936
 7608TIP3    H244240   5.986   1.160  15.326  0.2678 -2.3597 -0.4115
 7609TIP3   OH244241   3.444   3.648   4.748 -0.1761  0.3969  0.0648
 7609TIP3    H144242   3.441   3.600   4.664 -1.1534 -1.0007  0.8760
 7609TIP3    H244243   3.372   3.711   4.742 -1.5063 -1.0272  0.6010
 7610TIP3   OH244244   5.196   4.479  16.175  0.1500 -0.9153  0.0013
 7610TIP3    H144245   5.275   4.519  16.213 -0.5431 -0.5929  1.0947
 7610TIP3    H244246   5.210   4.485  16.080  0.0955  1.8552  0.1492
 7611TIP3   OH244247   5.873   6.311  11.222 -0.3425 -0.6062  0.1387
 7611TIP3    H144248   5.841   6.271  11.141  1.6898 -1.4958 -0.2520
 7611TIP3    H244249   5.953   6.356  11.197  0.2709 -0.8193  1.6328
 7612TIP3   OH244250   3.673   0.888   6.731  0.0388 -0.1484  0.6622
 7612TIP3    H144251   3.634   0.820   6.676  2.3426 -1.3575  0.4592
 7612TIP3    H244252   3.766   0.865   6.737  0.8650  2.9110  0.7179
 7613TIP3   OH244253   5.995   1.596   3.823 -0.3469  0.2852  0.4234
 7613TIP3    H144254   5.921   1.542   3.851 -0.9781  0.5432 -0.6904
 7613TIP3    H244255   5.955   1.681   3.802  0.1296  0.1742 -0.9756
 7614TIP3   OH244256   0.502   2.825  12.543 -0.2942 -0.3312  0.8921
 7614TIP3    H144257   0.582   2.781  12.515  0.0949 -1.0320  3.0096
 7614TIP3    H244258   0.439   2.808  12.473  0.7753 -1.6096  0.2323
 7615TIP3   OH244259   3.727   6.219   1.400 -0.1127  0.4667  0.2836
 7615TIP3    H144260   3.653   6.252   1.450 -1.2693 -0.1048 -1.0246
 7615TIP3    H244261   3.694   6.212   1.310  1.7001  0.7830 -0.4290
 7616TIP3   OH244262   0.505   3.542  14.229 -0.7552 -0.0762  1.0109
 7616TIP3    H144263   0.465   3.535  14.142  3.8057  0.5707 -1.3109
 7616TIP3    H244264   0.554   3.624  14.226  0.9064 -0.9201  3.6028
 7617TIP3   OH244265   6.464   1.879   2.712 -0.1877 -0.1372  0.0564
 7617TIP3    H144266   6.539   1.881   2.653 -0.7560  2.2617 -0.6564
 7617TIP3    H244267   6.399   1.825   2.667 -0.1247  0.5794 -0.9115
 7618TIP3   OH244268   4.414   1.699  14.541 -0.3421  0.1278 -0.3406
 7618TIP3    H144269   4.469   1.777  14.546  3.0478 -2.1789  0.2437
 7618TIP3    H244270   4.423   1.659  14.628  1.4746 -3.0761 -1.8957
 7619TIP3   OH244271   0.843   0.627   6.637  0.3823 -0.0434 -0.1146
 7619TIP3    H144272   0.771   0.678   6.600 -0.0635 -1.3284 -1.0589
 7619TIP3    H244273   0.878   0.682   6.708 -1.1521  0.8320 -0.0172
 7620TIP3   OH244274   1.815   2.308  16.259  0.5816 -0.0819  0.4049
 7620TIP3    H144275   1.720   2.314  16.249  0.7058  0.6374 -0.4249
 7620TIP3    H244276   1.835   2.366  16.333  0.3168 -0.6916  0.9586
 7621TIP3   OH244277   5.809   3.738  15.055 -0.2828  0.3069  0.4457
 7621TIP3    H144278   5.748   3.683  15.105 -0.8796  0.4060 -0.1691
 7621TIP3    H244279   5.896   3.712  15.087 -0.7002  1.0510  2.2223
 7622TIP3   OH244280   2.614   3.382  14.952 -0.5613 -0.1062 -0.3772
 7622TIP3    H144281   2.631   3.413  14.863  1.4587 -1.5051 -0.5193
 7622TIP3    H244282   2.596   3.461  15.003  0.8356  0.9507 -1.4907
 7623TIP3   OH244283   2.107   6.664   0.944  0.2514 -0.6134 -0.9183
 7623TIP3    H144284   2.146   6.727   1.005 -0.8332 -0.9095  0.0912
 7623TIP3    H244285   2.170   6.591   0.942  0.1229 -0.7589  0.1314
 7624TIP3   OH244286   6.287   2.078  12.207  0.0524 -0.2559 -0.3024
 7624TIP3    H144287   6.344   2.115  12.275 -1.2062 -0.3110  0.8013
 7624TIP3    H244288   6.198   2.095  12.239 -0.5467 -0.3335 -1.9208
 7625TIP3   OH244289   5.594   0.127   3.332  0.1540  0.1767 -0.5496
 7625TIP3    H144290   5.628   0.217   3.324 -1.2584  0.9469  1.7094
 7625TIP3    H244291   5.503   0.138   3.360  0.5603 -1.9592  1.8034
 7626TIP3   OH244292   0.550   4.709   2.038  0.6377 -0.1869 -0.0296
 7626TIP3    H144293   0.634   4.727   2.081  1.8345  1.4432 -2.8555
 7626TIP3    H244294   0.484   4.737   2.101  2.2899  1.5278  0.9990
 7627TIP3   OH244295   4.963   3.494  13.016 -0.3271  0.1112  0.4635
 7627TIP3    H144296   4.999   3.416  13.059  0.5804 -0.3273 -1.0533
 7627TIP3    H244297   5.039   3.549  12.998 -1.0250  1.6571  2.0859
 7628TIP3   OH244298   1.642   0.703   3.341 -0.1857  0.2801 -0.0999
 7628TIP3    H144299   1.559   0.723   3.383  0.5622 -0.9446  2.0628
 7628TIP3    H244300   1.635   0.741   3.254 -3.7554 -1.4091 -0.6597
 7629TIP3   OH244301   2.741   1.133  12.059  0.1174 -0.0253 -0.0661
 7629TIP3    H144302   2.781   1.065  12.113  1.3197  1.6311  1.1723
 7629TIP3    H244303   2.813   1.166  12.005 -0.8153 -0.8360 -1.8620
 7630TIP3   OH244304   2.023   3.671   3.213  0.3454  0.0761  0.0682
 7630TIP3    H144305   2.029   3.676   3.117  1.0052 -0.6865  0.0643
 7630TIP3    H244306   1.980   3.753   3.238  0.6716  0.5355 -0.8373
 7631TIP3   OH244307   6.778   4.822  11.852  0.3338  0.6256 -0.5844
 7631TIP3    H144308   6.694   4.865  11.864  0.7857  1.4094 -0.2217
 7631TIP3    H244309   6.833   4.857  11.922  1.0500  0.3318 -1.0010
 7632TIP3   OH244310   5.766   3.558   5.675  0.3426 -0.3499  0.5441
 7632TIP3    H144311   5.825   3.608   5.731  0.8861 -0.9515  0.5143
 7632TIP3    H244312   5.808   3.557   5.590 -0.0361 -0.2191  0.3543
 7633TIP3   OH244313   0.670   5.243  16.316  0.4754 -0.1983  0.3922
 7633TIP3    H144314   0.742   5.303  16.334 -0.2568  0.2408  1.9327
 7633TIP3    H244315   0.712   5.158  16.304  1.4789  0.5085 -1.3809
 7634TIP3   OH244316   0.447   1.437   0.701  0.3945  0.0443 -0.8471
 7634TIP3    H144317   0.447   1.517   0.649  1.5909 -2.1504 -4.4076
 7634TIP3    H244318   0.355   1.420   0.721  0.1977  2.6519  0.5657
 7635TIP3   OH244319   1.433   4.488   4.070 -0.0507  0.2450  0.0743
 7635TIP3    H144320   1.410   4.551   4.002  0.8120 -0.0122 -0.4788
 7635TIP3    H244321   1.520   4.457   4.044  1.1050  1.5110  2.2982
 7636TIP3   OH244322   0.194   6.143  12.235 -0.1750  0.7881 -0.0942
 7636TIP3    H144323   0.256   6.210  12.263  0.4981 -0.1811  0.7199
 7636TIP3    H244324   0.112   6.168  12.279  0.0277  1.1692  0.0768
 7637TIP3   OH244325   1.149   5.335   5.104 -0.0997 -0.1506 -0.6137
 7637TIP3    H144326   1.135   5.426   5.078 -0.8034  0.3639  1.4521
 7637TIP3    H244327   1.119   5.331   5.195  3.6600 -1.4429  0.6855
 7638TIP3   OH244328   6.704   4.314  13.625  0.0032  0.4026  0.1902
 7638TIP3    H144329   6.674   4.261  13.551  1.2735  0.7121 -0.5591
 7638TIP3    H244330   6.702   4.254  13.700 -0.9971  0.0038 -0.1429
 7639TIP3   OH244331   0.148   4.817  12.101  0.3614  0.9012  0.0521
 7639TIP3    H144332   0.205   4.765  12.044 -0.5426  0.1521 -0.1759
 7639TIP3    H244333   0.110   4.754  12.161 -0.2626  1.3964  0.1845
 7640TIP3   OH244334   4.232   4.392  13.914  0.1307 -0.0441  0.2904
 7640TIP3    H144335   4.225   4.467  13.856 -0.1055 -0.4141 -0.1669
 7640TIP3    H244336   4.233   4.316  13.855 -1.3383 -0.4909  0.8022
 7641TIP3   OH244337   5.666   6.640   0.652  0.3361 -0.0808  0.1272
 7641TIP3    H144338   5.624   6.701   0.591  0.9022  0.2859  0.1035
 7641TIP3    H244339   5.678   6.560   0.601  0.1603 -0.0058 -0.0330
 7642TIP3   OH244340   1.063   1.717   3.695 -0.2993 -0.3385 -0.2977
 7642TIP3    H144341   0.990   1.725   3.634 -0.6102 -2.1119 -0.1744
 7642TIP3    H244342   1.141   1.724   3.640 -0.5764 -0.5082 -0.7133
 7643TIP3   OH244343   0.328   3.215   3.551 -0.4501 -0.5990 -0.2010
 7643TIP3    H144344   0.319   3.175   3.638 -0.5373 -0.3464 -0.0957
 7643TIP3    H244345   0.421   3.238   3.545 -0.6359  0.2517  0.1994
 7644TIP3   OH244346   1.258   0.352   1.631  0.0617 -0.2711 -0.1136
 7644TIP3    H144347   1.304   0.406   1.567  0.2967  0.1042  0.3646
 7644TIP3    H244348   1.292   0.381   1.716 -2.5492  1.5068  0.3797
 7645TIP3   OH244349   0.780   0.887  14.715 -0.1378  0.5295 -0.1249
 7645TIP3    H144350   0.827   0.897  14.798 -1.1539  0.1455  0.5002
 7645TIP3    H244351   0.706   0.947  14.722 -1.1112 -0.6672 -0.1108
 7646TIP3   OH244352   3.034   6.736   1.178  0.5378 -0.1677  0.6505
 7646TIP3    H144353   3.052   6.793   1.253 -1.0484 -1.6386  2.1997
 7646TIP3    H244354   2.955   6.774   1.139 -0.0088 -0.7922  1.1517
 7647TIP3   OH244355   6.279   4.165  12.158  0.2313  0.6586  0.0998
 7647TIP3    H144356   6.250   4.141  12.246 -0.9613  1.2029 -0.1246
 7647TIP3    H244357   6.305   4.082  12.118 -0.3970  0.2365  0.5540
 7648TIP3   OH244358   4.862   3.961  13.458 -0.5966 -0.3258  0.0638
 7648TIP3    H144359   4.909   3.931  13.380  2.1678  3.2780  0.2128
 7648TIP3    H244360   4.889   3.900  13.527  0.6253 -0.7471 -0.7684
 7649TIP3   OH244361   4.693   2.329  13.764 -0.1510  0.0069  0.4269
 7649TIP3    H144362   4.711   2.241  13.731 -0.4335  0.2315 -0.3312
 7649TIP3    H244363   4.775   2.377  13.752 -0.4190  0.2533 -0.5110
 7650TIP3   OH244364   0.873   6.456  14.526  0.5697 -0.2899  0.1150
 7650TIP3    H144365   0.842   6.508  14.452  1.1100  1.8129  1.3011
 7650TIP3    H244366   0.813   6.382  14.531 -0.6235  0.5553 -1.2469
 7651TIP3   OH244367   4.034   0.186   3.489 -0.5664 -0.4708  0.4979
 7651TIP3    H144368   3.973   0.220   3.423  1.9687  2.9388 -0.2589
 7651TIP3    H244369   4.077   0.112   3.446 -2.2945 -1.2615  0.0978
 7652TIP3   OH244370   6.050   3.758   2.425 -0.4500 -0.0969  0.0054
 7652TIP3    H144371   6.108   3.824   2.387 -0.3607  0.7569  1.5803
 7652TIP3    H244372   6.108   3.688   2.454 -0.3427  0.1217  0.3148
 7653TIP3   OH244373   0.485   1.089   2.310 -0.4024 -0.2768 -0.5483
 7653TIP3    H144374   0.568   1.125   2.278 -0.2283 -1.0339 -0.9547
 7653TIP3    H244375   0.484   0.999   2.278 -0.6892 -0.7375  0.7467
 7654TIP3   OH244376   0.246   3.370   0.060 -0.0130  0.1390 -0.0233
 7654TIP3    H144377   0.272   3.311  -0.011  0.7589  0.0356  0.3395
 7654TIP3    H244378   0.322   3.372   0.118 -0.4441  0.6425  0.5252
 7655TIP3   OH244379   2.228   5.292  15.236 -0.7112  0.5519 -0.1596
 7655TIP3    H144380   2.291   5.341  15.289  0.5901  0.3949 -1.5287
 7655TIP3    H244381   2.220   5.207  15.281  1.5688 -0.1599 -1.0347
 7656TIP3   OH244382   6.772   5.165  11.899  0.1665 -0.6139 -0.3268
 7656TIP3    H144383   6.725   5.246  11.919 -1.2203 -1.0659 -1.6360
 7656TIP3    H244384   6.811   5.138  11.982 -4.0461 -1.6071  1.4264
 7657TIP3   OH244385   6.471   0.571   1.557  0.0443  0.0203  0.1403
 7657TIP3    H144386   6.540   0.505   1.559  0.6269  0.5869 -0.7812
 7657TIP3    H244387   6.397   0.527   1.515 -1.1138 -1.4577  3.6102
 7658TIP3   OH244388   4.626   4.871  14.970 -0.1867 -0.5534 -0.8399
 7658TIP3    H144389   4.588   4.922  15.041  1.9732 -0.0004 -0.0300
 7658TIP3    H244390   4.720   4.867  14.991 -0.0288 -3.2249 -1.8968
 7659TIP3   OH244391   4.848   0.859  15.396  0.5377 -0.1623  0.8000
 7659TIP3    H144392   4.858   0.893  15.485 -2.3295  1.4041  0.6052
 7659TIP3    H244393   4.754   0.842  15.388  1.1944 -3.2849 -0.9184
 7660TIP3   OH244394   5.698   4.495   5.366  0.5545  0.0360  0.3260
 7660TIP3    H144395   5.622   4.507   5.308  1.4531  0.3674 -0.7849
 7660TIP3    H244396   5.754   4.570   5.348  0.0158  1.1182  2.9477
 7661TIP3   OH244397   1.126   3.921  13.221  0.1397  0.0852  0.5010
 7661TIP3    H144398   1.191   3.879  13.165  1.0509  0.2270  1.4369
 7661TIP3    H244399   1.154   3.900  13.310 -0.8578  0.5057  0.9234
 7662TIP3   OH244400   5.241   0.415  14.207  0.0402  0.2530 -0.7726
 7662TIP3    H144401   5.233   0.499  14.162  1.6620  0.3754 -0.8448
 7662TIP3    H244402   5.205   0.432  14.294 -1.0908  0.5936 -1.2960
 7663TIP3   OH244403   4.139   5.836  12.569 -0.4396 -0.0022 -0.0217
 7663TIP3    H144404   4.110   5.796  12.651 -1.3760  0.0555 -0.3258
 7663TIP3    H244405   4.059   5.871  12.529 -0.1589 -1.0562 -1.5207
 7664TIP3   OH244406   3.555   6.445   2.308 -0.2414  0.3488  0.1205
 7664TIP3    H144407   3.554   6.374   2.372 -1.4785 -0.3446 -0.6418
 7664TIP3    H244408   3.561   6.399   2.223  0.8275  1.2251 -0.2845
 7665TIP3   OH244409   1.365   2.611  12.290  0.2855  0.2803 -0.4388
 7665TIP3    H144410   1.350   2.551  12.217  1.5937  0.3620 -0.7828
 7665TIP3    H244411   1.457   2.635  12.284  0.7814 -0.7804  2.0590
 7666TIP3   OH244412   4.960   6.321  14.691  0.3371  0.2891 -0.1594
 7666TIP3    H144413   4.909   6.355  14.764 -1.9954  0.1017 -1.6659
 7666TIP3    H244414   4.977   6.230  14.713  0.4877  0.4911  0.5789
 7667TIP3   OH244415   1.898   1.593  15.178  0.0867  0.2427  0.1552
 7667TIP3    H144416   1.934   1.532  15.114 -1.0328 -1.1411  0.8032
 7667TIP3    H244417   1.803   1.592  15.162  0.1283  2.5018 -0.3946
 7668TIP3   OH244418   0.001   1.601  14.263  0.5595  0.0990 -0.0066
 7668TIP3    H144419   0.003   1.632  14.353  3.6806 -2.5578  0.9390
 7668TIP3    H244420  -0.087   1.565  14.251 -0.2202  1.4393  1.6296
 7669TIP3   OH244421   2.517   3.787   3.799 -0.2449  0.6078  0.3099
 7669TIP3    H144422   2.486   3.878   3.805 -2.1288 -0.1309  2.5054
 7669TIP3    H244423   2.581   3.779   3.870 -1.8169 -0.3804  1.6677
 7670TIP3   OH244424   1.684   1.916  17.085  0.1738  0.0825  0.6461
 7670TIP3    H144425   1.649   1.954  17.165 -0.2535  0.6896  0.1718
 7670TIP3    H244426   1.674   1.822  17.097 -0.2575  0.1893  1.1336
 7671TIP3   OH244427   1.185   1.463  11.961  0.2919  0.4892  0.0011
 7671TIP3    H144428   1.091   1.447  11.971  0.3424 -0.1578 -0.4837
 7671TIP3    H244429   1.191   1.556  11.937 -0.0544  1.1236  2.2492
 7672TIP3   OH244430   0.095   3.388   4.077  0.2023 -0.0006 -0.0107
 7672TIP3    H144431   0.001   3.372   4.086  0.1273  0.6043  0.2836
 7672TIP3    H244432   0.115   3.453   4.144  0.7207  0.3158 -0.4719
 7673TIP3   OH244433   5.949   1.270  11.699 -0.8766 -0.4769 -0.3484
 7673TIP3    H144434   5.982   1.355  11.670 -1.5197  0.5225  1.7833
 7673TIP3    H244435   6.027   1.222  11.725 -0.5200 -0.5276 -1.4739
 7674TIP3   OH244436   3.017   0.392   1.555 -0.2669  0.2331 -0.0327
 7674TIP3    H144437   3.023   0.449   1.632 -0.1671 -1.1277  0.9910
 7674TIP3    H244438   3.100   0.344   1.554 -0.1532  0.4397 -1.1601
 7675TIP3   OH244439   6.333   1.780  13.303  0.1113  0.2477  0.7003
 7675TIP3    H144440   6.337   1.804  13.396  0.8821 -0.1426  0.7716
 7675TIP3    H244441   6.412   1.728  13.288 -0.3568 -0.2643 -0.0145
 7676TIP3   OH244442   5.362   0.064   1.962  0.6631 -0.4289  0.2275
 7676TIP3    H144443   5.397   0.139   2.010  1.7742 -0.5214 -0.4342
 7676TIP3    H244444   5.277   0.047   2.003  0.9843  0.3678  1.2371
 7677TIP3   OH244445   6.074   5.002  11.336 -0.5384 -0.2607  0.6741
 7677TIP3    H144446   6.039   5.046  11.414  0.0288 -1.1417  1.4277
 7677TIP3    H244447   6.071   4.909  11.358 -1.2214 -0.5797 -0.7072
 7678TIP3   OH244448   4.980   3.615  11.926 -0.3050 -0.4822  0.6064
 7678TIP3    H144449   4.986   3.519  11.919  0.0481 -0.4067 -0.1890
 7678TIP3    H244450   4.984   3.645  11.835  1.0154  0.3743  0.9395
 7679TIP3   OH244451   1.511   6.202   4.967 -0.1712  0.4309  0.5741
 7679TIP3    H144452   1.425   6.244   4.975 -0.3482 -0.3120  2.8420
 7679TIP3    H244453   1.573   6.268   4.998 -0.1273  0.2235  0.9304
 7680TIP3   OH244454   3.340   1.664  13.015 -0.1571  0.3420  0.1490
 7680TIP3    H144455   3.252   1.688  12.986 -0.5355  0.1051  1.0759
 7680TIP3    H244456   3.343   1.569  13.008  0.5223  0.4640 -1.2568
 7681TIP3   OH244457   3.772   5.662   2.540  0.0950 -0.4142 -0.0902
 7681TIP3    H144458   3.738   5.640   2.453  1.4607  0.6095 -0.9100
 7681TIP3    H244459   3.817   5.746   2.527 -0.0547 -0.0491  1.6987
 7682TIP3   OH244460   4.583   5.124   0.278  0.2228 -0.5893 -0.4370
 7682TIP3    H144461   4.649   5.066   0.317  0.3607 -0.6283 -0.7246
 7682TIP3    H244462   4.596   5.115   0.183  0.0322 -0.3322 -0.4892
 7683TIP3   OH244463   6.550   1.242  13.134  0.1051  0.4424 -0.0105
 7683TIP3    H144464   6.607   1.267  13.207  0.2760  1.7258 -0.5621
 7683TIP3    H244465   6.475   1.199  13.175  0.5879  0.4367  0.8646
 7684TIP3   OH244466   1.436   1.586  14.966 -0.0469 -0.0880  0.1443
 7684TIP3    H144467   1.493   1.538  14.905 -0.0249  0.3192 -0.1619
 7684TIP3    H244468   1.364   1.617  14.911  0.1705  0.6079  0.2493
 7685TIP3   OH244469   3.310   0.203  12.602 -0.0359  0.1266  0.0921
 7685TIP3    H144470   3.370   0.181  12.530 -0.1216  0.0774  0.0361
 7685TIP3    H244471   3.264   0.121  12.621 -0.0518  0.1532  0.1674
 7686TIP3   OH244472   0.034   1.871   5.132  0.0399  0.0666  0.0206
 7686TIP3    H144473   0.121   1.907   5.116 -0.0717  0.3041 -0.0424
 7686TIP3    H244474   0.025   1.870   5.227 -0.3611  1.1492 -0.0064
 7687TIP3   OH244475   6.118   5.519   5.105  0.3175  0.4407  0.4984
 7687TIP3    H144476   6.208   5.526   5.137  0.7406  1.3148 -0.8401
 7687TIP3    H244477   6.122   5.549   5.015 -1.5372  1.5740  0.7686
 7688TIP3   OH244478   1.697   1.292   6.445 -0.1970  0.2971  0.8617
 7688TIP3    H144479   1.717   1.266   6.355 -0.4939 -0.4096  0.9917
 7688TIP3    H244480   1.660   1.380   6.437  0.9027  0.7353  0.4133
 7689TIP3   OH244481   2.004   0.479   2.770 -0.1516 -0.2742  0.5968
 7689TIP3    H144482   1.998   0.570   2.796 -1.2489 -1.1974  3.7882
 7689TIP3    H244483   1.914   0.447   2.772  0.3037 -1.6311  0.2267
 7690TIP3   OH244484   2.109   0.927   0.442  0.1354  0.5420 -0.2578
 7690TIP3    H144485   2.109   0.924   0.538 -1.7901  2.4693 -0.1512
 7690TIP3    H244486   2.198   0.904   0.417  0.4803 -0.6595  1.9726
 7691TIP3   OH244487   0.718   0.910  12.930  0.4078 -0.4687 -0.0650
 7691TIP3    H144488   0.682   0.996  12.949  0.5944 -0.1242 -1.2051
 7691TIP3    H244489   0.752   0.918  12.841 -1.3898 -2.3235 -0.9573
 7692TIP3   OH244490   1.541   2.912   2.129 -0.0889  0.2990  0.2745
 7692TIP3    H144491   1.450   2.885   2.144 -0.8534  1.9853 -1.0639
 7692TIP3    H244492   1.539   3.007   2.139  1.3302  0.4548 -0.7414
 7693TIP3   OH244493   6.293   0.927   2.763 -0.2524  0.4322  0.2016
 7693TIP3    H144494   6.258   0.973   2.687 -0.2040 -1.0498 -0.7306
 7693TIP3    H244495   6.230   0.856   2.779  0.8141 -0.4938  0.2889
 7694TIP3   OH244496   0.856   5.054   2.121  0.4938  0.0136 -0.0308
 7694TIP3    H144497   0.831   5.119   2.186  1.0279 -0.1573  0.3492
 7694TIP3    H244498   0.774   5.032   2.076 -0.0111 -0.3866  1.0541
 7695TIP3   OH244499   4.537   4.498  17.005  0.0614 -0.1989 -0.1104
 7695TIP3    H144500   4.549   4.411  17.044  2.1015 -0.9486 -2.2779
 7695TIP3    H244501   4.605   4.552  17.046  1.0150 -0.5217 -1.2356
 7696TIP3   OH244502   4.797   1.319  13.486  0.3276 -0.2107  0.0653
 7696TIP3    H144503   4.706   1.327  13.457  0.4926 -1.1267 -0.7075
 7696TIP3    H244504   4.840   1.267  13.418  1.7851  1.4388 -0.3205
 7697TIP3   OH244505   3.620   4.740   6.051 -0.5572  0.2305 -0.1121
 7697TIP3    H144506   3.530   4.718   6.027 -1.0532 -0.4878  2.2317
 7697TIP3    H244507   3.653   4.660   6.092  1.0331  0.6078 -0.6532
 7698TIP3   OH244508   1.450   1.864  16.760  0.0332  0.6502 -0.4718
 7698TIP3    H144509   1.431   1.840  16.669 -0.3044 -0.5267 -0.0930
 7698TIP3    H244510   1.385   1.931  16.781 -0.3290  0.4315 -0.8780
 7699TIP3   OH244511   0.341   1.554  16.453  0.3986  0.1114 -0.1002
 7699TIP3    H144512   0.303   1.469  16.430 -0.7786  0.6112 -0.0930
 7699TIP3    H244513   0.395   1.577  16.378  1.9332 -1.3153  0.5310
 7700TIP3   OH244514   4.108   4.957  14.662  0.0506 -0.3810 -0.3880
 7700TIP3    H144515   4.184   4.972  14.606 -0.1146  1.0364 -0.2447
 7700TIP3    H244516   4.080   4.868  14.641  1.0020 -0.4671 -1.3296
 7701TIP3   OH244517   3.339   3.578   0.884  0.0800  0.2149 -0.2722
 7701TIP3    H144518   3.370   3.588   0.974  0.1669 -0.6606 -0.2025
 7701TIP3    H244519   3.416   3.548   0.836 -0.2629 -0.4430 -0.4090
 7702TIP3   OH244520   2.690   3.201   4.193 -0.5797  0.2407 -0.2677
 7702TIP3    H144521   2.677   3.175   4.101 -0.4119 -2.6887  0.4848
 7702TIP3    H244522   2.610   3.172   4.237  0.1318 -0.0288  0.8457
 7703TIP3   OH244523   0.366   0.278   4.432  0.0187  0.0320 -0.2703
 7703TIP3    H144524   0.438   0.260   4.371 -0.6153 -0.4733 -0.8823
 7703TIP3    H244525   0.336   0.191   4.460 -0.5667  0.2300 -0.2739
 7704TIP3   OH244526   1.453   1.270  13.124  0.3330 -0.0999 -0.6945
 7704TIP3    H144527   1.527   1.319  13.088  0.6637  0.3124  0.5414
 7704TIP3    H244528   1.447   1.298  13.215 -2.4579  1.2112 -1.2259
 7705TIP3   OH244529   5.924   0.748   3.407 -0.2257 -0.5576  0.0838
 7705TIP3    H144530   5.971   0.736   3.324  1.2165 -1.6714  1.0474
 7705TIP3    H244531   5.985   0.719   3.474 -0.8988  1.5467  1.6725
 7706TIP3   OH244532   5.882   6.374  11.719 -0.4839 -0.0640 -0.3571
 7706TIP3    H144533   5.951   6.348  11.658 -1.6966 -2.3074 -0.8093
 7706TIP3    H244534   5.862   6.464  11.695  0.7335 -0.1169 -1.6767
 7707TIP3   OH244535   2.615   2.496   0.206  0.2938  0.0189  0.2354
 7707TIP3    H144536   2.563   2.556   0.260 -2.0762 -1.2270 -0.5757
 7707TIP3    H244537   2.660   2.440   0.269 -1.3672 -0.5383  0.9660
 7708TIP3   OH244538   5.836   3.143  13.039 -0.2498 -0.5686  0.3347
 7708TIP3    H144539   5.857   3.203  13.111  0.0755 -0.7240  0.3692
 7708TIP3    H244540   5.887   3.175  12.965  1.1866 -1.7583  0.7845
 7709TIP3   OH244541   4.889   4.478  13.280 -0.5584  0.3547  0.1581
 7709TIP3    H144542   4.881   4.386  13.306 -0.2782  0.2963  0.0291
 7709TIP3    H244543   4.928   4.521  13.356 -0.8837  0.4056  0.2966
 7710TIP3   OH244544   4.568   3.712  17.131  0.3688 -0.2423 -0.2227
 7710TIP3    H144545   4.591   3.689  17.221 -0.7557 -0.3593  0.0320
 7710TIP3    H244546   4.587   3.632  17.081 -0.2284 -0.5950  0.1119
 7711TIP3   OH244547   4.218   5.912   3.853  0.1043  0.1200 -0.4400
 7711TIP3    H144548   4.247   5.839   3.798  0.1284 -1.2060  1.2683
 7711TIP3    H244549   4.132   5.884   3.885  0.1272  0.8189  0.2471
 7712TIP3   OH244550   2.717   3.579  12.784 -0.2914  0.6046 -0.0098
 7712TIP3    H144551   2.727   3.672  12.764 -4.1375  0.9773 -0.5476
 7712TIP3    H244552   2.719   3.573  12.879  0.7964  1.1088  0.0004
 7713TIP3   OH244553   4.276   6.697  14.726  0.4340 -0.5017 -0.0860
 7713TIP3    H144554   4.280   6.712  14.821 -0.2107 -0.5523 -0.0474
 7713TIP3    H244555   4.367   6.705  14.697  0.6375 -0.4845  0.5367
 7714TIP3   OH244556   2.990   2.437  15.843  0.3675 -0.1027  0.1075
 7714TIP3    H144557   2.975   2.508  15.905 -0.1250  0.8295 -1.0559
 7714TIP3    H244558   3.067   2.465  15.793 -0.1612 -0.1106 -0.7317
 7715TIP3   OH244559   2.290   2.183   0.885 -0.0682  0.0803 -0.0268
 7715TIP3    H144560   2.219   2.233   0.845  2.1090  2.4310 -1.0642
 7715TIP3    H244561   2.277   2.193   0.980 -1.7640 -0.5374 -0.1656
 7716TIP3   OH244562   5.491   6.090  13.378 -0.1880 -0.2707  0.6451
 7716TIP3    H144563   5.543   6.015  13.408  0.0752 -0.6310 -0.6945
 7716TIP3    H244564   5.473   6.139  13.458  2.8089  0.2241  1.0745
 7717TIP3   OH244565   0.689   2.774   4.071 -0.1680  0.2428 -0.0542
 7717TIP3    H144566   0.646   2.785   4.156 -1.1763  2.0187 -0.7831
 7717TIP3    H244567   0.775   2.814   4.082 -0.2470  0.3555  0.1522
 7718TIP3   OH244568   6.610   6.016  16.950  0.3320 -0.8523 -0.2957
 7718TIP3    H144569   6.606   5.945  16.886 -0.2912  0.0436 -1.2864
 7718TIP3    H244570   6.520   6.048  16.956  0.3759 -0.9826  1.0982
 7719TIP3   OH244571   5.403   6.260  15.134 -0.1309 -0.6646 -0.3453
 7719TIP3    H144572   5.436   6.208  15.208  1.8800 -0.8414 -1.3199
 7719TIP3    H244573   5.377   6.195  15.069 -2.1453 -0.5124  0.2861
 7720TIP3   OH244574   1.716   0.832   5.145  0.1856  0.4005 -0.0838
 7720TIP3    H144575   1.804   0.850   5.179  0.4494 -1.4349  0.2665
 7720TIP3    H244576   1.665   0.809   5.222 -0.3205  0.4332 -0.4088
 7721TIP3   OH244577   0.770   6.193   3.098 -0.1037 -0.1438  0.5072
 7721TIP3    H144578   0.806   6.176   3.185 -0.9168  2.7449  1.4709
 7721TIP3    H244579   0.831   6.150   3.038  1.6003 -0.4400  2.3985
 7722TIP3   OH244580   5.801   3.883   3.772 -0.2060  0.5740 -0.7461
 7722TIP3    H144581   5.746   3.809   3.797 -1.3177  1.7272  0.3319
 7722TIP3    H244582   5.838   3.915   3.854  1.0085  0.6583 -1.3044
 7723TIP3   OH244583   0.812   3.002  14.136 -0.4655 -0.3911  0.2966
 7723TIP3    H144584   0.804   3.016  14.230 -0.2877 -0.9829  0.4020
 7723TIP3    H244585   0.780   3.084  14.097  0.4026  0.2348  0.8878
 7724TIP3   OH244586   2.907   6.627  12.445  0.2538  0.0840  0.6046
 7724TIP3    H144587   2.907   6.647  12.351  1.0418 -0.7266  0.4195
 7724TIP3    H244588   2.885   6.709  12.488 -2.5541 -0.0927 -0.4012
 7725TIP3   OH244589   5.444   6.330   3.429  0.2907 -0.0423  0.6890
 7725TIP3    H144590   5.412   6.240   3.423 -0.8317  0.2705  1.6797
 7725TIP3    H244591   5.462   6.355   3.339  0.0132 -1.0552  0.3425
 7726TIP3   OH244592   1.016   3.594  16.844  0.1960 -0.1787 -0.5399
 7726TIP3    H144593   1.008   3.580  16.750 -0.0631  2.9838 -1.0477
 7726TIP3    H244594   1.054   3.682  16.852 -0.1589 -0.2439  2.3041
 7727TIP3   OH244595   4.418   4.100  16.928  0.3630  0.0785  0.2456
 7727TIP3    H144596   4.332   4.078  16.893  0.0987  0.6852  0.5138
 7727TIP3    H244597   4.473   4.024  16.906 -0.2678 -0.3675  0.1918
 7728TIP3   OH244598   1.930   4.894  14.086 -0.4783  0.5143  0.0518
 7728TIP3    H144599   1.864   4.960  14.107  0.1892  0.7379  1.5238
 7728TIP3    H244600   1.950   4.853  14.170  1.2323  0.4168 -0.3806
 7729TIP3   OH244601   3.321   1.730  14.686 -0.6623  0.7016  0.0037
 7729TIP3    H144602   3.409   1.695  14.679 -1.2827 -0.8030 -0.4604
 7729TIP3    H244603   3.295   1.749  14.595 -1.5348 -0.6943 -0.0473
 7730TIP3   OH244604   1.381   3.962   3.415  0.1705 -0.2683 -0.2429
 7730TIP3    H144605   1.338   4.014   3.347 -0.7916  0.3903  0.8386
 7730TIP3    H244606   1.314   3.899   3.443  0.4339 -0.2966  0.3314
 7731TIP3   OH244607   4.945   3.172   3.890  0.0069 -0.2215  0.0615
 7731TIP3    H144608   5.018   3.226   3.858 -1.0070  0.9813 -0.2600
 7731TIP3    H244609   4.945   3.096   3.833  0.8319 -0.0845 -0.1273
 7732TIP3   OH244610   5.434   1.781  14.724  0.0234  0.3259  0.0182
 7732TIP3    H144611   5.477   1.827  14.796  1.9654 -0.3887 -0.6449
 7732TIP3    H244612   5.358   1.836  14.703  0.0936  1.1558  1.8070
 7733TIP3   OH244613   0.432   2.439   3.557 -0.3400  0.0679  0.5060
 7733TIP3    H144614   0.489   2.515   3.544  1.4680 -1.1107  1.4271
 7733TIP3    H244615   0.489   2.371   3.593 -2.2660 -1.2329  1.2026
 7734TIP3   OH244616   1.708   0.076  16.139 -0.7609  0.4505  0.1594
 7734TIP3    H144617   1.690   0.126  16.218 -0.9626  1.4009 -0.4811
 7734TIP3    H244618   1.660   0.122  16.069 -0.4256 -0.2556 -0.5492
 7735TIP3   OH244619   5.057   3.214  14.267 -0.0536  0.0863  0.3355
 7735TIP3    H144620   5.033   3.303  14.241  0.2494  1.3716  4.0691
 7735TIP3    H244621   4.974   3.171  14.286 -0.1005  0.3410  0.7253
 7736TIP3   OH244622   2.093   1.459   2.195  0.0186 -0.3463 -0.3467
 7736TIP3    H144623   2.001   1.434   2.204 -0.4339  1.5643  0.7471
 7736TIP3    H244624   2.135   1.423   2.272 -0.1857  0.2966  0.0728
 7737TIP3   OH244625   0.434   0.671   4.641 -0.3493  0.1411  0.5249
 7737TIP3    H144626   0.512   0.666   4.587 -0.5579 -1.1443  0.3246
 7737TIP3    H244627   0.446   0.603   4.707 -2.5215 -1.9602 -1.1613
 7738TIP3   OH244628   1.444   4.401  16.074 -0.6076  0.0310 -0.2197
 7738TIP3    H144629   1.456   4.450  15.993 -0.9718  0.4670 -0.0124
 7738TIP3    H244630   1.473   4.312  16.053  0.9742  0.5476 -0.3377
 7739TIP3   OH244631   5.452   3.219  14.833  0.3455 -0.3100  0.0311
 7739TIP3    H144632   5.435   3.225  14.739 -0.2569 -1.7809  0.0295
 7739TIP3    H244633   5.396   3.286  14.872 -0.1497 -0.3657 -0.5782
 7740TIP3   OH244634   0.611   6.656  10.615 -0.7419 -0.0316  0.0684
 7740TIP3    H144635   0.620   6.737  10.664  1.4348 -0.7899  0.9472
 7740TIP3    H244636   0.681   6.659  10.550 -0.3263 -1.4243  0.4313
 7741TIP3   OH244637   2.686   6.324  17.020  0.2917  0.5963  0.1789
 7741TIP3    H144638   2.630   6.257  17.060  0.9103  0.4235  0.7708
 7741TIP3    H244639   2.674   6.401  17.075  0.2524  0.7135  0.0067
 7742TIP3   OH244640   3.401   4.920  14.409  0.2407 -0.0938  0.6340
 7742TIP3    H144641   3.324   4.913  14.464  0.2026 -1.9037  0.3748
 7742TIP3    H244642   3.382   4.866  14.332  1.7915 -0.6346  0.6047
 7743TIP3   OH244643   2.127   3.902  11.481  1.1515  1.0563  0.4336
 7743TIP3    H144644   2.158   3.959  11.410 -0.0526  1.8759  0.5578
 7743TIP3    H244645   2.085   3.829  11.437  1.2332  1.0901  0.2982
 7744TIP3   OH244646   2.547   2.414   6.424  0.1256 -0.1493 -0.0926
 7744TIP3    H144647   2.490   2.347   6.386  0.2182  0.8660 -2.0471
 7744TIP3    H244648   2.631   2.369   6.437 -0.7776 -1.3736  1.8937
 7745TIP3   OH244649   0.742   5.532   5.359  0.3468  0.0133  0.0724
 7745TIP3    H144650   0.736   5.570   5.446  3.0206 -0.5606  0.5427
 7745TIP3    H244651   0.807   5.585   5.314 -1.0544  0.3461 -1.6210
 7746TIP3   OH244652   0.686   0.769  16.477 -0.3468 -0.0139 -0.9103
 7746TIP3    H144653   0.704   0.786  16.385 -1.4968  0.6297 -1.0245
 7746TIP3    H244654   0.745   0.828  16.524  0.0531 -0.1559 -1.2294
 7747TIP3   OH244655   4.191   2.156   1.611 -0.4918 -0.8142 -0.4517
 7747TIP3    H144656   4.224   2.159   1.521  0.4804 -0.9086 -0.1006
 7747TIP3    H244657   4.149   2.241   1.624  1.4425  0.1132 -0.2082
 7748TIP3   OH244658   5.415   0.276   2.595  0.0916  0.2713 -0.9679
 7748TIP3    H144659   5.369   0.231   2.525 -1.4367 -0.8045  0.6611
 7748TIP3    H244660   5.358   0.265   2.672  2.3555  0.2016  0.7679
 7749TIP3   OH244661   2.842   3.972   1.042  0.0769 -0.1540 -0.0189
 7749TIP3    H144662   2.923   4.013   1.014 -1.2385  1.7873 -1.0785
 7749TIP3    H244663   2.792   4.043   1.083 -0.8161 -1.4714  1.2109
 7750TIP3   OH244664   2.253   3.257   3.174  0.0731 -0.5782 -0.1795
 7750TIP3    H144665   2.206   3.255   3.091 -0.3209 -0.6287  0.0450
 7750TIP3    H244666   2.225   3.339   3.216 -1.9228 -1.9065  1.1776
 7751TIP3   OH244667   2.276   6.206   3.523  0.0710 -0.3531 -0.1761
 7751TIP3    H144668   2.275   6.124   3.473  0.9152 -0.2889 -0.2923
 7751TIP3    H244669   2.219   6.188   3.598 -0.1166 -0.8944 -0.4434
 7752TIP3   OH244670   5.877   3.930   0.084 -0.4335 -0.0322  0.0092
 7752TIP3    H144671   5.799   3.896   0.128 -1.3903  1.9454 -0.1299
 7752TIP3    H244672   5.858   3.918  -0.010  0.1803 -1.1430  0.0177
 7753TIP3   OH244673   2.429   1.304   3.163  0.0704  0.0866  0.3926
 7753TIP3    H144674   2.414   1.379   3.221  0.1772  1.1117 -0.8653
 7753TIP3    H244675   2.492   1.337   3.099 -1.0159 -0.6118 -1.0634
 7754TIP3   OH244676   1.056   1.750  13.059 -0.2657  0.3746  0.6356
 7754TIP3    H144677   1.118   1.677  13.060 -1.5611 -0.7585  0.0199
 7754TIP3    H244678   0.984   1.721  13.114 -0.8174  1.1605  0.3381
 7755TIP3   OH244679   1.808   0.248  13.784 -0.1397  0.2976 -0.2396
 7755TIP3    H144680   1.823   0.203  13.701  2.1971 -0.8554  0.7571
 7755TIP3    H244681   1.774   0.180  13.842 -1.0262  0.9184 -0.0293
 7756TIP3   OH244682   2.899   2.294   3.508  0.5599 -0.3612  0.0386
 7756TIP3    H144683   2.815   2.247   3.513  0.4621 -0.0960  0.8987
 7756TIP3    H244684   2.911   2.332   3.595  2.1522 -1.3878  0.2864
 7757TIP3   OH244685   1.713   2.405   1.767 -0.5010  0.1312 -0.0014
 7757TIP3    H144686   1.651   2.333   1.753 -2.1485  1.4790  0.2393
 7757TIP3    H244687   1.705   2.425   1.861  0.6038  0.0608  0.1152
 7758TIP3   OH244688   4.203   0.754  11.026  0.2720  0.3588  0.3667
 7758TIP3    H144689   4.263   0.826  11.046 -0.9285  0.3086  4.7332
 7758TIP3    H244690   4.255   0.675  11.038  0.0564  0.3847  1.5428
 7759TIP3   OH244691   3.134   5.651  12.198 -0.3391  0.0408 -0.2441
 7759TIP3    H144692   3.048   5.612  12.215 -0.2463  0.2671  0.7628
 7759TIP3    H244693   3.133   5.672  12.104 -1.2460 -0.2825 -0.3086
 7760TIP3   OH244694   4.030   3.475   2.199  0.2021 -0.9712  0.3185
 7760TIP3    H144695   4.039   3.476   2.103 -1.0953 -0.4678  0.2007
 7760TIP3    H244696   4.052   3.564   2.226  0.6761 -1.1431  0.5055
 7761TIP3   OH244697   1.067   1.903  15.943 -0.4894 -0.3085  0.3279
 7761TIP3    H144698   1.043   1.984  15.898 -0.8573 -1.1813 -1.0962
 7761TIP3    H244699   1.051   1.921  16.036 -0.4765  1.2717  0.0416
 7762TIP3   OH244700   0.358   2.969  15.611  1.0650  0.7255 -0.4781
 7762TIP3    H144701   0.440   2.939  15.650  1.5389 -0.2048 -2.1574
 7762TIP3    H244702   0.337   2.903  15.544 -0.3632  1.6467 -0.9668
 7763TIP3   OH244703   0.064   3.437   3.003  0.1516  0.1940  0.4093
 7763TIP3    H144704   0.032   3.502   3.066  1.2245  3.0995 -1.9084
 7763TIP3    H244705   0.159   3.453   2.998  0.3648 -1.2597 -0.5338
 7764TIP3   OH244706   4.832   1.578  14.358  0.9539  0.0552 -0.1624
 7764TIP3    H144707   4.748   1.574  14.311  0.9628  0.4847 -0.2224
 7764TIP3    H244708   4.894   1.536  14.299  1.2039  1.6439 -1.0860
 7765TIP3   OH244709   1.842   3.940  13.939  0.1557  0.2446  0.3712
 7765TIP3    H144710   1.898   3.863  13.932  0.6818  0.7558 -1.2453
 7765TIP3    H244711   1.903   4.013  13.951 -0.0310  0.9692 -2.6347
 7766TIP3   OH244712   1.565   2.673  12.527  0.2604  0.4236 -0.5194
 7766TIP3    H144713   1.576   2.686  12.432 -0.8914  1.8615 -0.4689
 7766TIP3    H244714   1.499   2.737  12.553  0.0729 -0.4127  1.1566
 7767TIP3   OH244715   6.225   6.342   4.813 -0.2492  0.3343  0.3678
 7767TIP3    H144716   6.263   6.318   4.897 -1.6625 -1.0098  0.6487
 7767TIP3    H244717   6.267   6.283   4.750 -0.5534  0.0617  0.4174
 7768TIP3   OH244718   6.044   0.274  13.571  0.3512 -0.0425  0.8326
 7768TIP3    H144719   5.956   0.309  13.585  0.3641  0.2916  0.0791
 7768TIP3    H244720   6.076   0.254  13.659 -0.1759  0.5769  1.1685
 7769TIP3   OH244721   5.687   6.197  14.233  0.1530 -0.3440 -0.1728
 7769TIP3    H144722   5.778   6.169  14.226 -0.9341 -4.1156 -0.0785
 7769TIP3    H244723   5.649   6.179  14.147 -0.5053  1.4088 -0.2881
 7770TIP3   OH244724   5.648   6.149   1.526  0.1322  0.4272 -0.1381
 7770TIP3    H144725   5.599   6.169   1.446 -2.0113  0.9283  1.2434
 7770TIP3    H244726   5.697   6.229   1.545 -0.3481  0.7519 -0.2639
 7771TIP3   OH244727   2.200   2.288  11.140 -0.4563  0.2185  0.1654
 7771TIP3    H144728   2.239   2.374  11.124  2.5218 -1.1521 -0.4320
 7771TIP3    H244729   2.114   2.306  11.177  1.9655  3.4674  4.5962
 7772TIP3   OH244730   1.541   1.419  14.777  1.0682 -0.0071 -0.6502
 7772TIP3    H144731   1.542   1.425  14.682 -1.1928  1.5068 -0.6112
 7772TIP3    H244732   1.544   1.325  14.795 -2.8057 -0.5331 -2.3648
 7773TIP3   OH244733   5.911   5.704  14.298 -0.0518  0.1597 -0.2972
 7773TIP3    H144734   5.902   5.612  14.272  1.3296  0.4582 -1.9117
 7773TIP3    H244735   6.005   5.716  14.313 -0.4736  0.7691  2.0364
 7774TIP3   OH244736   6.514   0.363   3.538 -0.2647 -0.4173 -0.5892
 7774TIP3    H144737   6.541   0.271   3.533  0.8727 -0.0684 -0.8512
 7774TIP3    H244738   6.493   0.387   3.448  0.8078 -0.0088 -0.7343
 7775TIP3   OH244739   3.100   3.353  15.354 -0.0731 -0.1245  0.1741
 7775TIP3    H144740   3.034   3.418  15.377  1.2479  1.2490  0.1058
 7775TIP3    H244741   3.114   3.365  15.260  0.9640  0.2504  0.3676
 7776TIP3   OH244742   4.110   2.824   3.460 -0.3835 -0.2412 -0.4087
 7776TIP3    H144743   4.122   2.729   3.456  0.5674 -0.1472  0.1561
 7776TIP3    H244744   4.163   2.858   3.388 -0.1042 -0.0795 -0.1251
 7777TIP3   OH244745   4.745   2.604   5.667 -0.0537  0.5592  0.3538
 7777TIP3    H144746   4.706   2.684   5.702 -2.9426 -0.1388 -1.1291
 7777TIP3    H244747   4.673   2.541   5.666  1.7873 -1.5824 -0.0368
 7778TIP3   OH244748   5.138   1.243  11.518  0.0703 -0.5410 -0.4560
 7778TIP3    H144749   5.117   1.150  11.510 -1.6675 -0.2751  0.6097
 7778TIP3    H244750   5.128   1.278  11.429 -1.1348 -1.0286 -0.5288
 7779TIP3   OH244751   5.457   2.467  12.135 -0.0678  0.1179  0.2280
 7779TIP3    H144752   5.450   2.398  12.200 -0.6754  1.1214  1.2278
 7779TIP3    H244753   5.374   2.515  12.140 -0.0679  0.2935 -1.1765
 7780TIP3   OH244754   2.329   4.704  14.111  0.3307 -0.0825  0.1021
 7780TIP3    H144755   2.391   4.677  14.043 -0.9445  0.2882 -1.2230
 7780TIP3    H244756   2.274   4.770  14.069  0.7335  1.5551  2.0704
 7781TIP3   OH244757   6.111   6.301  14.030  0.1887 -0.4663 -0.1666
 7781TIP3    H144758   6.197   6.310  13.990 -0.4368  1.2683 -1.1840
 7781TIP3    H244759   6.116   6.354  14.110 -0.4832  1.1447 -1.1703
 7782TIP3   OH244760   2.404   6.176  14.716  0.2958 -0.3995 -0.3778
 7782TIP3    H144761   2.332   6.199  14.658 -0.2803 -1.8784 -0.2772
 7782TIP3    H244762   2.380   6.091  14.752  1.2315 -0.0770  1.0754
 7783TIP3   OH244763   2.111   1.075   1.350  0.1509  0.2322  0.5288
 7783TIP3    H144764   2.071   1.008   1.405 -1.2503 -0.9644 -1.8694
 7783TIP3    H244765   2.180   1.028   1.303 -0.6061  0.5370 -0.9053
 7784TIP3   OH244766   0.129   4.370   3.485 -0.1574 -0.3680 -0.2083
 7784TIP3    H144767   0.124   4.430   3.411  1.8680 -1.6879 -1.4602
 7784TIP3    H244768   0.216   4.385   3.523  0.0805 -1.9401 -0.0869
 7785TIP3   OH244769   4.638   0.293  12.157  0.1270 -0.0804 -0.0647
 7785TIP3    H144770   4.657   0.340  12.076 -2.2833  1.8295  0.4090
 7785TIP3    H244771   4.542   0.289  12.160  0.2217 -1.3770  1.9948
 7786TIP3   OH244772   3.505   0.559   6.045 -0.0092 -0.0519 -0.2774
 7786TIP3    H144773   3.412   0.569   6.063 -0.0090 -0.2708 -0.1482
 7786TIP3    H244774   3.548   0.623   6.102 -0.0113 -0.7118  0.4768
 7787TIP3   OH244775   5.833   5.006  13.001 -0.0158 -0.0312  0.2142
 7787TIP3    H144776   5.828   4.947  12.926  0.7406  1.2665 -0.9003
 7787TIP3    H244777   5.744   5.040  13.011  0.3152  1.4516 -1.5163
 7788TIP3   OH244778   5.054   5.178   5.759  0.4446  0.0992  0.3388
 7788TIP3    H144779   5.127   5.240   5.751 -0.0688  0.5380 -0.9519
 7788TIP3    H244780   5.093   5.102   5.803  1.2361  1.0572  1.3573
 7789TIP3   OH244781   4.490   5.788   5.987  0.0498  0.2530  0.2805
 7789TIP3    H144782   4.560   5.763   6.047 -0.5223 -0.9634  0.4440
 7789TIP3    H244783   4.410   5.777   6.038 -0.3705  0.1078 -0.4095
 7790TIP3   OH244784   2.895   2.347   4.679 -1.0346  0.4208 -0.0439
 7790TIP3    H144785   2.872   2.387   4.763  0.6315  0.9492  0.1648
 7790TIP3    H244786   2.939   2.265   4.704 -1.0086  0.3206 -0.4260
 7791TIP3   OH244787   4.742   3.347   3.651 -0.7291  0.2165  0.4722
 7791TIP3    H144788   4.822   3.334   3.599  0.4345  1.2642  1.9549
 7791TIP3    H244789   4.694   3.415   3.604  1.0558  2.2873  1.5410
 7792TIP3   OH244790   1.662   1.636  12.289 -0.1065 -0.1804  0.4350
 7792TIP3    H144791   1.687   1.546  12.268 -4.1069 -1.1531 -0.6837
 7792TIP3    H244792   1.590   1.626  12.352 -1.1639  2.2031 -0.3370
 7793TIP3   OH244793   5.069   1.456  16.374  0.2441  0.3318 -0.2428
 7793TIP3    H144794   5.020   1.538  16.375  0.9502  0.7790 -1.5041
 7793TIP3    H244795   5.133   1.467  16.304 -0.2990 -1.6699 -1.0761
 7794TIP3   OH244796   2.971   4.415   0.892 -0.3976  0.3052 -0.1431
 7794TIP3    H144797   2.996   4.489   0.837 -0.0871  0.0207 -0.3824
 7794TIP3    H244798   3.008   4.338   0.848  0.9825  0.2078  1.1529
 7795TIP3   OH244799   3.713   4.028   6.199 -0.0935  0.7156  0.1745
 7795TIP3    H144800   3.624   4.016   6.232 -0.1807  1.0467  0.0652
 7795TIP3    H244801   3.733   4.120   6.217 -0.1571  0.9173 -0.7231
 7796TIP3   OH244802   5.605   4.438   0.906 -0.3858 -0.0828  0.2094
 7796TIP3    H144803   5.664   4.362   0.916  0.0842  0.1193 -0.8827
 7796TIP3    H244804   5.585   4.440   0.812 -1.4383  0.3822  0.4350
 7797TIP3   OH244805   1.017   0.628   5.041  0.5542  0.2702  0.3456
 7797TIP3    H144806   1.080   0.560   5.016 -0.2094 -0.2447 -0.2091
 7797TIP3    H244807   1.044   0.655   5.129  2.9464  1.7236 -0.8116
 7798TIP3   OH244808   3.063   2.344   2.152 -0.0558 -0.0015 -0.1902
 7798TIP3    H144809   3.113   2.322   2.230 -1.2847 -0.6899  0.4195
 7798TIP3    H244810   3.118   2.406   2.105  1.2640 -0.5837  0.5680
 7799TIP3   OH244811   5.668   4.789   3.151  0.4392 -0.1560  0.4707
 7799TIP3    H144812   5.721   4.802   3.229  0.4906  2.8094 -0.0078
 7799TIP3    H244813   5.584   4.757   3.184  0.5022  0.9510  1.7306
 7800TIP3   OH244814   0.531   1.755  16.579  0.0959  0.1559  0.0228
 7800TIP3    H144815   0.452   1.804  16.556 -0.2588  0.8652  2.6062
 7800TIP3    H244816   0.517   1.668  16.543 -1.9767  0.2140  0.6671
 7801TIP3   OH244817   6.364   1.521  14.010 -0.2643 -0.6209 -0.0785
 7801TIP3    H144818   6.282   1.506  14.056  0.5006 -1.5178  1.0173
 7801TIP3    H244819   6.398   1.603  14.048 -0.1441 -0.8052  0.2140
 7802TIP3   OH244820   0.281   5.704  11.007 -0.5591 -0.2614  0.2544
 7802TIP3    H144821   0.345   5.775  10.996 -1.0246  0.2550  0.8595
 7802TIP3    H244822   0.254   5.709  11.099  0.3894 -2.0763  0.6520
 7803TIP3   OH244823   3.890   3.043   2.534 -0.5942 -0.0454 -0.3299
 7803TIP3    H144824   3.876   3.011   2.445 -0.3952  0.8637 -0.6944
 7803TIP3    H244825   3.960   2.988   2.568  0.7511  0.9332 -1.4524
 7804TIP3   OH244826   1.097   3.304  12.984 -0.1849 -0.7173 -0.9719
 7804TIP3    H144827   1.034   3.356  13.034 -1.0803 -0.7963 -2.0051
 7804TIP3    H244828   1.175   3.360  12.979  0.4516 -1.2800  1.7243
 7805TIP3   OH244829   5.002   0.080   2.272  0.2837  0.6077  0.0945
 7805TIP3    H144830   4.987  -0.006   2.233  1.4672  0.2543  0.3845
 7805TIP3    H244831   4.962   0.075   2.358  0.4590  0.2994  0.1579
 7806TIP3   OH244832   4.193   1.828   3.166 -0.1227 -0.9125  0.2168
 7806TIP3    H144833   4.180   1.778   3.247 -2.2557  0.0695  0.5377
 7806TIP3    H244834   4.148   1.911   3.183  0.7196 -0.1012 -1.4331
 7807TIP3   OH244835   2.947   4.662   4.684  0.4930  0.0358 -0.0209
 7807TIP3    H144836   2.916   4.657   4.593 -2.0555  0.0629  0.8022
 7807TIP3    H244837   2.997   4.582   4.697 -1.3567 -1.2512 -0.6765
 7808TIP3   OH244838   5.780   0.505   2.856 -0.4410  0.3633 -0.0593
 7808TIP3    H144839   5.729   0.459   2.789  0.3222 -0.3548 -0.1587
 7808TIP3    H244840   5.831   0.569   2.807  0.1037 -0.1499 -0.1679
 7809TIP3   OH244841   6.716   0.291   4.717 -0.6899 -0.3866 -0.5668
 7809TIP3    H144842   6.712   0.209   4.766 -1.4563 -0.7197 -1.1788
 7809TIP3    H244843   6.675   0.355   4.774 -1.0548 -0.6492 -0.5337
 7810TIP3   OH244844   5.766   1.420   4.303 -0.1061  0.2456  0.7148
 7810TIP3    H144845   5.685   1.374   4.325 -0.7300  1.1355  0.3128
 7810TIP3    H244846   5.821   1.353   4.263 -1.2905  0.0127 -0.5569
 7811TIP3   OH244847   6.613   3.806  13.900  0.2401  0.4466  0.3793
 7811TIP3    H144848   6.566   3.782  13.820 -1.1226  1.2479  0.9234
 7811TIP3    H244849   6.685   3.743  13.905 -0.9013 -0.9397 -0.3550
 7812TIP3   OH244850   4.387   0.644   4.421 -0.3892 -0.1113 -0.3599
 7812TIP3    H144851   4.397   0.641   4.326 -1.3271  0.3876 -0.4748
 7812TIP3    H244852   4.392   0.737   4.444  1.9774 -0.3692  0.3242
 7813TIP3   OH244853   6.159   2.087  14.962  0.3442  0.0293  0.4875
 7813TIP3    H144854   6.133   2.021  15.026  1.0727 -1.1399 -0.3958
 7813TIP3    H244855   6.251   2.065  14.942  0.3123  0.7592 -0.4857
 7814TIP3   OH244856   6.632   3.922   4.293  0.6347 -0.0644  0.3425
 7814TIP3    H144857   6.691   3.910   4.367  1.3944 -1.2057 -0.4334
 7814TIP3    H244858   6.658   3.854   4.230 -1.1849 -0.2738 -0.2100
 7815TIP3   OH244859   2.532   1.271   2.609 -0.4588  0.4062 -0.1323
 7815TIP3    H144860   2.502   1.193   2.563 -0.3668 -0.6421  1.5358
 7815TIP3    H244861   2.550   1.241   2.698  1.0461  2.0075  0.1321
 7816TIP3   OH244862   3.208   4.951  15.452 -0.1712  0.2291  0.1414
 7816TIP3    H144863   3.208   4.978  15.360  1.3837  0.7430  0.2785
 7816TIP3    H244864   3.116   4.944  15.474 -0.5796  1.2500 -1.1308
 7817TIP3   OH244865   0.061   1.251  16.033 -0.4531 -0.1064 -0.2864
 7817TIP3    H144866   0.039   1.163  16.004 -0.6287 -0.6934  1.5361
 7817TIP3    H244867   0.035   1.252  16.126 -0.2623  1.7865 -0.2408
 7818TIP3   OH244868   0.613   5.617  12.664  0.0221 -0.3301  0.3983
 7818TIP3    H144869   0.560   5.623  12.585  1.0998 -1.0373 -0.3938
 7818TIP3    H244870   0.626   5.523  12.677  0.1739 -0.2018  1.2051
 7819TIP3   OH244871   0.136   6.507  16.525 -0.2255 -0.3210 -0.2886
 7819TIP3    H144872   0.153   6.540  16.613 -4.2065  0.5619  0.2606
 7819TIP3    H244873   0.135   6.586  16.470 -0.9220 -0.5059 -0.5470
 7820TIP3   OH244874   2.326   5.670   0.717 -0.1689 -0.0743 -0.5294
 7820TIP3    H144875   2.401   5.687   0.774 -0.8055 -1.1315  0.6521
 7820TIP3    H244876   2.364   5.656   0.630  0.8872  0.5898 -0.1775
 7821TIP3   OH244877   0.157   0.929  15.079  0.1592  0.5321  0.3905
 7821TIP3    H144878   0.236   0.983  15.086  0.5056  0.1455 -0.4701
 7821TIP3    H244879   0.087   0.990  15.058  0.8619  0.4582 -2.3852
 7822TIP3   OH244880   3.234   2.072  17.161 -0.4900 -0.2509 -0.7958
 7822TIP3    H144881   3.267   2.010  17.096  0.3888 -0.3034 -0.3116
 7822TIP3    H244882   3.305   2.135  17.173 -0.6185 -0.2733  0.1546
 7823TIP3   OH244883   1.870   3.179  11.163 -0.2376 -0.3355  0.5907
 7823TIP3    H144884   1.904   3.226  11.087 -2.1574  1.7712  0.9667
 7823TIP3    H244885   1.876   3.087  11.140  3.8249  0.0120 -0.1108
 7824TIP3   OH244886   1.552   3.313   6.597  0.2847  0.2480 -0.3226
 7824TIP3    H144887   1.496   3.305   6.520  0.9993  0.0696 -0.8219
 7824TIP3    H244888   1.537   3.231   6.645  0.1256  0.1971 -0.4569
 7825TIP3   OH244889   6.059   4.407  12.727  0.0767 -0.7430 -0.2458
 7825TIP3    H144890   6.111   4.483  12.702 -0.1294  0.1947  2.0067
 7825TIP3    H244891   5.983   4.409  12.668  1.0596 -0.3628 -1.5076
 7826TIP3   OH244892   4.562   5.605  11.723  0.1769  0.1131  0.2371
 7826TIP3    H144893   4.493   5.664  11.752  0.4121  0.3325  0.3518
 7826TIP3    H244894   4.643   5.654  11.737  0.2355  0.6779 -1.8166
 7827TIP3   OH244895   0.450   5.983  15.783 -0.1852  0.0697 -0.1311
 7827TIP3    H144896   0.459   6.073  15.817 -1.1304 -0.0967  0.6046
 7827TIP3    H244897   0.414   5.934  15.857  0.8140 -1.0326 -0.3790
 7828TIP3   OH244898   0.976   2.038   0.982  0.2187 -0.1757 -0.3953
 7828TIP3    H144899   0.994   2.121   1.026 -0.9648 -0.2302  0.1888
 7828TIP3    H244900   0.928   2.063   0.903  2.9733 -0.0051 -2.1238
 7829TIP3   OH244901   2.673   1.804  15.758  0.0846 -0.2517 -0.0058
 7829TIP3    H144902   2.599   1.781  15.702  0.7578 -3.1634  0.2067
 7829TIP3    H244903   2.634   1.839  15.838 -0.9239  2.1105 -1.4798
 7830TIP3   OH244904   6.493   3.773  16.438 -0.0935  0.1136  0.0603
 7830TIP3    H144905   6.452   3.816  16.363 -3.0904  0.3412  1.7369
 7830TIP3    H244906   6.530   3.846  16.489  1.0864  0.0426 -0.6749
 7831TIP3   OH244907   1.852   2.899  11.093  0.0320  0.4136 -0.4826
 7831TIP3    H144908   1.943   2.869  11.098  0.7280  2.5635  0.6235
 7831TIP3    H244909   1.825   2.880  11.004  1.6876  0.0085 -0.9150
 7832TIP3   OH244910   1.029   3.541  10.835 -0.1145  0.3757  0.5504
 7832TIP3    H144911   1.114   3.499  10.851 -0.4637 -0.7975 -0.5131
 7832TIP3    H244912   1.045   3.601  10.762  0.1915  1.4699  1.5100
 7833TIP3   OH244913   4.028   4.933   2.071  0.1075 -0.2256 -0.0934
 7833TIP3    H144914   3.950   4.980   2.101 -0.8640 -1.0770 -1.2421
 7833TIP3    H244915   4.071   4.993   2.011 -2.5872 -1.7536 -3.6917
 7834TIP3   OH244916   1.884   6.490   1.365  0.1666  0.4261  0.7050
 7834TIP3    H144917   1.811   6.502   1.425  0.7538  1.2250  1.2785
 7834TIP3    H244918   1.960   6.477   1.422  0.4240 -0.7297  0.1143
 7835TIP3   OH244919   2.075   5.161  15.558 -0.1559 -0.3409 -0.2631
 7835TIP3    H144920   2.116   5.075  15.554  1.2825  0.3753 -1.4212
 7835TIP3    H244921   2.148   5.221  15.576 -0.9358  0.7902 -0.8635
 7836TIP3   OH244922   2.018   0.739   2.797  0.4328 -0.2150 -0.2694
 7836TIP3    H144923   2.072   0.807   2.756  1.4764 -1.4329 -0.9704
 7836TIP3    H244924   2.010   0.767   2.888  0.5565  1.0168 -0.6213
 7837TIP3   OH244925   0.724   5.281   2.862 -0.2183 -0.5510  0.1872
 7837TIP3    H144926   0.740   5.286   2.956  0.1496 -3.4819  0.3325
 7837TIP3    H244927   0.809   5.300   2.822 -0.5818  1.6197  0.3772
 7838TIP3   OH244928   2.044   2.300   1.356  0.6711 -0.1728  0.0996
 7838TIP3    H144929   1.970   2.361   1.355 -0.1022 -1.1296 -2.4884
 7838TIP3    H244930   2.031   2.248   1.436  0.3363  1.7616  1.3492
 7839TIP3   OH244931   6.701   5.714  16.513 -0.5824 -0.4001 -0.3142
 7839TIP3    H144932   6.639   5.742  16.446 -1.2355 -2.3139 -0.5614
 7839TIP3    H244933   6.652   5.651  16.566 -0.2671  1.5232  2.3782
 7840TIP3   OH244934   6.384   4.412  11.454 -0.4501 -0.2919 -0.2431
 7840TIP3    H144935   6.309   4.364  11.418 -0.9584 -0.2177  0.7025
 7840TIP3    H244936   6.458   4.384  11.401 -0.7274 -2.1594  0.3202
 7841TIP3   OH244937   5.017   3.000  13.617  0.0347 -0.5285  0.0339
 7841TIP3    H144938   5.046   3.092  13.623 -2.9047  0.3082  2.4700
 7841TIP3    H244939   5.086   2.951  13.662  1.6638  0.4225 -1.3209
 7842TIP3   OH244940   6.065   5.889  16.735  0.2760  0.3182  0.0216
 7842TIP3    H144941   6.071   5.895  16.831 -1.2743  0.5899  0.1015
 7842TIP3    H244942   6.149   5.923  16.704  1.2434 -0.8202  1.3224
 7843TIP3   OH244943   4.002   2.752  10.539  0.7307 -0.1824 -0.2739
 7843TIP3    H144944   3.915   2.756  10.501  0.1062  0.5256  1.1842
 7843TIP3    H244945   4.015   2.660  10.562  0.7125 -0.4356 -1.2549
 7844TIP3   OH244946   0.443   3.004   4.195 -0.5231 -0.5314 -0.3355
 7844TIP3    H144947   0.378   2.956   4.143 -1.6667  1.8134 -1.1811
 7844TIP3    H244948   0.495   2.936   4.238 -1.4901 -2.5093 -2.1745
 7845TIP3   OH244949   0.643   2.441   2.034 -0.1627 -0.1126 -0.1814
 7845TIP3    H144950   0.556   2.421   2.000 -0.2084 -1.6082  0.7432
 7845TIP3    H244951   0.628   2.470   2.124  0.2752 -0.1831 -0.0818
 7846TIP3   OH244952   3.796   5.009  15.685  0.8821 -0.4896 -0.4061
 7846TIP3    H144953   3.821   5.090  15.729 -1.4115 -0.7004  1.3774
 7846TIP3    H244954   3.831   4.940  15.740  0.9137 -0.7178 -0.7133
 7847TIP3   OH244955   5.592   1.398   1.602  0.1121 -0.4234 -0.0881
 7847TIP3    H144956   5.655   1.337   1.642  0.2637 -2.2245 -2.9890
 7847TIP3    H244957   5.634   1.483   1.611  0.4462 -0.8189  2.9298
 7848TIP3   OH244958   2.019   6.647  11.344 -0.0719 -1.0003  0.3794
 7848TIP3    H144959   2.000   6.661  11.437  0.6544 -0.9107  0.5128
 7848TIP3    H244960   2.083   6.714  11.322  2.0807 -2.9374  0.5830
 7849TIP3   OH244961   3.059   0.050  17.013  0.2471 -0.1238  0.2019
 7849TIP3    H144962   3.063   0.132  17.062  0.6281  1.2746 -2.0890
 7849TIP3    H244963   3.057  -0.019  17.080  3.9673  1.5688  2.1829
 7850TIP3   OH244964   0.834   0.022   1.916  0.1125 -0.3204  0.0998
 7850TIP3    H144965   0.800   0.086   1.853  0.1509  0.9815  1.3623
 7850TIP3    H244966   0.915  -0.010   1.876  0.5397  1.0599 -0.1756
 7851TIP3   OH244967   3.327   6.615  11.124 -0.5778  0.0046  0.0035
 7851TIP3    H144968   3.395   6.594  11.060 -0.2445  2.7247 -0.6319
 7851TIP3    H244969   3.364   6.589  11.209  0.2777 -0.6988 -0.5851
 7852TIP3   OH244970   0.128   3.351   5.994 -0.4128  0.1485  0.2734
 7852TIP3    H144971   0.220   3.372   6.005 -0.5185  0.5192  0.4641
 7852TIP3    H244972   0.085   3.393   6.069 -0.4512 -1.8975  1.4242
 7853TIP3   OH244973   2.158   4.231   1.438 -0.3825  0.0746  0.7880
 7853TIP3    H144974   2.134   4.198   1.525 -0.1543  2.0520  1.6217
 7853TIP3    H244975   2.132   4.161   1.378 -2.6862 -0.3561  2.2319
 7854TIP3   OH244976   2.748   5.169   6.000 -0.3746  0.5629  0.1408
 7854TIP3    H144977   2.784   5.242   6.049 -0.0335 -0.8205  2.0271
 7854TIP3    H244978   2.658   5.160   6.032 -0.4670  0.2594 -0.1978
 7855TIP3   OH244979   2.281   4.565   2.968  0.0378 -0.0342  0.0588
 7855TIP3    H144980   2.230   4.630   3.015  0.5471  0.3192  0.1232
 7855TIP3    H244981   2.372   4.596   2.974  0.4494 -1.4339  1.2233
 7856TIP3   OH244982   4.334   5.947  14.994  0.3422 -0.0606  0.5450
 7856TIP3    H144983   4.308   5.974  14.906 -0.9713 -0.9158  0.6487
 7856TIP3    H244984   4.368   6.027  15.034  0.5041  0.4426 -0.5783
 7857TIP3   OH244985   2.085   5.204   2.795  0.5372  0.2396  0.7846
 7857TIP3    H144986   2.141   5.187   2.718 -0.2402 -2.2228  0.7233
 7857TIP3    H244987   2.040   5.121   2.811 -0.1850  1.0571  3.2238
 7858TIP3   OH244988   5.592   2.152   5.674 -0.6503 -0.0667 -0.1298
 7858TIP3    H144989   5.602   2.171   5.767  0.1191 -1.1605  0.0159
 7858TIP3    H244990   5.578   2.238   5.634  2.6308  0.8419  0.5258
 7859TIP3   OH244991   4.663   5.465  14.239 -0.1886 -0.2122 -0.0259
 7859TIP3    H144992   4.570   5.474  14.259 -0.2552 -0.1257 -0.3712
 7859TIP3    H244993   4.704   5.539  14.283 -0.4253  0.3837 -0.8068
 7860TIP3   OH244994   5.528   1.832  13.697  0.8929 -0.2144  0.4830
 7860TIP3    H144995   5.602   1.774  13.711  0.5036 -0.7765  0.2370
 7860TIP3    H244996   5.488   1.801  13.616  0.3739  0.0697  0.6268
 7861TIP3   OH244997   5.860   4.805   1.301 -0.2749 -0.1044 -0.5549
 7861TIP3    H144998   5.904   4.854   1.231  0.6518 -0.1200  0.0040
 7861TIP3    H244999   5.929   4.750   1.339 -0.2568  1.3937  1.6870
 7862TIP3   OH245000   4.497   3.134   0.272 -0.9001  0.1454  0.1393
 7862TIP3    H145001   4.494   3.070   0.343  0.3895 -0.0420  0.0206
 7862TIP3    H245002   4.569   3.105   0.216 -1.4555  0.6926 -0.8690
 7863TIP3   OH245003   6.661   1.708  15.630 -0.1724 -0.1165  0.2465
 7863TIP3    H145004   6.622   1.781  15.582  0.1246  0.1195  0.3612
 7863TIP3    H245005   6.686   1.747  15.714 -0.2838 -0.4206  0.4213
 7864TIP3   OH245006   4.786   0.524   2.021  0.4317  0.0843  0.2079
 7864TIP3    H145007   4.807   0.442   2.066  0.8406  0.4256  0.6374
 7864TIP3    H245008   4.768   0.498   1.931  0.9957 -0.4241  0.2396
 7865TIP3   OH245009   2.262   5.042   0.223 -0.1248  0.1617  0.2723
 7865TIP3    H145010   2.211   4.999   0.291 -0.0243  0.7112  0.6969
 7865TIP3    H245011   2.260   4.981   0.149 -0.8695 -0.1020  0.5016
 7866TIP3   OH245012   0.211   4.460  16.465  0.5552 -0.0776  0.9194
 7866TIP3    H145013   0.286   4.410  16.433  1.4136  2.4473 -1.2350
 7866TIP3    H245014   0.248   4.544  16.490 -1.5475  1.2530 -0.2623
 7867TIP3   OH245015   2.993   4.804  12.175 -0.1265 -0.1398  0.1517
 7867TIP3    H145016   3.051   4.727  12.181  2.0873  1.3819 -0.9407
 7867TIP3    H245017   2.957   4.800  12.087 -1.8207 -1.1534  0.8747
 7868TIP3   OH245018   5.971   1.170  12.399  0.0635  0.3075  0.0641
 7868TIP3    H145019   5.944   1.219  12.321 -3.0159 -0.2608  0.7090
 7868TIP3    H245020   6.029   1.230  12.446  1.5330  0.8675 -2.3483
 7869TIP3   OH245021   5.654   6.619   3.270  0.0499  0.1687  0.0068
 7869TIP3    H145022   5.618   6.628   3.358  1.2216  1.8190  0.3594
 7869TIP3    H245023   5.649   6.708   3.233 -0.8061 -0.5802 -1.7457
 7870TIP3   OH245024   4.249   3.783   4.101  0.0474 -0.1361 -0.3005
 7870TIP3    H145025   4.237   3.768   4.195 -1.3375 -0.7524 -0.5592
 7870TIP3    H245026   4.170   3.831   4.074 -0.5363 -1.7488 -1.5289
 7871TIP3   OH245027   1.336   2.884   0.514 -0.6261  0.2926  0.1302
 7871TIP3    H145028   1.302   2.795   0.526  0.0260 -0.3101 -2.1937
 7871TIP3    H245029   1.430   2.876   0.529 -0.4568  0.4167 -0.8318
 7872TIP3   OH245030   5.479   1.165   5.613 -0.1413 -0.7477  0.3520
 7872TIP3    H145031   5.476   1.254   5.578  1.6989 -1.0030 -0.4732
 7872TIP3    H245032   5.409   1.163   5.678  0.6585  1.7056  1.3349
 7873TIP3   OH245033   2.910   3.369   4.171  0.1603  0.4943  0.2746
 7873TIP3    H145034   2.925   3.434   4.240 -0.5725  1.4054 -0.4141
 7873TIP3    H245035   2.835   3.319   4.202  0.7391 -0.0624  0.8157
 7874TIP3   OH245036   4.991   0.085   3.123  1.0016  0.4846 -0.3342
 7874TIP3    H145037   5.082   0.059   3.108  0.1415 -2.6308 -0.5745
 7874TIP3    H245038   4.986   0.103   3.216  1.8975  0.8326 -0.3501
 7875TIP3   OH245039   6.227   1.876   0.078  0.6353 -0.4685 -0.4389
 7875TIP3    H145040   6.168   1.811   0.039  0.1340 -0.1513 -0.2243
 7875TIP3    H245041   6.189   1.960   0.052 -0.2942 -0.2429  1.5716
 7876TIP3   OH245042   5.422   0.495   3.405  0.0364  0.3511  0.8018
 7876TIP3    H145043   5.383   0.426   3.458  2.5489 -0.9533  1.0520
 7876TIP3    H245044   5.440   0.454   3.320  1.1301  0.7956  0.8004
 7877TIP3   OH245045   4.933   4.291   3.661 -0.1392  0.2822  0.0492
 7877TIP3    H145046   4.846   4.320   3.689 -0.2771 -2.2101  2.3959
 7877TIP3    H245047   4.924   4.197   3.648  1.3083  0.5348 -3.3901
 7878TIP3   OH245048   2.029   3.923   0.240  0.0985  0.1982 -0.3072
 7878TIP3    H145049   2.053   3.843   0.194 -1.0678 -1.0329  1.1925
 7878TIP3    H245050   2.026   3.898   0.332 -2.4913  1.3752 -0.0249
 7879TIP3   OH245051   5.746   0.104   1.559 -0.1053 -0.6976 -0.6310
 7879TIP3    H145052   5.803   0.173   1.593 -0.8428  0.5523 -1.8589
 7879TIP3    H245053   5.686   0.084   1.631  0.0813 -0.0153 -0.2852
 7880TIP3   OH245054   1.959   4.371  15.934 -0.2448 -0.3280  0.4912
 7880TIP3    H145055   1.887   4.328  15.980 -1.1877  1.0825  0.3620
 7880TIP3    H245056   1.989   4.306  15.871 -2.2268 -0.5317 -0.2905
 7881TIP3   OH245057   1.702   3.976  12.042  0.1486 -0.0458  0.3219
 7881TIP3    H145058   1.790   3.939  12.033  1.1883  2.5267 -0.2523
 7881TIP3    H245059   1.692   4.033  11.966 -2.1221 -0.4996  0.2483
 7882TIP3   OH245060   2.918   3.555   4.738  0.3792  0.4047 -0.2005
 7882TIP3    H145061   2.861   3.557   4.661  1.3953 -0.7086 -0.9912
 7882TIP3    H245062   2.969   3.475   4.728  1.4682  0.9424  0.9445
 7883TIP3   OH245063   3.964   5.187  14.917 -0.3535 -0.4777  0.5444
 7883TIP3    H145064   3.939   5.238  14.994 -3.5717 -0.8784 -0.1619
 7883TIP3    H245065   3.962   5.249  14.845 -0.9651 -0.8617  0.2225
 7884TIP3   OH245066   1.987   1.772   2.586 -0.5575  0.1580  0.1450
 7884TIP3    H145067   2.043   1.792   2.511 -0.4894  0.5733  0.3062
 7884TIP3    H245068   1.909   1.826   2.573 -0.6313  0.0829  0.2707
 7885TIP3   OH245069   4.962   2.902  14.695 -0.3732  0.2920  0.3512
 7885TIP3    H145070   5.027   2.833  14.708  0.3767  0.7356 -1.0188
 7885TIP3    H245071   5.000   2.980  14.735 -0.7559  0.1817  0.9444
 7886TIP3   OH245072   1.946   2.310  15.536  0.1309  0.1950  0.8761
 7886TIP3    H145073   2.020   2.309  15.476 -2.3808 -2.9879 -2.3755
 7886TIP3    H245074   1.895   2.388  15.511 -0.7237 -0.9285 -0.9627
 7887TIP3   OH245075   1.550   4.960  11.717 -0.3804  0.4326 -0.2252
 7887TIP3    H145076   1.524   5.051  11.709 -0.5788  0.4181  0.2456
 7887TIP3    H245077   1.478   4.918  11.763  0.1588  0.2486  0.4610
 7888TIP3   OH245078   5.517   4.186  12.906 -0.2922 -0.0694 -0.2882
 7888TIP3    H145079   5.523   4.187  13.001 -2.1248 -0.6385 -0.1685
 7888TIP3    H245080   5.424   4.176  12.887  0.0278  0.2694 -2.1411
 7889TIP3   OH245081   4.490   1.853   3.342 -0.2249  0.3128  0.3321
 7889TIP3    H145082   4.438   1.888   3.414 -0.8797 -1.3918  0.7025
 7889TIP3    H245083   4.577   1.893   3.355 -0.5404  0.6188  1.6081
 7890TIP3   OH245084   0.379   0.662   2.364  0.0082  0.3619  0.5907
 7890TIP3    H145085   0.438   0.591   2.389 -0.9766 -1.1482 -1.2122
 7890TIP3    H245086   0.340   0.632   2.282 -0.8796  2.7457  0.1235
 7891TIP3   OH245087   3.087   5.942   2.595 -0.5046  0.1180  0.0846
 7891TIP3    H145088   3.040   5.965   2.675  0.8420 -1.9162  1.5023
 7891TIP3    H245089   3.165   5.998   2.595  0.4415 -1.1718  1.1778
 7892TIP3   OH245090   0.754   6.625  14.231 -0.3948  0.0930 -0.0629
 7892TIP3    H145091   0.833   6.578  14.203 -0.6975  0.6902 -1.9634
 7892TIP3    H245092   0.697   6.557  14.266  1.2198 -0.2600  1.9693
 7893TIP3   OH245093   3.987   1.805   1.402  0.1760 -0.4242  0.1852
 7893TIP3    H145094   4.034   1.840   1.478 -1.0973 -0.6738  1.1012
 7893TIP3    H245095   4.042   1.829   1.327  1.0084  0.5883  1.0972
 7894TIP3   OH245096   4.586   2.731   3.379 -0.3917 -0.0879 -0.1153
 7894TIP3    H145097   4.667   2.684   3.400  0.7933  0.8112 -2.4855
 7894TIP3    H245098   4.614   2.821   3.363 -1.8967  0.2785 -0.7817
 7895TIP3   OH245099   1.744   4.876   2.766 -0.5844 -0.2073 -0.1445
 7895TIP3    H145100   1.708   4.956   2.726 -1.8538 -0.2590  0.8417
 7895TIP3    H245101   1.666   4.829   2.798  0.4170  0.4886  3.6111
 7896TIP3   OH245102   6.766   3.512  14.838  0.3605 -0.2394 -0.5420
 7896TIP3    H145103   6.743   3.604  14.828  2.5385  0.3765 -0.1241
 7896TIP3    H245104   6.841   3.499  14.780 -1.4904 -2.4023 -2.5532
 7897TIP3   OH245105   1.181   0.260  10.860  0.2444  0.6151  0.5149
 7897TIP3    H145106   1.121   0.185  10.850  0.9261  0.1647 -0.2717
 7897TIP3    H245107   1.212   0.277  10.771  3.9070 -1.3546  1.3253
 7898TIP3   OH245108   0.882   3.814   3.325 -0.5641  0.1359  0.0279
 7898TIP3    H145109   0.971   3.811   3.290 -0.4301 -1.3694  0.4789
 7898TIP3    H245110   0.841   3.888   3.279  1.1277  1.2940  0.3495
 7899TIP3   OH245111   1.320   3.789  12.103 -0.1597 -0.2119  0.3672
 7899TIP3    H145112   1.401   3.780  12.154 -0.1606  0.2638  0.4561
 7899TIP3    H245113   1.295   3.699  12.081 -0.5327 -0.4726  1.7995
 7900TIP3   OH245114   3.601   5.254   1.575  1.1167 -0.2299  0.3595
 7900TIP3    H145115   3.609   5.188   1.644  0.4946 -0.1080  0.5471
 7900TIP3    H245116   3.513   5.289   1.585  1.8988  1.5364  1.0644
 7901TIP3   OH245117   4.684   1.496  11.818  0.2379 -0.6336 -0.3497
 7901TIP3    H145118   4.639   1.510  11.734  0.5208 -0.5024 -0.4823
 7901TIP3    H245119   4.672   1.578  11.865 -0.6709 -1.0172  0.0992
 7902TIP3   OH245120   5.327   3.165   2.603 -0.2193  0.0508  0.6859
 7902TIP3    H145121   5.378   3.091   2.570 -1.1927 -0.2925 -0.0878
 7902TIP3    H245122   5.253   3.125   2.649  1.0567  0.5307  3.2076
 7903TIP3   OH245123   2.634   6.299   4.853 -0.1792  0.4115  0.3305
 7903TIP3    H145124   2.715   6.324   4.898 -1.1764  0.6321  2.0695
 7903TIP3    H245125   2.566   6.303   4.922 -1.1927 -2.4738 -0.4065
 7904TIP3   OH245126   2.024   2.792   2.536  1.0185 -0.3891  0.4058
 7904TIP3    H145127   2.059   2.844   2.608 -0.1249 -0.0918  0.7568
 7904TIP3    H245128   1.946   2.839   2.508  0.0125 -1.8732  0.6602
 7905TIP3   OH245129   0.687   5.154  11.219 -0.0937  0.5490 -0.2600
 7905TIP3    H145130   0.710   5.108  11.299  0.8776  0.8319 -0.3753
 7905TIP3    H245131   0.696   5.088  11.150  0.7059  0.7550 -0.3486
 7906TIP3   OH245132   6.043   5.565   3.911  0.4151 -0.7147  0.3657
 7906TIP3    H145133   6.043   5.477   3.949  0.1546 -0.4945  0.8901
 7906TIP3    H245134   6.067   5.622   3.985  4.9832 -0.7491 -0.9098
 7907TIP3   OH245135   5.549   1.721   5.706  0.0640 -0.0070  0.6297
 7907TIP3    H145136   5.603   1.694   5.780  1.2985 -1.0448 -0.6243
 7907TIP3    H245137   5.601   1.787   5.661 -0.7416  0.7228  0.7496
 7908TIP3   OH245138   5.300   3.141   1.519 -0.2454  0.2511 -0.2867
 7908TIP3    H145139   5.381   3.096   1.543 -0.7926  0.0578  1.1875
 7908TIP3    H245140   5.323   3.234   1.521 -0.4868  0.2766  1.7532
 7909TIP3   OH245141   2.125   1.898  14.519 -0.6538 -0.4860 -0.0390
 7909TIP3    H145142   2.105   1.805  14.503  0.2966 -0.7690  0.4069
 7909TIP3    H245143   2.171   1.927  14.441 -1.1086 -0.3396 -0.2535
 7910TIP3   OH245144   5.602   5.599  11.309  0.4830  0.8081  0.4549
 7910TIP3    H145145   5.556   5.542  11.247  1.5656 -0.3374  0.7000
 7910TIP3    H245146   5.536   5.619  11.376  0.3431 -0.9029  0.8537
 7911TIP3   OH245147   4.418   1.561  17.023  0.3464 -0.2259  0.2679
 7911TIP3    H145148   4.455   1.475  17.004  1.5915  0.1376  0.9809
 7911TIP3    H245149   4.480   1.601  17.084  0.3033  1.5891 -0.8510
 7912TIP3   OH245150   3.861   2.608   3.981  0.3485 -0.0884  0.0476
 7912TIP3    H145151   3.794   2.547   4.013  1.2989 -0.8821  0.5350
 7912TIP3    H245152   3.918   2.623   4.057  0.8084  0.4751 -0.4093
 7913TIP3   OH245153   3.286   1.660   3.674 -0.0609  0.4256  0.5134
 7913TIP3    H145154   3.328   1.603   3.738  0.6507 -0.7875 -1.0009
 7913TIP3    H245155   3.282   1.746   3.717  0.0906 -0.4333  2.2972
 7914TIP3   OH245156   1.913   1.887   1.841  0.1879 -0.5368  0.4564
 7914TIP3    H145157   1.888   1.794   1.842  1.6864 -0.9382  0.8081
 7914TIP3    H245158   1.879   1.921   1.924 -0.3770 -0.7556  0.3218
 7915TIP3   OH245159   3.850   1.364  15.844  0.4729  0.0358 -0.7460
 7915TIP3    H145160   3.769   1.335  15.886  0.0799 -0.7313 -1.9900
 7915TIP3    H245161   3.821   1.405  15.763  1.3071  0.2085 -0.9609
 7916TIP3   OH245162   2.832   5.623  12.259 -0.4298  0.6937 -0.0429
 7916TIP3    H145163   2.780   5.544  12.244  1.4753 -0.4484 -0.7115
 7916TIP3    H245164   2.845   5.625  12.354 -0.3400  0.1184 -0.0428
 7917TIP3   OH245165   3.314   5.982   3.199  0.6265 -0.3632  0.2692
 7917TIP3    H145166   3.315   6.051   3.265  2.8852 -0.3632  0.2776
 7917TIP3    H245167   3.295   5.902   3.248 -0.3050 -0.0034  0.5078
 7918TIP3   OH245168   3.307   3.247   1.626  0.0698 -0.3241  0.0032
 7918TIP3    H145169   3.229   3.210   1.586 -0.2883  0.0733  0.3287
 7918TIP3    H245170   3.349   3.173   1.670 -0.9093 -0.2459  1.0779
 7919TIP3   OH245171   6.605   0.322  11.810  0.2876  0.0302  0.1212
 7919TIP3    H145172   6.521   0.293  11.774  0.0887 -0.3691  0.8818
 7919TIP3    H245173   6.666   0.252  11.788 -0.0453 -0.6697  1.3789
 7920TIP3   OH245174   3.489   2.427   5.900  0.4321  0.4874  0.4673
 7920TIP3    H145175   3.403   2.427   5.859 -0.1644 -1.7311  1.6157
 7920TIP3    H245176   3.517   2.518   5.899 -1.3122  1.0323 -1.1786
 7921TIP3   OH245177   2.104   5.480   1.110  0.4643  0.2704  0.2951
 7921TIP3    H145178   2.196   5.478   1.138  0.8268  1.0512 -0.8108
 7921TIP3    H245179   2.055   5.464   1.191  1.5771 -0.5837  0.8303
 7922TIP3   OH245180   2.094   5.524  15.173 -0.0524 -0.6756  0.2601
 7922TIP3    H145181   2.136   5.439  15.188  0.0936 -1.3670 -3.6088
 7922TIP3    H245182   2.099   5.537  15.079 -2.0042  2.6702  0.5403
 7923TIP3   OH245183   5.318   2.141   3.253  0.4763  0.3439  0.2145
 7923TIP3    H145184   5.230   2.177   3.238  0.0462 -1.0998 -0.8848
 7923TIP3    H245185   5.306   2.078   3.324  0.1374 -1.5266 -1.4559
 7924TIP3   OH245186   5.825   0.296   0.151 -0.2297 -0.1480  0.2948
 7924TIP3    H145187   5.807   0.364   0.216  0.1493  0.0185  0.2237
 7924TIP3    H245188   5.753   0.305   0.088 -1.1568 -0.9660  1.2142
 7925TIP3   OH245189   6.521   0.136  14.181 -0.3962 -0.3852  0.5074
 7925TIP3    H145190   6.592   0.135  14.118 -0.9776  0.6320 -0.1844
 7925TIP3    H245191   6.564   0.134  14.266  0.3833 -1.9184  0.0904
 7926TIP3   OH245192   2.264   4.813   3.066 -0.4288 -0.0580  0.0982
 7926TIP3    H145193   2.339   4.832   3.010 -0.9598 -1.9412 -1.2891
 7926TIP3    H245194   2.302   4.806   3.154  0.7159  0.9259 -0.2941
 7927TIP3   OH245195   2.259   5.689  15.328 -0.4214 -0.2590  0.2800
 7927TIP3    H145196   2.197   5.625  15.294  0.0239 -1.6299  1.9799
 7927TIP3    H245197   2.336   5.680  15.272 -1.7420  1.5925 -1.9682
 7928TIP3   OH245198   3.684   6.057  14.147 -0.1443  0.2511 -0.0218
 7928TIP3    H145199   3.647   6.125  14.092 -1.3864  0.5853  1.2095
 7928TIP3    H245200   3.627   5.982  14.134 -0.0742  0.1358  0.3361
 7929TIP3   OH245201   2.652   2.925  14.917  0.1751 -0.0806 -0.4427
 7929TIP3    H145202   2.671   2.996  14.979  0.2295 -1.6372  1.3760
 7929TIP3    H245203   2.562   2.900  14.937  1.0190 -2.2564  0.7362
 7930TIP3   OH245204   4.517   0.198  11.160  0.5519 -0.1528 -0.5047
 7930TIP3    H145205   4.511   0.223  11.067 -0.7006  2.4664  0.2266
 7930TIP3    H245206   4.587   0.253  11.195 -2.3661  2.6830  1.1824
 7931TIP3   OH245207   2.233   1.637   0.511 -0.3032  0.4982 -0.2990
 7931TIP3    H145208   2.219   1.681   0.594  1.0510 -0.0044  0.1984
 7931TIP3    H245209   2.144   1.621   0.478 -0.8314  2.4652  0.0848
 7932TIP3   OH245210   5.331   3.833  15.059 -0.2114  0.1753  0.4039
 7932TIP3    H145211   5.283   3.877  15.129  0.0897 -0.1962  0.8520
 7932TIP3    H245212   5.356   3.903  14.999 -3.2923  0.0913 -1.0439
 7933TIP3   OH245213   2.645   3.978   4.557  0.6779 -0.0675  0.3755
 7933TIP3    H145214   2.647   3.955   4.650 -1.2808  0.2918  0.5288
 7933TIP3    H245215   2.566   3.935   4.524  2.1788 -1.5111 -1.4993
 7934TIP3   OH245216   0.018   1.923   2.313 -0.6010  0.2345  0.8561
 7934TIP3    H145217  -0.046   1.986   2.346 -0.6473  1.5653 -1.6844
 7934TIP3    H245218  -0.030   1.841   2.307 -1.6380  0.8593  0.4942
 7935TIP3   OH245219   1.331   5.785  17.012  0.4470 -0.2216 -0.0511
 7935TIP3    H145220   1.416   5.825  17.027  0.1744  0.3614 -0.0632
 7935TIP3    H245221   1.332   5.759  16.920  0.9391 -1.0080  0.1708
 7936TIP3   OH245222   3.853   1.772  14.479 -0.0614 -0.4884  0.1820
 7936TIP3    H145223   3.891   1.860  14.490  0.0279 -0.3353 -1.3345
 7936TIP3    H245224   3.917   1.713  14.518 -0.8034  0.2162  2.6050
 7937TIP3   OH245225   3.758   5.577  15.547  0.2590 -0.3649 -0.1359
 7937TIP3    H145226   3.676   5.530  15.529  0.6568 -1.6850  1.3532
 7937TIP3    H245227   3.818   5.547  15.478 -0.9495  1.8484 -2.2125
 7938TIP3   OH245228   4.222   3.696   4.683  0.1332 -0.4027  0.3070
 7938TIP3    H145229   4.139   3.729   4.649 -0.4336 -1.4554  0.6395
 7938TIP3    H245230   4.210   3.694   4.778 -0.1193 -2.2689  0.2475
 7939TIP3   OH245231   0.310   2.170   2.279  0.4563 -0.1041  0.5818
 7939TIP3    H145232   0.305   2.178   2.184  1.0446  0.0658  0.5686
 7939TIP3    H245233   0.395   2.206   2.303 -0.0796  0.7188  1.2724
 7940TIP3   OH245234   5.731   3.247   3.638 -0.4901  0.0349  0.0322
 7940TIP3    H145235   5.733   3.329   3.588 -1.0630 -0.1951 -0.3734
 7940TIP3    H245236   5.796   3.260   3.707  0.0994  0.4738 -0.5931
 7941TIP3   OH245237   0.589   5.991  12.139  0.7258 -0.3967 -0.1666
 7941TIP3    H145238   0.539   6.051  12.194 -0.5364 -1.3301 -0.2967
 7941TIP3    H245239   0.678   5.996  12.174  0.2402  0.1274  1.0287
 7942TIP3   OH245240   1.375   6.318  16.148  0.5212 -0.0412  0.2306
 7942TIP3    H145241   1.399   6.226  16.134  0.6600  0.2249 -1.4516
 7942TIP3    H245242   1.429   6.366  16.085  2.1041  1.4317  2.6214
 7943TIP3   OH245243   1.260   6.550  12.862 -0.3167 -0.2151 -0.3250
 7943TIP3    H145244   1.178   6.522  12.820 -1.8576  0.5043  2.1017
 7943TIP3    H245245   1.247   6.530  12.955  2.5900 -0.7880 -0.0086
 7944TIP3   OH245246   0.105   0.122  15.854 -0.3639 -0.0538  0.1772
 7944TIP3    H145247   0.057   0.056  15.804 -0.0747 -1.1043  1.2532
 7944TIP3    H245248   0.095   0.094  15.945  0.3668  0.9949  0.5800
 7945TIP3   OH245249   6.552   2.709   4.218 -0.4928 -0.1704  0.1641
 7945TIP3    H145250   6.494   2.785   4.221  0.7162  0.9484 -2.4373
 7945TIP3    H245251   6.494   2.634   4.203 -1.7101  0.1845  2.8952
 7946TIP3   OH245252   5.012   0.847  11.155 -0.1595 -0.1083 -0.2529
 7946TIP3    H145253   4.959   0.803  11.088  0.6557 -2.2925  0.4738
 7946TIP3    H245254   5.069   0.777  11.189  0.6486  1.3742  1.4914
 7947TIP3   OH245255   6.156   3.837   1.803 -0.6818  0.2149 -0.3825
 7947TIP3    H145256   6.238   3.872   1.768 -0.7269  1.3943  0.6393
 7947TIP3    H245257   6.092   3.906   1.787 -1.0707  0.0562  0.4363
 7948TIP3   OH245258   6.774   6.006  13.038 -0.4276  0.8219  0.2618
 7948TIP3    H145259   6.857   6.053  13.033  0.2277 -0.4348 -1.2002
 7948TIP3    H245260   6.716   6.064  13.087  0.6861  2.6261 -0.5043
 7949TIP3   OH245261   6.282   6.587   3.310  0.2324  0.2862 -0.9373
 7949TIP3    H145262   6.342   6.543   3.249 -0.6065 -0.2845 -1.3576
 7949TIP3    H245263   6.264   6.522   3.378  1.2784  0.9693  0.0168
 7950TIP3   OH245264   2.807   3.649   4.278 -0.1208 -0.2699 -0.6589
 7950TIP3    H145265   2.867   3.723   4.283 -1.0794  0.5351 -0.8336
 7950TIP3    H245266   2.804   3.615   4.368  2.8716 -2.1867 -1.2247
 7951TIP3   OH245267   4.184   2.755   5.342 -0.2196  0.0128  0.0452
 7951TIP3    H145268   4.239   2.816   5.391 -1.4035  1.7136 -0.7165
 7951TIP3    H245269   4.190   2.784   5.251  0.3608 -1.9020 -0.5487
 7952TIP3   OH245270   2.682   2.888  13.696 -0.0974  0.7262  0.4304
 7952TIP3    H145271   2.695   2.982  13.705 -2.8606  1.2867 -0.9821
 7952TIP3    H245272   2.597   2.872  13.737 -0.5169 -0.8457 -1.0013
 7953TIP3   OH245273   2.994   3.157  12.309  0.1780 -0.7604  0.3474
 7953TIP3    H145274   2.974   3.237  12.261 -0.5110 -0.6374  0.8332
 7953TIP3    H245275   3.086   3.167  12.334  0.0827 -0.0918  0.4499
 7954TIP3   OH245276   3.831   0.680  15.224 -0.6944  0.4012 -0.3264
 7954TIP3    H145277   3.774   0.665  15.148 -1.9741  0.5208  0.5997
 7954TIP3    H245278   3.876   0.596  15.237  0.6614  0.8248 -2.1250
 7955TIP3   OH245279   1.053   5.097  14.618 -0.3898  0.5304 -0.4701
 7955TIP3    H145280   1.044   5.002  14.611 -1.0637  0.4748  1.0039
 7955TIP3    H245281   0.979   5.125  14.671  0.0370  1.8321 -0.5330
 7956TIP3   OH245282   5.923   5.046  13.361  0.0901  0.0682 -0.0233
 7956TIP3    H145283   5.847   5.104  13.356  1.5609  1.9442 -1.6161
 7956TIP3    H245284   5.939   5.037  13.455 -0.9520  1.1999  0.2854
 7957TIP3   OH245285   6.449   0.006  12.001  0.0414 -0.1056  0.0467
 7957TIP3    H145286   6.421   0.097  12.014 -1.2357 -0.4175 -0.4647
 7957TIP3    H245287   6.372  -0.039  11.968  0.4572 -1.5602  0.9815
 7958TIP3   OH245288   1.885   0.548  12.384 -0.6445 -0.5828 -0.1263
 7958TIP3    H145289   1.818   0.596  12.431  0.3613 -1.3152  2.1127
 7958TIP3    H245290   1.961   0.606  12.384 -0.6566 -0.5614 -0.9090
 7959TIP3   OH245291   4.006   2.226   6.146  0.2624  0.1253 -0.4074
 7959TIP3    H145292   4.052   2.301   6.108  2.5975 -2.0147 -1.9446
 7959TIP3    H245293   3.914   2.244   6.129  0.7365  2.8160 -0.4248
 7960TIP3   OH245294   6.387   4.275   1.417  0.0651 -0.2245 -0.2638
 7960TIP3    H145295   6.345   4.228   1.489  0.0943 -0.7796 -0.6153
 7960TIP3    H245296   6.355   4.233   1.338  1.2278 -0.5980 -0.5365
 7961TIP3   OH245297   0.834   1.358   4.795  0.1212 -0.1102  0.1418
 7961TIP3    H145298   0.803   1.322   4.711  0.6480  0.3832 -0.2654
 7961TIP3    H245299   0.856   1.281   4.847  1.2807 -0.3949 -0.7455
 7962TIP3   OH245300   4.526   3.436   4.159  0.2782 -0.1544 -0.3438
 7962TIP3    H145301   4.617   3.435   4.132 -0.1783 -0.6827 -1.8798
 7962TIP3    H245302   4.526   3.485   4.242  2.1635 -1.5912  0.5211
 7963TIP3   OH245303   6.442   5.990   6.004 -0.3513  0.6995  0.1305
 7963TIP3    H145304   6.500   5.988   5.928 -0.8565  1.0084 -0.2752
 7963TIP3    H245305   6.500   5.988   6.080  0.1675  0.6391 -0.2674
 7964TIP3   OH245306   2.477   1.115   1.644 -0.3084 -0.3995 -0.2220
 7964TIP3    H145307   2.495   1.074   1.559 -0.9602 -0.0255 -0.5405
 7964TIP3    H245308   2.414   1.056   1.686  0.8695 -1.1850  0.4839
 7965TIP3   OH245309   2.614   2.640   2.233  0.0879 -0.5993  0.3981
 7965TIP3    H145310   2.620   2.680   2.320  1.0002  0.7579 -0.2632
 7965TIP3    H245311   2.703   2.609   2.215  0.2888  0.5553 -0.6920
 7966TIP3   OH245312   1.442   2.163  15.514 -0.2659 -0.0948 -0.3087
 7966TIP3    H145313   1.510   2.127  15.458  0.8528 -1.0258  1.5648
 7966TIP3    H245314   1.360   2.128  15.478  0.4847 -1.2559 -0.9326
 7967TIP3   OH245315   4.078   4.919  11.808 -0.0434  0.1700  0.2432
 7967TIP3    H145316   4.131   4.850  11.848  0.8736  1.7397  1.8123
 7967TIP3    H245317   4.077   4.989  11.873 -1.1298  1.5664 -1.2287
 7968TIP3   OH245318   0.488   1.791  17.091 -0.5160 -0.0120 -0.1497
 7968TIP3    H145319   0.410   1.761  17.136 -0.8534  1.0826  0.0019
 7968TIP3    H245320   0.457   1.822  17.006 -0.2284  0.2142 -0.1764
 7969TIP3   OH245321   6.370   0.261  12.112  0.1032 -0.1786 -0.1230
 7969TIP3    H145322   6.407   0.345  12.086 -1.1561  0.1428 -0.9907
 7969TIP3    H245323   6.347   0.271  12.204 -0.0211  0.4347 -0.2190
 7970TIP3   OH245324   2.238   3.477  12.165 -0.2807  0.1626  0.5942
 7970TIP3    H145325   2.294   3.555  12.159  0.8731 -0.6659  0.3348
 7970TIP3    H245326   2.176   3.487  12.092  0.4903  0.3646 -0.0466
 7971TIP3   OH245327   1.176   3.619   0.355  0.0728  0.1569 -0.2542
 7971TIP3    H145328   1.250   3.560   0.342  0.2342  0.8832 -2.8288
 7971TIP3    H245329   1.114   3.596   0.286 -2.0609 -0.3371  1.7699
 7972TIP3   OH245330   4.236   4.827   5.898  0.0905 -0.3577  0.6047
 7972TIP3    H145331   4.255   4.901   5.956  1.7482 -0.2839 -0.0192
 7972TIP3    H245332   4.188   4.765   5.954 -0.1133  0.5874  1.4929
 7973TIP3   OH245333   2.102   4.148  14.583  0.3181  0.2554  0.6950
 7973TIP3    H145334   2.177   4.132  14.525 -0.0951 -0.6832  0.4048
 7973TIP3    H245335   2.059   4.063  14.590 -1.7075  1.1577 -0.5038
 7974TIP3   OH245336   6.726   1.059  16.950  0.5532 -0.3564  0.2091
 7974TIP3    H145337   6.805   1.100  16.915 -0.6968  1.6816 -0.2936
 7974TIP3    H245338   6.676   1.033  16.873 -1.1701  2.1348  0.4058
 7975TIP3   OH245339   0.619   3.477  12.474  0.1224 -0.1102 -0.5101
 7975TIP3    H145340   0.534   3.503  12.508 -0.3667  0.3561 -2.0748
 7975TIP3    H245341   0.602   3.398  12.423  1.0368 -1.4749  1.2535
 7976TIP3   OH245342   1.057   4.652   4.955  0.2824 -0.0204  0.3223
 7976TIP3    H145343   1.022   4.618   4.872  0.4566  0.1553  0.1758
 7976TIP3    H245344   1.086   4.574   5.002  1.5816 -0.0078 -0.4253
 7977TIP3   OH245345   3.182   4.579   4.042  0.2864  0.2341 -0.3814
 7977TIP3    H145346   3.227   4.592   3.959 -1.6009 -1.7173 -1.7503
 7977TIP3    H245347   3.104   4.633   4.037  0.3793  0.4437  0.3146
 7978TIP3   OH245348   1.037   0.558   1.997 -0.2967  0.2498 -0.6789
 7978TIP3    H145349   1.041   0.517   1.911 -2.4361  0.0777 -0.7251
 7978TIP3    H245350   1.037   0.652   1.979  1.0523  0.2471 -0.7539
 7979TIP3   OH245351   3.720   0.234   1.061 -0.3682  0.1624 -0.1078
 7979TIP3    H145352   3.657   0.283   1.008  0.4961  0.6310 -0.7064
 7979TIP3    H245353   3.790   0.296   1.081  2.0147 -1.4411 -3.0234
 7980TIP3   OH245354   5.400   1.041   4.644 -0.7317  0.5532  0.0310
 7980TIP3    H145355   5.484   1.049   4.690  0.2470  0.4723 -1.6816
 7980TIP3    H245356   5.376   1.132   4.623 -0.3083  0.4699 -0.8119
 7981TIP3   OH245357   2.196   1.131   2.097  0.0557 -0.6273  0.0402
 7981TIP3    H145358   2.279   1.158   2.057 -0.8069  1.5334 -0.3723
 7981TIP3    H245359   2.129   1.172   2.042 -1.2567 -1.1592  1.2131
 7982TIP3   OH245360   4.043   1.895  12.960 -0.3416  0.0280 -0.1693
 7982TIP3    H145361   4.086   1.980  12.965  0.8255 -0.5241 -0.6123
 7982TIP3    H245362   4.050   1.859  13.048 -1.0015  0.4699  0.0632
 7983TIP3   OH245363   0.882   4.487   0.107 -0.1255  0.1911  0.0821
 7983TIP3    H145364   0.968   4.449   0.089 -0.6644 -0.9044 -0.1792
 7983TIP3    H245365   0.838   4.490   0.023 -0.3569  0.7380  0.2187
 7984TIP3   OH245366   4.913   4.556   1.809  0.0073  0.4035 -0.0617
 7984TIP3    H145367   4.848   4.599   1.754 -0.0629  0.4778  0.0803
 7984TIP3    H245368   4.969   4.509   1.748 -0.5823 -0.2120 -0.1391
 7985TIP3   OH245369   5.701   1.944   6.909 -0.4153  0.5057  0.0246
 7985TIP3    H145370   5.646   2.022   6.895  1.3008  1.7904  0.2696
 7985TIP3    H245371   5.771   1.975   6.966 -0.4951 -1.5944  1.2916
 7986TIP3   OH245372   2.316   6.269   0.344 -0.2521  0.7428 -0.6383
 7986TIP3    H145373   2.298   6.296   0.254 -1.9103 -0.6981 -0.7657
 7986TIP3    H245374   2.325   6.174   0.339  1.2674  0.8154  0.4643
 7987TIP3   OH245375   2.134   5.536   5.375  0.0819  0.8002 -0.1542
 7987TIP3    H145376   2.182   5.609   5.413  1.9746  0.5727 -1.9854
 7987TIP3    H245377   2.163   5.459   5.425  0.7676  0.8266 -0.5063
 7988TIP3   OH245378   2.631   5.873  15.906  0.4669 -0.2199  0.3142
 7988TIP3    H145379   2.678   5.791  15.898 -1.7565 -1.3860 -1.4457
 7988TIP3    H245380   2.683   5.936  15.857  2.1105 -0.5881  1.5604
 7989TIP3   OH245381   1.748   1.614   4.909  0.0071  0.6467  0.3570
 7989TIP3    H145382   1.786   1.565   4.836  1.7316  0.6784  1.2072
 7989TIP3    H245383   1.748   1.705   4.880 -0.8592  0.4726 -0.2318
 7990TIP3   OH245384   6.695   1.233  15.749 -0.2225 -0.5959 -0.1945
 7990TIP3    H145385   6.619   1.197  15.796  0.2451 -0.3884  0.7489
 7990TIP3    H245386   6.659   1.302  15.694 -0.6302 -0.0324  0.7695
 7991TIP3   OH245387   2.415   0.172  15.108  0.0910  1.0443  0.6273
 7991TIP3    H145388   2.365   0.095  15.136  0.0453  0.7333 -0.2776
 7991TIP3    H245389   2.351   0.242  15.105 -0.0364  0.9298  0.6618
 7992TIP3   OH245390   0.311   0.543  10.499  0.0144 -0.1671 -0.4419
 7992TIP3    H145391   0.328   0.506  10.413 -0.0371 -0.8476 -0.1649
 7992TIP3    H245392   0.330   0.471  10.560 -2.4740 -0.5432 -0.0430
 7993TIP3   OH245393   2.800   2.437  12.665  0.0116  0.0303 -0.4666
 7993TIP3    H145394   2.858   2.512  12.679 -1.4539  1.1979 -0.4880
 7993TIP3    H245395   2.737   2.467  12.599 -0.9907 -0.9901  0.0008
 7994TIP3   OH245396   3.307   2.878  10.754  0.0679 -0.0772 -0.4554
 7994TIP3    H145397   3.239   2.937  10.786  1.1835  2.6222 -2.8761
 7994TIP3    H245398   3.389   2.912  10.790  0.7621  0.0741 -2.1149
 7995TIP3   OH245399   4.333   2.775   5.612 -0.1477 -0.6860 -0.4188
 7995TIP3    H145400   4.335   2.740   5.701  0.9394 -1.1443 -0.6130
 7995TIP3    H245401   4.264   2.841   5.614  0.2885 -0.2540  0.9246
 7996TIP3   OH245402   4.084   6.330  16.505  0.3765 -0.5493 -0.1018
 7996TIP3    H145403   4.086   6.390  16.579 -2.0677 -0.8932  0.2803
 7996TIP3    H245404   4.176   6.316  16.483  1.0779  0.7456  1.8936
 7997TIP3   OH245405   5.897   6.089   5.411  0.7519  0.0719  0.6726
 7997TIP3    H145406   5.952   6.064   5.337  0.4197  0.7543  0.1997
 7997TIP3    H245407   5.840   6.013   5.425  0.0694  0.3591 -0.4628
 7998TIP3   OH245408   2.174   6.712  16.434  0.0985 -0.2412  0.0328
 7998TIP3    H145409   2.196   6.736  16.524 -2.6608  0.7269  0.5022
 7998TIP3    H245410   2.080   6.692  16.436 -0.1228  0.2286 -2.7086
 7999TIP3   OH245411   4.701   0.711  13.140 -0.4446  0.0919  0.1999
 7999TIP3    H145412   4.739   0.624  13.132  0.9154  0.4627  2.3354
 7999TIP3    H245413   4.607   0.696  13.154 -0.1539 -1.0466  0.9744
 8000TIP3   OH245414   6.394   5.128  15.202 -0.3302 -0.3064  1.1138
 8000TIP3    H145415   6.387   5.223  15.217 -2.2494 -0.1230 -0.7068
 8000TIP3    H245416   6.423   5.093  15.286  1.8691  2.0416  1.4288
 8001TIP3   OH245417   0.770   5.088  12.695  0.6987  0.1531  0.0703
 8001TIP3    H145418   0.756   5.058  12.784 -2.1434  0.9502 -0.0463
 8001TIP3    H245419   0.793   5.010  12.646  1.5439 -0.4099  1.3392
 8002TIP3   OH245420   0.997   4.722  14.148 -0.6869  0.3366 -0.5461
 8002TIP3    H145421   1.049   4.673  14.084  0.8138 -0.8693  1.5232
 8002TIP3    H245422   0.951   4.655  14.198 -0.4119  1.1402  0.8175
 8003TIP3   OH245423   2.705   5.110  15.530  0.0119  0.3857 -0.1398
 8003TIP3    H145424   2.679   5.049  15.460 -0.9618  0.5583  0.0634
 8003TIP3    H245425   2.712   5.055  15.608  1.1892  0.1770 -0.3811
 8004TIP3   OH245426   5.031   2.652  12.742 -0.0527 -0.1988 -0.2569
 8004TIP3    H145427   4.974   2.578  12.721  0.5683 -0.6195 -0.4547
 8004TIP3    H245428   5.108   2.613  12.783 -0.6290  0.4913  1.5438
 8005TIP3   OH245429   3.899   3.679   4.205 -0.2581 -0.2728  0.2327
 8005TIP3    H145430   3.979   3.672   4.151  0.2727  0.3457  0.9272
 8005TIP3    H245431   3.829   3.691   4.141  0.4294  0.9605 -0.3241
 8006TIP3   OH245432   1.995   1.510   5.730 -0.3334  0.0462 -0.3463
 8006TIP3    H145433   2.078   1.486   5.690  0.2921  0.5257  0.6504
 8006TIP3    H245434   1.958   1.427   5.762  0.7161  0.0801  0.9997
 8007TIP3   OH245435   4.294   3.852  13.868 -0.3347  0.2951 -0.3431
 8007TIP3    H145436   4.362   3.882  13.928 -1.3657 -0.4166  1.2036
 8007TIP3    H245437   4.247   3.931  13.843 -0.1985  0.5329  0.1626
 8008TIP3   OH245438   1.254   6.731   6.037  0.2905  0.0253  0.1854
 8008TIP3    H145439   1.348   6.728   6.055  0.3629 -2.2144 -0.3176
 8008TIP3    H245440   1.213   6.728   6.123  0.6847 -0.4343  0.3588
 8009TIP3   OH245441   3.321   6.262   5.043 -0.0459 -0.0957  0.1813
 8009TIP3    H145442   3.347   6.243   4.953 -1.0379  2.3183 -0.6349
 8009TIP3    H245443   3.256   6.194   5.064 -0.4907 -0.1146 -1.2251
 8010TIP3   OH245444   0.197   3.713  13.301 -0.2352 -0.0458 -0.8442
 8010TIP3    H145445   0.252   3.787  13.274  0.0410  0.1220  0.1433
 8010TIP3    H245446   0.121   3.716  13.243 -0.0790  0.8397 -1.0026
 8011TIP3   OH245447   2.354   1.010   3.641  0.1423 -0.2432 -0.5659
 8011TIP3    H145448   2.441   1.031   3.606  0.9372 -0.7102  1.0532
 8011TIP3    H245449   2.358   1.037   3.733 -1.2867 -0.6653 -0.3655
 8012TIP3   OH245450   5.718   4.221  14.208 -0.3289  0.1656  0.0455
 8012TIP3    H145451   5.713   4.265  14.123  0.7448  0.6209  0.2214
 8012TIP3    H245452   5.736   4.291  14.270  2.1601 -0.6117  0.2247
 8013TIP3   OH245453   4.264   3.126   0.628 -0.2542 -0.1852  0.6311
 8013TIP3    H145454   4.308   3.072   0.563 -0.8386 -3.3244  2.7242
 8013TIP3    H245455   4.334   3.161   0.682 -0.0160 -0.9469  0.8144
 8014TIP3   OH245456   6.136   5.872  17.020 -0.4493  0.1243  0.2944
 8014TIP3    H145457   6.048   5.893  17.052  0.0993  2.1085  0.5536
 8014TIP3    H245458   6.152   5.783  17.052 -1.5918  0.4794  1.9245
 8015TIP3   OH245459   6.373   1.052  13.261 -0.2285 -0.0773  0.2411
 8015TIP3    H145460   6.447   0.991  13.270 -2.0368 -2.4311 -0.3555
 8015TIP3    H245461   6.324   1.042  13.343  0.2785  1.7540  0.7930
 8016TIP3   OH245462   5.245   2.948   4.909  0.1362 -0.1609 -0.2512
 8016TIP3    H145463   5.289   2.951   4.824  0.0626  0.4079 -0.2722
 8016TIP3    H245464   5.267   3.031   4.950 -0.4420 -0.1167 -0.0249
 8017TIP3   OH245465   2.640   1.449   4.196  0.3321 -0.1930 -0.3450
 8017TIP3    H145466   2.652   1.369   4.145 -0.8635  0.3548 -1.5087
 8017TIP3    H245467   2.612   1.418   4.282 -0.4074 -1.0242 -0.8730
 8018TIP3   OH245468   6.049   6.235  16.946  0.8695 -0.1137 -0.2955
 8018TIP3    H145469   5.986   6.186  16.892  1.9317  1.0307 -2.6600
 8018TIP3    H245470   6.064   6.179  17.022 -1.3040 -1.4194 -0.7762
 8019TIP3   OH245471   1.855   3.728  16.060  0.3607 -0.0875 -0.1881
 8019TIP3    H145472   1.829   3.800  16.117  0.3511 -0.7990  0.7092
 8019TIP3    H245473   1.951   3.723  16.069  0.3136 -0.4932  0.1258
 8020TIP3   OH245474   0.487   2.690   0.195  0.1428  0.0736  0.2950
 8020TIP3    H145475   0.391   2.684   0.190  0.2210 -1.8363  0.7297
 8020TIP3    H245476   0.518   2.652   0.113  0.5432  0.8599  0.0721
 8021TIP3   OH245477   2.758   5.844  14.431  0.4655  0.0430 -0.6003
 8021TIP3    H145478   2.834   5.836  14.489 -0.2049  1.2735  0.4623
 8021TIP3    H245479   2.763   5.934  14.398 -1.1576  0.5129  0.3759
 8022TIP3   OH245480   3.873   4.017   0.950 -0.3432  0.0718 -0.3006
 8022TIP3    H145481   3.818   4.095   0.945  0.7394  0.7902 -1.1833
 8022TIP3    H245482   3.944   4.040   1.009 -1.0179 -0.9010  0.9310
 8023TIP3   OH245483   3.061   5.752   1.481  0.0114  0.2336  0.2606
 8023TIP3    H145484   3.137   5.703   1.450 -0.6491  0.9850 -2.7147
 8023TIP3    H245485   3.098   5.823   1.533  1.1792 -0.9917  1.1454
 8024TIP3   OH245486   3.720   0.666  10.996 -0.7392  0.4595 -0.4143
 8024TIP3    H145487   3.750   0.623  11.077 -0.6694 -0.1395 -0.7559
 8024TIP3    H245488   3.738   0.602  10.927 -1.0893  0.8466 -0.8648
 8025TIP3   OH245489   6.119   4.706  12.644  0.0414  0.2073 -0.1169
 8025TIP3    H145490   6.211   4.729  12.633  0.4123 -0.6301  1.0925
 8025TIP3    H245491   6.087   4.765  12.712  0.0372 -0.3681  0.3896
 8026TIP3   OH245492   5.905   0.363  12.661 -0.7896  0.3109  0.0302
 8026TIP3    H145493   5.994   0.389  12.684 -0.4982 -1.0908  0.5169
 8026TIP3    H245494   5.914   0.276  12.623 -1.8118  0.7020 -1.1179
 8027TIP3   OH245495   6.004   2.793  14.055 -0.3129 -0.3618  0.7276
 8027TIP3    H145496   5.949   2.871  14.063  1.7461  1.5763 -2.6543
 8027TIP3    H245497   5.949   2.729  14.010 -1.2937 -0.0684  1.5121
 8028TIP3   OH245498   2.763   4.006  13.584  0.1177 -0.4297 -0.3899
 8028TIP3    H145499   2.714   3.945  13.639 -1.1567 -0.9174 -2.0253
 8028TIP3    H245500   2.842   3.958  13.559  0.4264 -0.4118  0.5195
 8029TIP3   OH245501   2.662   1.141  15.932 -0.1909 -0.0142  0.0955
 8029TIP3    H145502   2.745   1.153  15.979 -0.3863  1.7075  0.0415
 8029TIP3    H245503   2.688   1.105  15.847  0.3849 -0.7430  0.5774
 8030TIP3   OH245504   0.100   2.836  13.352 -0.5164 -0.2515 -0.0941
 8030TIP3    H145505   0.056   2.759  13.388 -1.3616  0.3784  0.2153
 8030TIP3    H245506   0.171   2.855  13.414 -1.0757 -0.0305  0.4764
 8031TIP3   OH245507   3.723   3.734  13.889 -0.3669 -0.0763  0.1013
 8031TIP3    H145508   3.691   3.806  13.835 -0.4292 -0.8199 -0.8699
 8031TIP3    H245509   3.817   3.752  13.900 -0.4977  0.4595  0.3526
 8032TIP3   OH245510   1.420   3.152  15.079 -0.5404 -0.0613  0.2702
 8032TIP3    H145511   1.461   3.230  15.116 -0.7135  0.5205 -0.7315
 8032TIP3    H245512   1.329   3.156  15.109 -0.6030  0.2406  0.0436
 8033TIP3   OH245513   4.929   2.170  15.348  0.0865  0.3703  0.4598
 8033TIP3    H145514   4.945   2.205  15.435  0.5192 -0.0784  0.5647
 8033TIP3    H245515   4.846   2.122  15.356  0.1958  0.2122  0.6627
 8034TIP3   OH245516   4.568   3.953  14.906  0.0487  0.5949 -0.3861
 8034TIP3    H145517   4.583   4.043  14.933  1.5574  0.1130  0.4804
 8034TIP3    H245518   4.587   3.952  14.813  2.4151  0.6986  0.0581
 8035TIP3   OH245519   5.752   5.699   4.423  0.4553  0.1803  0.6444
 8035TIP3    H145520   5.726   5.657   4.505  0.1891  0.7713  0.8621
 8035TIP3    H245521   5.678   5.686   4.364  1.1684 -1.4043  0.0604
 8036TIP3   OH245522   1.754   4.900   5.780 -0.7462  0.2148 -0.3398
 8036TIP3    H145523   1.788   4.962   5.844  1.4482  1.5502 -2.7257
 8036TIP3    H245524   1.665   4.931   5.761 -0.5607  1.1550  0.3355
 8037TIP3   OH245525   3.868   1.168   3.246 -0.1615  0.3215  0.5117
 8037TIP3    H145526   3.805   1.125   3.187 -0.7990  1.5379  0.2871
 8037TIP3    H245527   3.905   1.239   3.193  0.5674  0.3196  1.0189
 8038TIP3   OH245528   6.285   0.008  13.952  0.1496  0.4011 -0.2121
 8038TIP3    H145529   6.298  -0.032  13.867 -3.1495  0.9208 -0.9977
 8038TIP3    H245530   6.283  -0.065  14.014  1.7989 -0.0173 -0.6160
 8039TIP3   OH245531   6.087   5.376   2.599 -0.6077  0.1227  0.4581
 8039TIP3    H145532   6.005   5.327   2.606 -0.5749  0.1764  1.3951
 8039TIP3    H245533   6.132   5.337   2.525 -0.9611 -0.6957  0.6660
 8040TIP3   OH245534   5.268   0.245   4.048 -0.1888  0.3196 -0.6244
 8040TIP3    H145535   5.279   0.219   3.957  1.1178  0.1603 -0.4400
 8040TIP3    H245536   5.331   0.191   4.096 -0.4298  0.8358  0.2908
 8041TIP3   OH245537   6.073   1.879   1.149  0.3582  0.0176 -0.0174
 8041TIP3    H145538   6.157   1.900   1.109 -1.4048  2.2971 -2.7545
 8041TIP3    H245539   6.077   1.920   1.235  1.8953  0.4536 -0.2838
 8042TIP3   OH245540   1.832   5.028   4.930  0.0923 -0.1598  0.0285
 8042TIP3    H145541   1.825   5.101   4.992  0.3625 -0.4278  0.3760
 8042TIP3    H245542   1.909   5.048   4.877  0.0569 -0.0983  0.0000
 8043TIP3   OH245543   1.537   3.156  14.854  0.4452 -0.1672  0.4257
 8043TIP3    H145544   1.463   3.191  14.903 -0.4472  0.4120 -1.2806
 8043TIP3    H245545   1.558   3.074  14.899  0.2984  0.8204  2.3442
 8044TIP3   OH245546   5.635   3.184   1.175 -0.2172 -0.3561 -0.4117
 8044TIP3    H145547   5.611   3.095   1.200  0.5310 -0.2298  0.8073
 8044TIP3    H245548   5.637   3.182   1.079 -0.8390 -1.4744 -0.4116
 8045TIP3   OH245549   6.059   5.520  13.895 -0.0436 -0.2675  0.2763
 8045TIP3    H145550   6.118   5.592  13.870 -0.3192  0.3495  1.3715
 8045TIP3    H245551   6.114   5.442  13.892  0.2917 -0.0048 -0.8164
 8046TIP3   OH245552   2.226   4.932  14.052  0.3348 -0.1716 -0.1938
 8046TIP3    H145553   2.242   4.964  14.141 -1.0994  0.5524 -0.1761
 8046TIP3    H245554   2.132   4.944  14.039  0.7822  1.2509 -2.3814
 8047TIP3   OH245555   5.249   1.882   6.045 -0.0639 -0.2387  0.1563
 8047TIP3    H145556   5.335   1.919   6.064 -0.1602 -0.2586  0.6508
 8047TIP3    H245557   5.221   1.846   6.129 -1.5805  1.8367  0.5698
 8048TIP3   OH245558   2.220   1.311   2.383 -0.5587 -0.5464  0.5977
 8048TIP3    H145559   2.229   1.319   2.478 -1.3370  0.0979  0.6232
 8048TIP3    H245560   2.276   1.237   2.360 -1.1320 -1.3376  1.6748
 8049TIP3   OH245561   0.375   5.735  17.027 -0.1660 -0.1956  0.0734
 8049TIP3    H145562   0.455   5.772  17.064 -0.2633 -0.3664  0.4523
 8049TIP3    H245563   0.305   5.762  17.087 -0.5204  0.6694 -0.7064
 8050TIP3   OH245564   0.839   2.786  13.237 -0.5602  0.4040  0.2869
 8050TIP3    H145565   0.757   2.821  13.271 -1.6044 -1.0562 -0.7072
 8050TIP3    H245566   0.854   2.706  13.288  0.9488  1.3849  1.4016
 8051TIP3   OH245567   1.490   5.158  10.973  0.5972  0.6504 -0.3707
 8051TIP3    H145568   1.515   5.220  11.042 -0.3291  0.1728  0.3926
 8051TIP3    H245569   1.503   5.207  10.891  0.3879  1.6671  0.2016
 8052TIP3   OH245570   0.503   6.335   0.614  0.1440 -0.3117  0.3012
 8052TIP3    H145571   0.477   6.301   0.699  0.1207 -2.0003 -0.3624
 8052TIP3    H245572   0.599   6.340   0.619  0.0028  2.1757  1.3550
 8053TIP3   OH245573   0.154   3.968   6.550  0.3575 -0.9451  0.4915
 8053TIP3    H145574   0.070   3.953   6.592  0.7213  0.9287  1.9034
 8053TIP3    H245575   0.138   3.951   6.457 -1.3751 -1.3067  0.8517
 8054TIP3   OH245576   5.201   6.550  16.865  0.6184 -0.1991 -0.1975
 8054TIP3    H145577   5.279   6.586  16.823  0.5185  0.3203  0.0593
 8054TIP3    H245578   5.190   6.602  16.944 -0.7518  0.6292 -0.8997
 8055TIP3   OH245579   0.276   0.052   2.167  0.0689  0.2099 -0.2416
 8055TIP3    H145580   0.333  -0.001   2.223  0.4314 -0.2383 -1.0125
 8055TIP3    H245581   0.290   0.016   2.079 -0.3287  1.0377 -0.6492
 8056TIP3   OH245582   5.097   1.667  13.534 -0.1035  0.3798 -0.3682
 8056TIP3    H145583   5.008   1.679  13.500 -1.5759 -2.9427  2.1113
 8056TIP3    H245584   5.100   1.719  13.614 -0.5504 -1.1916  0.6884
 8057TIP3   OH245585   4.267   0.005  11.927  0.4504 -0.9520 -0.2889
 8057TIP3    H145586   4.224  -0.081  11.930 -0.3466 -0.5634 -0.3490
 8057TIP3    H245587   4.214   0.059  11.986  1.0256 -0.5397 -0.1554
 8058TIP3   OH245588   3.222   5.168  14.960  0.1967 -0.0584  0.3555
 8058TIP3    H145589   3.138   5.197  14.926  0.5676 -0.2193 -0.7391
 8058TIP3    H245590   3.202   5.094  15.017 -0.5071  0.6605  1.0371
 8059TIP3   OH245591   5.215   1.740  11.747 -0.3882  0.2958  0.2362
 8059TIP3    H145592   5.306   1.743  11.719 -1.1681 -0.9408 -2.5944
 8059TIP3    H245593   5.182   1.829  11.733  0.6751  1.0575  2.4181
 8060TIP3   OH245594   2.725   6.552   0.917  0.1257  0.4749  0.5185
 8060TIP3    H145595   2.750   6.538   0.825 -1.1294  0.5904  0.1463
 8060TIP3    H245596   2.794   6.508   0.967  0.2359 -0.5709 -0.5057
 8061TIP3   OH245597   4.963   1.566   0.237  0.2419 -0.0676 -0.4636
 8061TIP3    H145598   5.049   1.526   0.229 -0.5102 -1.9338  0.4652
 8061TIP3    H245599   4.914   1.507   0.294 -1.3662  1.4415 -0.2313
 8062TIP3   OH245600   2.392   1.065   5.098 -0.2508 -0.1799  0.0839
 8062TIP3    H145601   2.467   1.100   5.145  0.7800 -1.0357 -0.9044
 8062TIP3    H245602   2.346   1.011   5.163 -1.6209  2.5560  1.4955
 8063TIP3   OH245603   5.149   0.681   5.199 -0.4620 -0.1580  0.1624
 8063TIP3    H145604   5.228   0.665   5.147 -0.0978 -2.0290  1.2617
 8063TIP3    H245605   5.094   0.736   5.143  1.0145 -0.0090 -1.1676
 8064TIP3   OH245606   3.649   0.745  16.190 -0.4310 -0.7582 -0.5196
 8064TIP3    H145607   3.678   0.835  16.177 -1.2099 -0.7012 -1.9541
 8064TIP3    H245608   3.579   0.733  16.127 -1.6732 -1.7699  1.0264
 8065TIP3   OH245609   6.025   2.324  14.988 -0.2355 -0.3651  0.1806
 8065TIP3    H145610   6.082   2.379  14.935  1.6226  0.0975  2.5917
 8065TIP3    H245611   6.053   2.235  14.969  0.4923 -0.1949  0.4419
 8066TIP3   OH245612   2.500   1.864  12.033 -0.6208 -0.0333  0.1065
 8066TIP3    H145613   2.565   1.929  12.062 -1.0244  0.5892 -0.3685
 8066TIP3    H245614   2.418   1.913  12.027 -0.5979 -0.1890 -1.8669
 8067TIP3   OH245615   3.998   3.802   4.583 -0.0784 -0.6372 -0.4207
 8067TIP3    H145616   3.968   3.847   4.504 -0.0205  2.2161  1.1042
 8067TIP3    H245617   3.918   3.769   4.624 -0.3580  0.0816 -0.3827
 8068TIP3   OH245618   1.051   0.369  16.752  0.0183 -0.1184 -0.2837
 8068TIP3    H145619   1.146   0.381  16.762 -0.0380 -0.0156  0.1374
 8068TIP3    H245620   1.039   0.274  16.758 -0.0127 -0.0601  0.6385
 8069TIP3   OH245621   4.321   1.941   6.247  0.2271 -0.5269  0.8991
 8069TIP3    H145622   4.388   1.882   6.281 -0.6376 -0.3377  2.9593
 8069TIP3    H245623   4.371   2.013   6.208  1.2431 -1.2800  0.7830
 8070TIP3   OH245624   0.738   5.056  13.135  0.2345  0.5147 -0.3608
 8070TIP3    H145625   0.751   4.981  13.077 -0.3905 -0.1023  0.2850
 8070TIP3    H245626   0.812   5.053  13.196  0.2591  0.4778 -0.3925
 8071TIP3   OH245627   2.379   0.664   4.627 -0.0713  0.4517 -0.3418
 8071TIP3    H145628   2.384   0.756   4.603 -1.2305  0.4265 -0.6923
 8071TIP3    H245629   2.421   0.618   4.554  0.0341  0.6614 -0.4146
 8072TIP3   OH245630   5.110   4.753   1.501  0.0662  0.0255 -0.5400
 8072TIP3    H145631   5.100   4.776   1.409  0.6902  2.5096 -0.0169
 8072TIP3    H245632   5.083   4.831   1.549  2.3323 -0.2786  1.3289
 8073TIP3   OH245633   1.863   3.149   5.805 -0.5624  0.3527  0.3407
 8073TIP3    H145634   1.851   3.232   5.759 -1.4809  0.3927  0.6470
 8073TIP3    H245635   1.775   3.119   5.824 -0.2600 -1.1403 -0.5462
 8074TIP3   OH245636   1.216   6.221  13.845 -0.3570 -0.9373 -1.0137
 8074TIP3    H145637   1.129   6.259  13.853  0.0044  0.3556 -2.8956
 8074TIP3    H245638   1.265   6.256  13.919 -0.6276  0.5665 -1.5427
 8075TIP3   OH245639   3.069   0.561  11.397 -0.0827  0.2588  0.8817
 8075TIP3    H145640   3.142   0.570  11.336 -0.0198 -1.5143  0.6540
 8075TIP3    H245641   3.089   0.620  11.469  1.2185  0.3153  0.4728
 8076TIP3   OH245642   2.934   1.071  16.636 -0.0148 -0.2248  0.4770
 8076TIP3    H145643   3.012   1.021  16.612  0.4524  0.0819  1.3291
 8076TIP3    H245644   2.910   1.039  16.723  0.1498  0.8636  0.9317
 8077TIP3   OH245645   0.709   4.444  17.122 -0.3780  0.6222  0.4825
 8077TIP3    H145646   0.643   4.498  17.165  0.3422  1.5597  0.4524
 8077TIP3    H245647   0.740   4.499  17.049 -1.5321 -0.9012 -1.2023
 8078TIP3   OH245648   4.066   4.010   5.825 -0.2460 -0.2115  0.1485
 8078TIP3    H145649   4.006   3.969   5.887 -1.6149  0.9118 -0.4061
 8078TIP3    H245650   4.098   4.088   5.870 -0.3060 -0.0399 -0.1046
 8079TIP3   OH245651   0.295   1.929   3.885  0.3542  0.5875  0.3011
 8079TIP3    H145652   0.366   1.889   3.935 -1.1104 -0.1088  1.8998
 8079TIP3    H245653   0.285   2.016   3.922  0.8976  0.9709 -0.4560
 8080TIP3   OH245654   5.253   3.103   6.599 -0.5679  0.0335  0.1845
 8080TIP3    H145655   5.319   3.076   6.663  0.3175 -0.9798 -1.1265
 8080TIP3    H245656   5.236   3.025   6.546 -1.6040  0.7304 -0.5486
 8081TIP3   OH245657   0.261   3.708  12.745  0.2658  0.5817  0.1314
 8081TIP3    H145658   0.321   3.764  12.697 -1.6649  0.8235 -2.0993
 8081TIP3    H245659   0.195   3.682  12.681 -1.1005 -1.0176  2.0844
 8082TIP3   OH245660   1.657   5.416   3.748  0.1936 -0.5455  0.0682
 8082TIP3    H145661   1.593   5.349   3.722  1.2428 -0.8123 -1.9108
 8082TIP3    H245662   1.727   5.367   3.791 -0.7158 -0.2973  1.8675
 8083TIP3   OH245663   5.349   5.079  11.137 -0.6694  0.3907 -0.3628
 8083TIP3    H145664   5.258   5.109  11.147 -1.1592 -0.9294 -0.8210
 8083TIP3    H245665   5.384   5.133  11.066 -1.3612  0.3164 -0.7701
 8084TIP3   OH245666   5.210   3.355   1.694 -0.1696 -0.2363  0.1517
 8084TIP3    H145667   5.208   3.434   1.748 -0.1647 -0.3445  0.3099
 8084TIP3    H245668   5.303   3.329   1.693  0.1793  1.0050 -1.7047
 8085TIP3   OH245669   4.116   2.762   3.904 -0.4834  0.1173 -0.0185
 8085TIP3    H145670   4.117   2.857   3.891 -0.3530 -0.2280 -3.0634
 8085TIP3    H245671   4.023   2.739   3.900 -0.3682 -0.1240 -1.6223
 8086TIP3   OH245672   2.991   2.678  14.020 -0.1884 -0.5084 -0.0810
 8086TIP3    H145673   2.986   2.606  14.083  1.1941  0.1871  0.8644
 8086TIP3    H245674   2.934   2.746  14.057 -0.3531 -0.5687 -0.2241
 8087TIP3   OH245675   0.461   0.851   2.115 -0.3098 -0.1620 -0.2278
 8087TIP3    H145676   0.516   0.773   2.100 -1.5880 -1.4829  1.7325
 8087TIP3    H245677   0.372   0.820   2.099 -0.8323  0.9007  0.5813
 8088TIP3   OH245678   5.786   5.276   4.843 -0.1223 -0.0657 -0.6182
 8088TIP3    H145679   5.811   5.290   4.935  0.6295 -1.3463 -0.6033
 8088TIP3    H245680   5.711   5.217   4.848  0.6942 -1.1468 -0.8469
 8089TIP3   OH245681   1.997   4.532   3.084  1.2264  0.1625 -0.1478
 8089TIP3    H145682   1.905   4.507   3.094  0.8994  0.7325 -1.6519
 8089TIP3    H245683   2.034   4.465   3.026  1.2746  0.9893 -1.0939
 8090TIP3   OH245684   1.284   2.916  11.995  0.1511  0.1043  0.6883
 8090TIP3    H145685   1.269   2.823  11.976  1.3256 -0.1552  0.9894
 8090TIP3    H245686   1.247   2.962  11.920 -0.2616 -0.6189  0.4422
 8091TIP3   OH245687   3.406   6.685   2.317  0.0789 -0.2916 -0.2263
 8091TIP3    H145688   3.447   6.600   2.305  1.3194  0.3159 -0.4179
 8091TIP3    H245689   3.414   6.703   2.411  1.7292  0.5373 -0.5062
 8092TIP3   OH245690   2.324   4.325   1.058  0.0325  0.4351 -0.3259
 8092TIP3    H145691   2.359   4.328   1.147  1.5406  1.5952 -0.9331
 8092TIP3    H245692   2.235   4.359   1.067  0.9436  2.7380  0.4140
 8093TIP3   OH245693   6.529   3.587   2.981  0.1740 -0.2183  0.2440
 8093TIP3    H145694   6.507   3.511   2.926  1.5218 -0.4520  0.0064
 8093TIP3    H245695   6.578   3.550   3.054  0.8157  0.4091  0.1367
 8094TIP3   OH245696   1.629   2.020  15.381  0.0176 -0.0770  0.1700
 8094TIP3    H145697   1.704   2.003  15.438 -0.5136 -0.8047  0.6608
 8094TIP3    H245698   1.668   2.049  15.299  0.8366 -0.3466  0.4530
 8095TIP3   OH245699   2.142   0.967  15.622  0.7051  0.2760 -0.2318
 8095TIP3    H145700   2.153   0.962  15.717  0.6024 -0.4976 -0.2586
 8095TIP3    H245701   2.093   1.048  15.607  2.0619  1.2221  0.2602
 8096TIP3   OH245702   4.020   2.640   4.201  0.0066 -0.1217  0.0362
 8096TIP3    H145703   3.970   2.614   4.278 -1.6913  2.3947 -0.1480
 8096TIP3    H245704   4.084   2.703   4.233  0.2029 -0.0945 -0.4055
 8097TIP3   OH245705   2.613   1.684  13.765 -0.4123 -0.2888 -0.3179
 8097TIP3    H145706   2.544   1.700  13.830 -0.7995 -0.6824 -0.6289
 8097TIP3    H245707   2.597   1.749  13.697 -1.1283 -1.0578 -0.9025
 8098TIP3   OH245708   1.301   6.602   4.148  0.0329  0.2413 -0.0792
 8098TIP3    H145709   1.299   6.507   4.138  1.3028 -0.1337  2.7487
 8098TIP3    H245710   1.209   6.626   4.164 -0.3074 -0.4925 -0.9089
 8099TIP3   OH245711   2.659   6.167  13.511 -0.3708 -0.0394 -0.4303
 8099TIP3    H145712   2.602   6.203  13.444 -0.6738 -1.2074 -0.8185
 8099TIP3    H245713   2.624   6.079  13.528  0.6895 -0.3859  0.0542
 8100TIP3   OH245714   6.644   6.396  11.794 -0.5023  0.7146 -0.1220
 8100TIP3    H145715   6.701   6.405  11.870  0.0076 -1.8601 -0.1487
 8100TIP3    H245716   6.570   6.344  11.826 -1.1860  1.1643 -0.9425
 8101TIP3   OH245717   4.579   3.272   1.710  0.6581 -0.1557 -0.5483
 8101TIP3    H145718   4.643   3.206   1.682  2.6141  0.8686  1.3063
 8101TIP3    H245719   4.622   3.356   1.694 -0.5012  0.5841  0.1179
 8102TIP3   OH245720   6.058   4.606  14.375  0.0185  0.2904  0.2049
 8102TIP3    H145721   6.109   4.687  14.369 -0.8507  0.8596  0.3174
 8102TIP3    H245722   6.111   4.547  14.427  0.4080  0.9986  0.6099
 8103TIP3   OH245723   1.992   4.268  12.583  0.1449 -0.6697  0.0414
 8103TIP3    H145724   1.908   4.314  12.577  0.6145  0.3125  0.7577
 8103TIP3    H245725   2.043   4.302  12.509  0.0424 -0.9840 -0.1728
 8104TIP3   OH245726   5.180   3.701   2.927 -0.0008  0.2290  0.4071
 8104TIP3    H145727   5.172   3.784   2.879 -0.3393  0.9593  1.7217
 8104TIP3    H245728   5.243   3.720   2.996 -0.2227 -0.5722  0.8282
 8105TIP3   OH245729   2.108   6.588  16.062 -0.5727  0.2297 -0.5866
 8105TIP3    H145730   2.204   6.589  16.061 -0.5490  0.9012 -3.2755
 8105TIP3    H245731   2.084   6.679  16.074 -0.8629  0.0711 -0.0045
 8106TIP3   OH245732   3.647   3.123   2.857 -0.4520 -0.0013 -0.4765
 8106TIP3    H145733   3.609   3.108   2.943 -1.2031 -0.0554 -0.8080
 8106TIP3    H245734   3.614   3.208   2.830 -0.8808 -0.3418 -1.0494
 8107TIP3   OH245735   3.633   4.440  15.973 -0.8038 -0.4774 -0.4523
 8107TIP3    H145736   3.685   4.490  16.037  1.4357 -1.8919 -1.1120
 8107TIP3    H245737   3.553   4.492  15.962  0.4453  1.7621  0.6163
 8108TIP3   OH245738   5.723   0.718  16.047  0.0146 -0.2430  0.0668
 8108TIP3    H145739   5.757   0.685  16.130 -3.7066 -0.4256  1.6074
 8108TIP3    H245740   5.757   0.807  16.041 -0.4404  0.0975  2.2544
 8109TIP3   OH245741   3.229   0.425   5.035 -0.1345 -0.5043 -0.5091
 8109TIP3    H145742   3.222   0.372   4.955  0.5147  1.0541 -1.6263
 8109TIP3    H245743   3.297   0.490   5.015  0.9382 -0.8871  1.7756
 8110TIP3   OH245744   2.806   0.564  12.949 -0.2852  0.1201  0.5149
 8110TIP3    H145745   2.807   0.659  12.956  1.0112  0.1103  0.5815
 8110TIP3    H245746   2.872   0.534  13.012  0.1793 -0.7581 -0.3755
 8111TIP3   OH245747   0.493   0.308   0.367 -0.5914  0.0491 -0.2253
 8111TIP3    H145748   0.587   0.325   0.371 -0.8283  1.3675 -0.2638
 8111TIP3    H245749   0.453   0.375   0.422 -1.5143 -0.4786 -0.2319
 8112TIP3   OH245750   4.590   6.302   4.450  0.1394 -0.0347  0.9792
 8112TIP3    H145751   4.597   6.360   4.526  2.2628  0.5756  0.3311
 8112TIP3    H245752   4.650   6.230   4.468 -0.2952 -0.5407  0.4400
 8113TIP3   OH245753   1.891   1.928  16.887 -0.6496  0.4811  0.6224
 8113TIP3    H145754   1.941   1.979  16.951  0.4139 -0.2957  0.4359
 8113TIP3    H245755   1.819   1.891  16.937  0.2050 -0.1671  1.4085
 8114TIP3   OH245756   2.386   5.253   1.721  0.4343  0.3111  0.3383
 8114TIP3    H145757   2.319   5.320   1.732  0.4405  0.4811 -0.6679
 8114TIP3    H245758   2.461   5.299   1.683  0.5445 -0.2098 -0.0849
 8115TIP3   OH245759   5.724   0.923   3.701 -0.7863  0.0008  0.2063
 8115TIP3    H145760   5.760   0.935   3.789 -2.4023  0.6439  0.7978
 8115TIP3    H245761   5.678   0.839   3.706 -0.1134 -0.4034 -0.2977
 8116TIP3   OH245762   2.706   0.984   2.518  0.2753  0.1051  0.0877
 8116TIP3    H145763   2.703   0.889   2.531  0.1201  0.1923  0.7064
 8116TIP3    H245764   2.772   0.997   2.450  1.1487 -0.3686  0.8327
 8117TIP3   OH245765   1.013   4.303   6.732 -0.0867  0.0456  0.0665
 8117TIP3    H145766   1.060   4.228   6.696 -1.2314 -0.0788 -1.2017
 8117TIP3    H245767   0.991   4.357   6.656 -3.6367 -0.8477  0.3705
 8118TIP3   OH245768   4.032   1.895  12.328  0.2542  0.1341  0.1962
 8118TIP3    H145769   4.021   1.821  12.267 -3.1431  1.4923 -0.9821
 8118TIP3    H245770   3.974   1.873  12.401 -0.8516  1.6419 -0.2109
 8119TIP3   OH245771   4.841   0.684   3.855 -0.0662 -0.8786 -0.3097
 8119TIP3    H145772   4.821   0.591   3.850  0.4620 -0.9393 -1.6067
 8119TIP3    H245773   4.918   0.695   3.798 -0.2485  0.3740 -0.3329
 8120TIP3   OH245774   1.713   3.876   3.301 -0.1227 -0.3335 -0.0790
 8120TIP3    H145775   1.696   3.849   3.391  0.0502  0.6478  0.2650
 8120TIP3    H245776   1.807   3.896   3.299  0.0911 -1.3748 -0.7622
 8121TIP3   OH245777   4.436   5.308   3.145 -0.2400  0.0177  0.1670
 8121TIP3    H145778   4.531   5.302   3.144 -0.1627  1.0885  0.2295
 8121TIP3    H245779   4.417   5.394   3.108 -1.1352  0.3701  1.4156
 8122TIP3   OH245780   5.632   0.061   1.054 -0.3295 -0.0353  0.1833
 8122TIP3    H145781   5.676   0.011   0.985 -1.7051 -1.4414  0.3092
 8122TIP3    H245782   5.699   0.123   1.084  0.8554 -0.6211 -1.1606
 8123TIP3   OH245783   6.010   1.278  14.427  0.5006 -0.3601  0.7499
 8123TIP3    H145784   5.936   1.258  14.484 -0.4807 -1.5964 -0.9016
 8123TIP3    H245785   6.087   1.253  14.478 -0.4371 -3.1540  0.8989
 8124TIP3   OH245786   3.276   1.100   2.360 -0.0431 -0.9131  0.4245
 8124TIP3    H145787   3.196   1.060   2.393 -0.1543 -0.8554  0.2284
 8124TIP3    H245788   3.338   1.096   2.433 -0.0474 -1.4500  0.4021
 8125TIP3   OH245789   4.100   6.219  16.183 -0.3773 -0.2483  0.5515
 8125TIP3    H145790   4.166   6.150  16.185 -1.5194 -1.3604  0.9988
 8125TIP3    H245791   4.144   6.295  16.220  0.5949 -1.0339  1.0478
 8126TIP3   OH245792   2.445   3.739   6.488  0.0092 -0.2119  0.1844
 8126TIP3    H145793   2.521   3.754   6.544  0.8763  0.0622 -1.0540
 8126TIP3    H245794   2.481   3.701   6.408 -1.2125 -0.5646 -0.2057
 8127TIP3   OH245795   0.693   5.234   5.444  0.3920  0.5568 -0.1163
 8127TIP3    H145796   0.616   5.185   5.415 -0.7107 -0.1207  3.6671
 8127TIP3    H245797   0.686   5.319   5.400 -1.8600  0.0441 -0.8068
 8128TIP3   OH245798   6.098   2.094   1.527 -0.0857 -0.0696 -0.1550
 8128TIP3    H145799   6.171   2.036   1.545 -0.6540 -0.5956  0.5021
 8128TIP3    H245800   6.090   2.095   1.432  1.2955  0.6484 -0.2652
 8129TIP3   OH245801   4.863   1.156   0.929 -0.3697 -0.1954 -0.1955
 8129TIP3    H145802   4.917   1.120   0.859  0.5584  1.2201 -0.2152
 8129TIP3    H245803   4.775   1.123   0.910  0.7794 -4.2840  1.0402
 8130TIP3   OH245804   2.560   3.045   4.398 -0.3700  0.0355 -0.1088
 8130TIP3    H145805   2.579   2.983   4.327 -0.5116  1.0571 -1.0612
 8130TIP3    H245806   2.575   2.996   4.478  2.3394 -0.3958 -0.8390
 8131TIP3   OH245807   0.332   2.332   4.712 -0.2159 -0.4403 -0.2663
 8131TIP3    H145808   0.297   2.249   4.747 -1.0061 -0.5812 -1.3644
 8131TIP3    H245809   0.317   2.326   4.618 -0.9744  1.2777 -0.2698
 8132TIP3   OH245810   4.446   6.751   2.801  0.1195  0.7234  0.0469
 8132TIP3    H145811   4.392   6.782   2.728  0.3136 -1.1905 -0.9461
 8132TIP3    H245812   4.535   6.755   2.768  0.3187  1.0426  0.6258
 8133TIP3   OH245813   1.662   1.531   2.916 -0.3474  0.3443  0.3334
 8133TIP3    H145814   1.712   1.603   2.955 -0.4825 -0.0386  1.2324
 8133TIP3    H245815   1.621   1.487   2.991 -0.3239 -0.6236 -0.2135
 8134TIP3   OH245816   4.490   3.538  12.593  0.3449 -0.4753  0.4773
 8134TIP3    H145817   4.472   3.447  12.618  1.0611 -0.5676  0.6608
 8134TIP3    H245818   4.467   3.589  12.670 -2.1429 -0.2704 -0.3437
 8135TIP3   OH245819   5.927   2.236   6.237 -0.0189  0.2058 -0.3753
 8135TIP3    H145820   5.855   2.285   6.279  0.7250  3.5283 -2.7691
 8135TIP3    H245821   6.005   2.266   6.283  0.2389 -0.3126 -0.4817
 8136TIP3   OH245822   0.363   4.824  11.756  0.6086  0.5442  0.6282
 8136TIP3    H145823   0.337   4.900  11.704  0.3006  0.2242  0.3165
 8136TIP3    H245824   0.391   4.861  11.840 -0.7756  0.9100  0.9454
 8137TIP3   OH245825   2.915   4.655  12.753 -0.7197 -0.0426 -0.1899
 8137TIP3    H145826   2.951   4.636  12.839  0.3553  0.0710 -0.6059
 8137TIP3    H245827   2.926   4.749  12.742 -1.9572  0.1366  0.0360
 8138TIP3   OH245828   5.343   3.479   4.806  0.4405 -0.3188 -0.0011
 8138TIP3    H145829   5.392   3.397   4.815 -2.8757 -2.2420  1.7759
 8138TIP3    H245830   5.373   3.532   4.880 -0.5620 -1.7256  1.4529
 8139TIP3   OH245831   4.496   1.284   4.366  0.1385 -0.2403 -0.4509
 8139TIP3    H145832   4.531   1.321   4.285 -0.1999  1.0733 -0.0212
 8139TIP3    H245833   4.511   1.353   4.431  0.1224 -1.1575  0.5251
 8140TIP3   OH245834   1.765   2.877  11.505 -0.2297  0.3041 -0.4635
 8140TIP3    H145835   1.696   2.935  11.538  1.5165  1.9439  0.4159
 8140TIP3    H245836   1.830   2.936  11.466  0.5865 -1.2196 -1.4611
 8141TIP3   OH245837   1.510   3.558  15.742  0.1516 -0.3050 -0.2114
 8141TIP3    H145838   1.436   3.602  15.784 -1.2208 -2.3953 -0.3352
 8141TIP3    H245839   1.584   3.617  15.754 -1.1790  1.0697  1.3901
 8142TIP3   OH245840   5.619   3.016   5.619 -1.0184 -0.2144  0.6252
 8142TIP3    H145841   5.672   3.096   5.626  0.5194 -1.2744  1.4411
 8142TIP3    H245842   5.642   2.980   5.533  1.4994 -1.9325  1.9317
 8143TIP3   OH245843   1.915   1.599  13.766 -0.8685  0.2290 -0.4550
 8143TIP3    H145844   1.870   1.682  13.781  0.0560  0.8329 -0.9399
 8143TIP3    H245845   1.921   1.559  13.853  0.9581  1.8734  0.2195
 8144TIP3   OH245846   4.602   4.530  14.204  0.4165 -0.2529  0.3406
 8144TIP3    H145847   4.582   4.476  14.128 -1.2377 -0.7689  1.0964
 8144TIP3    H245848   4.686   4.498  14.236  0.6668 -0.6495 -0.7180
 8145TIP3   OH245849   4.275   0.810   4.152 -0.1070  0.8159 -0.3742
 8145TIP3    H145850   4.300   0.875   4.085 -0.2439  0.4624 -0.7698
 8145TIP3    H245851   4.343   0.743   4.147  0.2619  1.1293  0.3235
 8146TIP3   OH245852   0.160   0.280   1.888 -0.5611 -0.2602 -0.3342
 8146TIP3    H145853   0.237   0.312   1.840 -0.0650 -0.1062  0.5520
 8146TIP3    H245854   0.120   0.216   1.829  1.4703 -1.9450  0.0727
 8147TIP3   OH245855   2.739   5.793   5.273  0.6821  0.0327 -0.5474
 8147TIP3    H145856   2.706   5.743   5.348  1.1758 -0.4430 -0.6439
 8147TIP3    H245857   2.665   5.798   5.213  0.4529 -0.0746 -0.2769
 8148TIP3   OH245858   3.958   3.399   6.394 -0.4251 -0.1545  0.0494
 8148TIP3    H145859   3.944   3.408   6.299 -1.1128 -2.6973 -0.1503
 8148TIP3    H245860   3.990   3.484   6.422 -0.0364  0.6010 -2.5165
 8149TIP3   OH245861   1.136   6.754   6.287 -0.3091 -0.3308  0.5255
 8149TIP3    H145862   1.042   6.750   6.304 -0.2127 -2.0134  0.8114
 8149TIP3    H245863   1.176   6.733   6.371  0.3451  1.3002  0.6321
 8150TIP3   OH245864   6.764   2.257  14.309 -0.0861 -0.0923 -1.0250
 8150TIP3    H145865   6.704   2.322  14.344  0.0787 -0.0712 -0.7813
 8150TIP3    H245866   6.709   2.199  14.255 -0.7851 -1.5868  1.2243
 8151TIP3   OH245867   6.356   4.840   3.886  0.2988  0.0264  0.5306
 8151TIP3    H145868   6.380   4.867   3.798  1.2766 -1.0344  0.4634
 8151TIP3    H245869   6.261   4.852   3.890  0.1834 -0.3717 -0.8161
 8152TIP3   OH245870   3.489   0.867   2.735  0.5783  0.3251 -0.4937
 8152TIP3    H145871   3.574   0.824   2.729 -0.3538 -1.2833 -3.1427
 8152TIP3    H245872   3.431   0.800   2.773  0.3036  1.1083  0.4772
 8153TIP3   OH245873   4.042   4.383  12.616  0.3317  0.2782 -0.6048
 8153TIP3    H145874   4.029   4.477  12.613 -2.1915  0.0613  1.7012
 8153TIP3    H245875   3.987   4.349  12.546 -0.4724  0.3627 -0.0124
 8154TIP3   OH245876   6.177   0.216   3.021 -0.0897 -0.2324 -0.1347
 8154TIP3    H145877   6.177   0.295   3.074 -1.1673 -0.9105  0.9238
 8154TIP3    H245878   6.089   0.180   3.033  0.0792 -1.0789 -1.3649
 8155TIP3   OH245879   3.903   0.438  15.374  0.4251 -0.1812 -0.2340
 8155TIP3    H145880   3.932   0.421  15.464 -1.3463  2.3284  0.8614
 8155TIP3    H245881   3.899   0.351  15.334 -1.4630 -1.6692  2.9465
 8156TIP3   OH245882   6.513   6.337   0.349  0.3795  0.3126 -0.1649
 8156TIP3    H145883   6.567   6.269   0.390 -0.5850 -0.4170 -0.0851
 8156TIP3    H245884   6.542   6.419   0.390  0.8313 -0.1690  0.4865
 8157TIP3   OH245885   6.535   5.201   3.132 -0.2318  0.4623 -0.2971
 8157TIP3    H145886   6.487   5.119   3.123  1.4225 -0.7790  1.8249
 8157TIP3    H245887   6.581   5.212   3.049 -0.1708 -0.9626 -0.4569
 8158TIP3   OH245888   3.098   5.560   2.916  0.6521  0.2542 -0.4165
 8158TIP3    H145889   3.182   5.539   2.956  0.6221  1.7771  0.4845
 8158TIP3    H245890   3.120   5.604   2.834  0.7369  0.8971 -0.0490
 8159TIP3   OH245891   2.602   2.465  13.679  0.2205 -0.7854  0.2390
 8159TIP3    H145892   2.636   2.529  13.743  0.0677  0.1626 -0.6073
 8159TIP3    H245893   2.676   2.448  13.621 -0.5077  0.7783 -1.2117
 8160TIP3   OH245894   3.114   6.501   2.795  0.3656 -0.1006 -0.6502
 8160TIP3    H145895   3.168   6.503   2.716  1.3957 -0.9050  0.0133
 8160TIP3    H245896   3.175   6.474   2.865 -0.6718 -0.0446  0.2906
 8161TIP3   OH245897   0.807   0.263  11.376  0.7130  1.2750 -0.4583
 8161TIP3    H145898   0.775   0.257  11.286  0.3493 -0.9533 -0.2053
 8161TIP3    H245899   0.888   0.212  11.376  1.2220  2.0727  0.2604
 8162TIP3   OH245900   6.537   0.399   4.064  0.5641  0.3790 -0.5132
 8162TIP3    H145901   6.628   0.421   4.081  0.2294  1.0250  0.5588
 8162TIP3    H245902   6.489   0.478   4.088 -0.6100 -1.2101  2.6076
 8163TIP3   OH245903   6.469   1.078  16.731  0.2312  0.2323 -0.0292
 8163TIP3    H145904   6.446   1.069  16.824  0.0040 -2.3763 -0.2903
 8163TIP3    H245905   6.387   1.106  16.690  0.7921  3.2368  0.7660
 8164TIP3   OH245906   6.626   3.517   0.087  0.1040  0.1899 -0.5068
 8164TIP3    H145907   6.572   3.573   0.031 -0.0242  0.6743  0.1078
 8164TIP3    H245908   6.565   3.450   0.120 -0.2149  0.9778  0.5171
 8165TIP3   OH245909   0.766   2.484   1.108 -0.2881 -0.8079 -0.4095
 8165TIP3    H145910   0.763   2.520   1.196  0.8450 -1.3278 -0.1420
 8165TIP3    H245911   0.744   2.558   1.051  0.1716 -0.1553  0.2427
 8166TIP3   OH245912   1.849   4.802   0.089 -0.1347 -0.0764  0.1406
 8166TIP3    H145913   1.887   4.829   0.006 -0.0829  0.2262  0.2620
 8166TIP3    H245914   1.798   4.724   0.067  0.0046 -0.0878 -0.1465
 8167TIP3   OH245915   6.370   1.873   5.916 -0.7220 -0.2914  0.6224
 8167TIP3    H145916   6.434   1.903   5.980  1.6720 -1.0298 -1.3342
 8167TIP3    H245917   6.367   1.943   5.851 -0.2307 -1.2035 -0.4078
 8168TIP3   OH245918   0.858   0.910  13.163  0.0425 -0.0996  0.0299
 8168TIP3    H145919   0.948   0.925  13.133 -0.2791  0.0336 -0.8975
 8168TIP3    H245920   0.813   0.874  13.086 -0.3078 -1.6258  0.9297
 8169TIP3   OH245921   1.083   0.705   0.540 -0.8883  0.4983 -0.0896
 8169TIP3    H145922   1.118   0.766   0.475 -0.8513 -0.6319 -1.1489
 8169TIP3    H245923   1.015   0.754   0.585 -3.1755  0.3223 -3.1824
 8170TIP3   OH245924   4.132   2.750  12.431 -0.2822  0.3293  0.6623
 8170TIP3    H145925   4.217   2.771  12.393 -0.4702 -0.3322 -0.1285
 8170TIP3    H245926   4.074   2.819  12.398 -0.1682  0.4859  0.7872
 8171TIP3   OH245927   4.444   1.548   1.897 -0.3346  0.4323  0.2097
 8171TIP3    H145928   4.373   1.529   1.835  0.6373 -0.3434 -0.6909
 8171TIP3    H245929   4.468   1.462   1.933 -0.3413  0.7819  1.0512
 8172TIP3   OH245930   1.118   2.816  13.616 -0.3485 -0.2400  0.3883
 8172TIP3    H145931   1.040   2.839  13.565 -0.0637 -1.0728 -0.4310
 8172TIP3    H245932   1.143   2.897  13.660 -0.9536  0.3359 -0.3274
 8173TIP3   OH245933   0.109   2.422  11.282 -0.4237 -0.4935 -0.4365
 8173TIP3    H145934   0.134   2.338  11.321 -0.6917 -0.2770  0.2278
 8173TIP3    H245935   0.188   2.454  11.240  0.6104  0.4856  2.1659
 8174TIP3   OH245936   1.691   0.044  13.950  0.0801 -0.3583  0.3674
 8174TIP3    H145937   1.692   0.021  14.043  0.4698  0.6534  0.6181
 8174TIP3    H245938   1.742  -0.026  13.908 -0.3940 -1.0060  0.8582
 8175TIP3   OH245939   0.122   0.422   3.830 -0.7625 -0.4000  0.1402
 8175TIP3    H145940   0.203   0.459   3.794 -1.6899  0.9273 -0.6424
 8175TIP3    H245941   0.053   0.457   3.774 -1.9157 -1.2340  1.0177
 8176TIP3   OH245942   0.983   1.389   1.196  0.0090 -0.1865  0.1738
 8176TIP3    H145943   1.024   1.328   1.256 -0.6323 -0.8725 -0.0880
 8176TIP3    H245944   1.030   1.378   1.113  1.1237  1.0052  0.6247
 8177TIP3   OH245945   3.501   0.128  12.403  0.0827 -0.5218 -0.2280
 8177TIP3    H145946   3.447   0.162  12.333  0.9632 -0.0138 -0.6711
 8177TIP3    H245947   3.584   0.176  12.395  0.3588 -0.8003  0.8511
 8178TIP3   OH245948   1.923   1.103  12.089  0.2602 -0.1247  0.1730
 8178TIP3    H145949   1.992   1.045  12.056 -0.8109 -0.5638 -1.3235
 8178TIP3    H245950   1.970   1.175  12.131  1.6164 -1.0466  0.2660
 8179TIP3   OH245951   3.247   5.525  13.991  0.5732  0.2526 -0.0977
 8179TIP3    H145952   3.240   5.480  13.906 -3.7336  0.2448  0.1438
 8179TIP3    H245953   3.282   5.459  14.050 -0.2119 -1.0170 -1.0223
 8180TIP3   OH245954   2.436   1.796   5.171  0.2005 -0.4854 -0.0465
 8180TIP3    H145955   2.393   1.877   5.141  0.3705 -0.1750  0.5536
 8180TIP3    H245956   2.401   1.728   5.113 -2.5207 -0.5601  1.5953
 8181TIP3   OH245957   4.793   1.463  15.324  0.1388  0.7751  0.6081
 8181TIP3    H145958   4.877   1.473  15.279 -0.0068  0.4662  0.2772
 8181TIP3    H245959   4.801   1.380  15.371  0.1098  0.8662  0.7743
 8182TIP3   OH245960   5.344   4.386   6.008 -0.4739  0.5211 -0.0680
 8182TIP3    H145961   5.330   4.321   6.077  0.8052  0.4279  0.1076
 8182TIP3    H245962   5.431   4.422   6.025  0.2368 -0.1341 -2.1507
 8183TIP3   OH245963   3.844   1.718  16.213  0.2207 -0.2917 -0.2843
 8183TIP3    H145964   3.750   1.703  16.199  0.1325 -0.5248  0.5288
 8183TIP3    H245965   3.850   1.810  16.236  0.2266 -0.2139 -0.5872
 8184TIP3   OH245966   5.554   6.351   4.698 -0.0600  0.5284 -0.3245
 8184TIP3    H145967   5.591   6.270   4.661 -0.7817  0.4521 -0.8828
 8184TIP3    H245968   5.525   6.401   4.622 -3.0771 -0.3590  0.1808
 8185TIP3   OH245969   0.280   6.246  10.532 -0.1548  0.6875  0.0697
 8185TIP3    H145970   0.275   6.339  10.510 -2.3531 -0.3615 -4.5004
 8185TIP3    H245971   0.370   6.220  10.512  0.4689  1.7805  1.3917
 8186TIP3   OH245972   6.385   1.529   2.835 -0.5570 -0.0476 -0.2077
 8186TIP3    H145973   6.420   1.611   2.869 -2.5609  1.7326 -2.2704
 8186TIP3    H245974   6.300   1.520   2.879 -1.0150 -0.2239 -1.1253
 8187TIP3   OH245975   4.969   1.107   3.105 -0.1159  0.4042 -0.2967
 8187TIP3    H145976   4.919   1.083   3.183 -0.4271 -0.1634 -0.6658
 8187TIP3    H245977   4.918   1.072   3.032  0.8180 -0.1720 -0.6788
 8188TIP3   OH245978   2.942   6.366  15.313 -0.0402  0.1630  0.3076
 8188TIP3    H145979   3.000   6.289  15.315  0.5423  0.5422 -1.3172
 8188TIP3    H245980   2.854   6.329  15.300  0.0432 -0.3161  1.0830
 8189TIP3   OH245981   2.323   1.549   2.902 -0.3528  0.7536 -0.7079
 8189TIP3    H145982   2.366   1.611   2.961 -1.3610  0.0934  0.7222
 8189TIP3    H245983   2.240   1.590   2.880  0.1739  1.1677 -1.9922
 8190TIP3   OH245984   2.060   1.251   1.118  0.2177 -0.5564 -0.8544
 8190TIP3    H145985   1.989   1.313   1.128  1.6439  0.8741  0.8806
 8190TIP3    H245986   2.022   1.167   1.145 -1.3665 -0.2175 -1.9743
 8191TIP3   OH245987   4.416   5.820  15.226  0.4262  0.4798  0.5480
 8191TIP3    H145988   4.506   5.849  15.241 -0.1923  2.3699  0.6746
 8191TIP3    H245989   4.377   5.889  15.173 -0.9462 -0.3485  0.4673
 8192TIP3   OH245990   4.016   0.637  14.047  0.3353 -0.2915  0.2314
 8192TIP3    H145991   3.922   0.621  14.035  0.0642  1.2644  0.2005
 8192TIP3    H245992   4.024   0.668  14.137  0.6913  0.5329 -0.0818
 8193TIP3   OH245993   0.732   1.997  12.918  0.3633  0.5598 -0.1695
 8193TIP3    H145994   0.682   2.006  12.838 -0.4925  1.0622  0.4113
 8193TIP3    H245995   0.754   1.904  12.924 -0.1785  0.4083 -0.6177
 8194TIP3   OH245996   3.910   0.261  14.372  0.4040  0.3390 -0.1972
 8194TIP3    H145997   4.002   0.279  14.390 -0.4848  2.0651  3.0918
 8194TIP3    H245998   3.871   0.348  14.361 -0.7747 -0.3921 -1.9917
 8195TIP3   OH245999   6.560   1.742   3.674  0.1099  0.3006  0.0354
 8195TIP3    H146000   6.581   1.829   3.642 -0.7412 -0.1575 -1.8446
 8195TIP3    H246001   6.475   1.721   3.635  0.6804 -1.6930 -0.2108
 8196TIP3   OH246002   4.421   2.263   0.346 -0.0346  0.1324  0.6931
 8196TIP3    H146003   4.331   2.261   0.378 -0.7028  1.5882 -0.9867
 8196TIP3    H246004   4.451   2.352   0.366  1.1494 -0.4421  1.5271
 8197TIP3   OH246005   1.526   2.755  12.935 -0.4016  0.4358 -0.1933
 8197TIP3    H146006   1.591   2.733  13.002 -0.9398  1.2581  0.6063
 8197TIP3    H246007   1.574   2.812  12.874  0.3699 -1.1008 -1.0843
 8198TIP3   OH246008   2.198   2.021   2.699  0.2906 -0.8525 -0.1878
 8198TIP3    H146009   2.174   2.068   2.778 -2.4813 -1.4712 -0.6263
 8198TIP3    H246010   2.278   1.973   2.723 -1.2553 -2.1263  2.6463
 8199TIP3   OH246011   3.549   2.536  13.196  0.3076  0.4880  0.3157
 8199TIP3    H146012   3.460   2.553  13.227  0.1750 -0.8360  0.6756
 8199TIP3    H246013   3.584   2.623  13.177 -1.2150  0.9950 -0.2824
 8200TIP3   OH246014   6.133   4.371  14.541 -0.7300  0.2111 -0.2554
 8200TIP3    H146015   6.217   4.413  14.559 -0.9309  0.4341  0.1614
 8200TIP3    H246016   6.152   4.277  14.545 -0.1310  0.2358 -1.8628
 8201TIP3   OH246017   2.276   1.013  12.893  0.3750 -0.2887  0.7599
 8201TIP3    H146018   2.369   0.995  12.883  0.0000 -1.5833 -0.5301
 8201TIP3    H246019   2.255   1.073  12.822  0.7164  2.0132  2.5285
 8202TIP3   OH246020   3.972   0.207   1.709  0.1152  0.2134 -0.0865
 8202TIP3    H146021   3.935   0.126   1.675  0.9708  1.1412 -3.4220
 8202TIP3    H246022   3.916   0.230   1.783  1.0124 -4.3742  2.1457
 8203TIP3   OH246023   2.087   4.955  11.868 -0.0070 -0.2822 -0.6068
 8203TIP3    H146024   2.026   4.886  11.895  0.6278 -0.5293  0.2148
 8203TIP3    H246025   2.158   4.909  11.823 -0.1590 -0.0497 -1.0870
 8204TIP3   OH246026   2.622   4.925  15.331 -0.3648  0.4817  0.1604
 8204TIP3    H146027   2.639   4.833  15.351 -1.1867  0.5112  1.0122
 8204TIP3    H246028   2.533   4.927  15.297 -0.4147  0.9854  0.3125
 8205TIP3   OH246029   5.181   3.550   6.216  0.2304  0.3954 -0.1274
 8205TIP3    H146030   5.258   3.577   6.265  0.8939  0.1281 -1.0020
 8205TIP3    H246031   5.112   3.609   6.246 -0.1358 -1.6409  3.2778
 8206TIP3   OH246032   3.726   5.892  15.770 -0.1962 -1.2119 -0.5709
 8206TIP3    H146033   3.772   5.830  15.827 -2.5998 -1.7592  0.8266
 8206TIP3    H246034   3.748   5.864  15.681 -1.3785 -4.2156  0.0327
 8207TIP3   OH246035   4.421   4.744   5.304 -0.5569 -0.8039 -0.1525
 8207TIP3    H146036   4.495   4.773   5.357 -0.2518 -0.2438 -0.8719
 8207TIP3    H246037   4.428   4.649   5.301 -0.0650 -0.7715  0.0633
 8208TIP3   OH246038   2.169   4.574  16.033 -0.6720  0.1086 -0.9631
 8208TIP3    H146039   2.227   4.586  15.958 -1.8674 -1.5742 -2.1879
 8208TIP3    H246040   2.106   4.508  16.004 -2.0421  0.5238  1.0115
 8209TIP3   OH246041   0.675   5.025   5.118  0.0136 -0.6997 -0.4259
 8209TIP3    H146042   0.605   5.063   5.172 -0.1118 -1.5826  0.0518
 8209TIP3    H246043   0.712   5.099   5.070 -0.6600 -0.0868 -0.0065
 8210TIP3   OH246044   4.066   0.716   4.327  0.0429 -0.4390 -0.3438
 8210TIP3    H146045   4.131   0.777   4.289 -0.2579  0.7780  1.0647
 8210TIP3    H246046   3.989   0.770   4.341 -0.8183 -1.5722 -0.6810
 8211TIP3   OH246047   6.518   0.191  14.644 -0.1533 -0.2294 -0.3525
 8211TIP3    H146048   6.512   0.114  14.588  0.0818  1.5825 -2.9734
 8211TIP3    H246049   6.451   0.251  14.610 -1.8125 -0.0825  3.0017
 8212TIP3   OH246050   4.506   2.562  13.603 -0.4917 -0.3966 -0.0135
 8212TIP3    H146051   4.457   2.642  13.623  1.6429  0.8027  0.5720
 8212TIP3    H246052   4.597   2.591  13.592 -0.0436 -2.4137 -2.1260
 8213TIP3   OH246053   0.322   2.943   3.340  0.4225 -0.2304  0.1892
 8213TIP3    H146054   0.329   2.882   3.267 -1.1140  1.3780 -1.3331
 8213TIP3    H246055   0.409   2.983   3.347  1.2341 -2.0567  0.7611
 8214TIP3   OH246056   6.773   1.885   1.666 -0.1128  0.1942  0.1683
 8214TIP3    H146057   6.751   1.816   1.728  1.5033 -0.0399  0.5139
 8214TIP3    H246058   6.835   1.940   1.713  0.3527  0.5891 -0.8928
 8215TIP3   OH246059   4.241   1.111   2.895 -0.2243 -0.1655 -0.3550
 8215TIP3    H146060   4.267   1.175   2.961  1.4136 -1.3091  0.1461
 8215TIP3    H246061   4.320   1.096   2.843 -0.7332 -1.3448 -0.8112
 8216TIP3   OH246062   2.102   4.622  16.922 -0.4739 -0.0273  0.3541
 8216TIP3    H146063   2.139   4.588  16.840 -1.8456  1.2169 -0.8234
 8216TIP3    H246064   2.158   4.586  16.990  1.2063 -0.4237 -1.1831
 8217TIP3   OH246065   1.490   4.927   3.546  0.2208 -0.0254 -0.2308
 8217TIP3    H146066   1.483   4.972   3.462 -1.5683 -0.8624 -0.5449
 8217TIP3    H246067   1.473   4.835   3.526 -2.1999  0.0424  1.3250
 8218TIP3   OH246068   1.726   1.276  16.979  0.0371  0.4698  0.9010
 8218TIP3    H146069   1.685   1.190  16.984 -1.5391  1.2302  1.1190
 8218TIP3    H246070   1.792   1.276  17.049  1.5419 -1.3261 -0.4616
 8219TIP3   OH246071   0.895   5.755   4.139 -0.3109  0.6783 -0.4615
 8219TIP3    H146072   0.943   5.673   4.148 -0.1632  0.8911  0.8038
 8219TIP3    H246073   0.954   5.812   4.090  0.5405  0.7714  0.6428
 8220TIP3   OH246074   5.842   5.955  15.170 -0.2409  0.6068 -0.0781
 8220TIP3    H146075   5.931   5.988  15.159 -0.3344  0.7787 -0.3141
 8220TIP3    H246076   5.786   6.026  15.140 -0.4275  0.0091 -1.1866
 8221TIP3   OH246077   4.240   1.722  16.380 -0.4150 -0.1730  0.3925
 8221TIP3    H146078   4.238   1.695  16.472  1.1019 -0.8614  0.2403
 8221TIP3    H246079   4.330   1.752  16.366 -0.3968 -0.9061 -1.0908
 8222TIP3   OH246080   6.005   3.471   0.447 -0.4488  0.1612  0.2787
 8222TIP3    H146081   5.934   3.430   0.496 -0.4181 -1.2943 -0.8880
 8222TIP3    H246082   6.046   3.400   0.398  0.5993  1.3077 -0.5547
 8223TIP3   OH246083   3.520   4.124   1.932 -0.1345 -0.2076  0.5022
 8223TIP3    H146084   3.446   4.164   1.978  0.5576  1.4246  0.2052
 8223TIP3    H246085   3.595   4.181   1.951  0.8950 -1.4148  0.1667
 8224TIP3   OH246086   3.940   1.812   4.883  0.1869  0.7663  0.5240
 8224TIP3    H146087   3.982   1.880   4.936 -1.7478  0.6583  2.2756
 8224TIP3    H246088   3.914   1.856   4.803 -1.5990  2.3051  1.8924
 8225TIP3   OH246089   5.051   2.679   4.105 -0.0072  0.0689 -0.6829
 8225TIP3    H146090   4.995   2.753   4.126  2.2868  1.6494 -0.0215
 8225TIP3    H246091   5.115   2.713   4.042  0.8462 -1.4265 -0.6680
 8226TIP3   OH246092   5.267   6.209   5.282  0.5166 -0.0327  0.2986
 8226TIP3    H146093   5.254   6.242   5.371  0.7517 -0.5979  0.5446
 8226TIP3    H246094   5.359   6.181   5.281  0.6963  0.5771 -0.3218
 8227TIP3   OH246095   3.518   1.082  12.943  0.3649  0.5241  0.2735
 8227TIP3    H146096   3.522   1.177  12.933  0.7117  0.3790 -1.0981
 8227TIP3    H246097   3.448   1.055  12.884  1.3069 -0.2245 -0.5108
 8228TIP3   OH246098   6.466   5.486   2.093  0.3869  0.8552  0.0283
 8228TIP3    H146099   6.513   5.430   2.155 -2.4119 -3.5508 -1.5759
 8228TIP3    H246100   6.387   5.513   2.140 -1.9058 -2.7703 -1.5697
 8229TIP3   OH246101   0.934   1.738   3.414  0.0406 -0.3784  0.3082
 8229TIP3    H146102   0.967   1.828   3.418 -0.6591  0.0343 -2.1595
 8229TIP3    H246103   0.954   1.709   3.325 -0.9199 -2.2164  0.6643
 8230TIP3   OH246104   2.566   0.297  10.580 -0.3272  0.0645 -0.1787
 8230TIP3    H146105   2.485   0.347  10.567 -0.2090  0.6558  1.2736
 8230TIP3    H246106   2.542   0.227  10.641  0.4582  0.7902  0.9787
 8231TIP3   OH246107   5.001   4.616  14.127 -0.1131  0.5257  0.1515
 8231TIP3    H146108   5.088   4.610  14.165  0.4552  1.1621 -1.0206
 8231TIP3    H246109   5.010   4.577  14.040 -0.7817  1.3821 -0.3098
 8232TIP3   OH246110   2.248   4.368   4.054 -0.1989  0.4151  0.2128
 8232TIP3    H146111   2.206   4.298   4.105 -1.9725  0.2691 -1.3812
 8232TIP3    H246112   2.178   4.403   3.999  1.1204  2.1649 -0.4119
 8233TIP3   OH246113   1.728   1.387   4.209  0.3208  0.6267 -0.5499
 8233TIP3    H146114   1.743   1.303   4.167  0.8727  0.4622 -0.0208
 8233TIP3    H246115   1.728   1.368   4.302  2.3521  1.5035 -0.3413
 8234TIP3   OH246116   4.337   5.911   1.491 -0.4271 -0.2555 -0.7121
 8234TIP3    H146117   4.345   5.850   1.564  0.6247  0.8314  0.1052
 8234TIP3    H246118   4.257   5.960   1.509 -1.4287 -1.5323 -1.5133
 8235TIP3   OH246119   1.280   1.238  14.305 -0.1224 -0.3027 -0.4916
 8235TIP3    H146120   1.295   1.195  14.221  3.3851 -0.0094 -0.0948
 8235TIP3    H246121   1.185   1.233  14.318 -0.5687 -1.6509 -3.7439
 8236TIP3   OH246122   1.633   1.326   2.332  0.6164  0.4915  0.3380
 8236TIP3    H146123   1.632   1.244   2.382  0.7052  0.2108 -0.1136
 8236TIP3    H246124   1.702   1.378   2.372  1.7391 -0.3529 -0.4694
 8237TIP3   OH246125   4.383   1.299   3.124 -0.0079 -0.0991  0.4826
 8237TIP3    H146126   4.409   1.263   3.208  1.5578 -0.1710 -0.0217
 8237TIP3    H246127   4.379   1.394   3.138 -1.5521 -0.2357  1.1062
 8238TIP3   OH246128   5.175   1.430  13.426 -0.5230 -0.2752  0.1413
 8238TIP3    H146129   5.119   1.500  13.459 -0.3313 -0.3519  0.6333
 8238TIP3    H246130   5.142   1.351  13.468 -0.9174 -0.5251 -0.6250
 8239TIP3   OH246131   1.464   4.628  17.214 -0.4259 -0.2239  0.0614
 8239TIP3    H146132   1.395   4.575  17.172 -0.9921  0.1855  0.4685
 8239TIP3    H246133   1.416   4.690  17.269  0.1451  1.8485 -1.6908
 8240TIP3   OH246134   3.809   2.746   5.939 -0.3113 -0.4415 -0.0967
 8240TIP3    H146135   3.853   2.796   5.870 -0.8737  1.2130  0.7122
 8240TIP3    H246136   3.845   2.781   6.021  0.9203 -2.9079  0.4710
 8241TIP3   OH246137   3.281   1.235  13.909 -1.0290  0.0449  0.0709
 8241TIP3    H146138   3.263   1.309  13.967 -0.9552  0.2659 -0.1839
 8241TIP3    H246139   3.241   1.160  13.952  2.8068 -0.6216  2.6467
 8242TIP3   OH246140   4.902   4.457   2.761  0.9352  0.0259 -0.3013
 8242TIP3    H146141   4.954   4.496   2.832 -1.1495 -0.2591  1.4393
 8242TIP3    H246142   4.857   4.384   2.804  0.1735 -0.5756 -2.1178
 8243TIP3   OH246143   1.607   4.216   6.246 -0.1931 -0.1313 -0.0266
 8243TIP3    H146144   1.701   4.206   6.261 -0.0395  1.0834 -0.1052
 8243TIP3    H246145   1.589   4.164   6.168  0.3438 -0.6655  0.2009
 8244TIP3   OH246146   3.221   4.115   2.261 -0.3721 -0.5181 -0.5330
 8244TIP3    H146147   3.157   4.045   2.256 -0.5049 -0.4898  0.6176
 8244TIP3    H246148   3.226   4.137   2.354  1.9571 -1.1188 -0.4844
 8245TIP3   OH246149   5.699   1.969   1.286 -0.0327  0.3294 -0.3370
 8245TIP3    H146150   5.764   2.029   1.251  0.6673 -0.6215 -0.7129
 8245TIP3    H246151   5.677   1.912   1.212  0.5302 -0.9052  0.4323
 8246TIP3   OH246152   1.942   0.597   6.670  0.0431 -0.5990 -0.1482
 8246TIP3    H146153   1.914   0.529   6.610  1.7129 -0.8566 -0.6698
 8246TIP3    H246154   2.037   0.602   6.659 -0.2912  3.8962 -2.3643
 8247TIP3   OH246155   6.210   2.029   4.690 -0.4443 -0.6381  0.2580
 8247TIP3    H146156   6.275   1.975   4.735  1.9721  1.1885 -0.9634
 8247TIP3    H246157   6.212   2.113   4.737 -0.5581  0.0539 -0.9562
 8248TIP3   OH246158   0.194   4.740   4.036 -0.1494 -0.0876  0.2425
 8248TIP3    H146159   0.146   4.723   3.954 -0.7739 -0.8338  0.7435
 8248TIP3    H246160   0.132   4.714   4.105  1.3544 -2.1369  0.8897
 8249TIP3   OH246161   5.687   2.541  11.978 -0.2539  0.5823 -0.6878
 8249TIP3    H146162   5.607   2.537  12.031  0.5694  0.2795  0.5616
 8249TIP3    H246163   5.688   2.457  11.931 -1.1527  0.9841 -1.4456
 8250TIP3   OH246164   4.878   6.627  16.185  0.4356  0.1112 -0.0486
 8250TIP3    H146165   4.906   6.710  16.147  1.3533 -0.2615 -0.1902
 8250TIP3    H246166   4.924   6.622  16.269  1.4885 -0.9076 -0.6781
 8251TIP3   OH246167   1.790   1.052  11.381 -0.1835  0.5340 -0.6556
 8251TIP3    H146168   1.837   0.969  11.389 -0.0272  0.3880 -2.7890
 8251TIP3    H246169   1.699   1.030  11.400  0.1304  0.2154  0.4862
 8252TIP3   OH246170   3.648   5.991   2.585  0.3584  0.1729  0.2077
 8252TIP3    H146171   3.700   6.001   2.664  1.1568 -0.1871 -0.2620
 8252TIP3    H246172   3.587   5.919   2.605  1.1062 -0.4632  0.2074
 8253TIP3   OH246173   4.671   6.192  15.122 -0.2976  0.0988 -0.0172
 8253TIP3    H146174   4.754   6.211  15.078  0.1087 -0.0650  0.6762
 8253TIP3    H246175   4.663   6.097  15.117 -0.2322  0.0762  0.2909
 8254TIP3   OH246176   1.224   3.764   0.065 -0.3580 -0.2737 -0.1332
 8254TIP3    H146177   1.182   3.685   0.098 -1.2650  0.1381 -0.2590
 8254TIP3    H246178   1.306   3.734   0.026 -1.2792 -1.3275 -1.3116
 8255TIP3   OH246179   5.517   1.410   0.254  0.3476 -0.2082  0.3672
 8255TIP3    H146180   5.517   1.344   0.185  1.0000  0.3404 -0.1602
 8255TIP3    H246181   5.439   1.390   0.306  0.3981 -1.2302  0.0600
 8256TIP3   OH246182   5.814   6.613  14.515 -0.4972 -0.0135  0.2674
 8256TIP3    H146183   5.796   6.519  14.511 -0.9699  0.0938 -0.2973
 8256TIP3    H246184   5.749   6.648  14.576  0.7381 -0.2888  1.7616
 8257TIP3   OH246185   6.105   2.824  12.020 -0.0496  0.2749  0.2347
 8257TIP3    H146186   6.149   2.892  12.070 -0.0824  0.1351  0.4573
 8257TIP3    H246187   6.049   2.780  12.085  1.0840 -0.9195  0.4368
 8258TIP3   OH246188   5.890   0.476  14.608  0.4056 -0.0059  0.0636
 8258TIP3    H146189   5.797   0.491  14.596  0.9834  2.4461 -1.9219
 8258TIP3    H246190   5.900   0.381  14.603 -1.9855 -0.3097  0.4632
 8259TIP3   OH246191   5.740   0.421   2.078 -0.0068  0.5068  0.4567
 8259TIP3    H146192   5.810   0.483   2.099  0.2991  0.1788  0.4038
 8259TIP3    H246193   5.659   0.471   2.091  0.2631  1.3650 -1.0022
 8260TIP3   OH246194   4.453   5.265   6.283 -0.1048 -0.2611  0.5271
 8260TIP3    H146195   4.528   5.227   6.329  1.3652  1.4724 -0.3689
 8260TIP3    H246196   4.387   5.196   6.284  1.4989 -1.8370  1.3079
 8261TIP3   OH246197   5.750   4.187   4.569 -0.7090  0.0566 -0.0463
 8261TIP3    H146198   5.737   4.094   4.549 -4.0538  0.3953  0.2733
 8261TIP3    H246199   5.719   4.232   4.490  0.1223  0.9462  0.1285
 8262TIP3   OH246200   5.523   4.157  11.706 -0.0086 -0.3242  0.4672
 8262TIP3    H146201   5.484   4.236  11.669  1.1021 -0.2942 -0.6693
 8262TIP3    H246202   5.466   4.086  11.677 -0.0609 -0.1229  0.0856
 8263TIP3   OH246203   5.360   5.596  13.499  0.3807 -0.6307 -0.1511
 8263TIP3    H146204   5.422   5.579  13.428 -0.3267  1.4603 -1.2989
 8263TIP3    H246205   5.286   5.538  13.479 -0.7251  1.4716 -2.3451
 8264TIP3   OH246206   3.526   1.153  15.307 -0.2158  0.0509  0.0181
 8264TIP3    H146207   3.595   1.107  15.258 -1.9369 -2.7447  0.0997
 8264TIP3    H246208   3.485   1.209  15.242 -0.5285 -1.3929 -1.0681
 8265TIP3   OH246209   4.702   3.383  16.960 -0.2200 -0.0113 -0.0145
 8265TIP3    H146210   4.626   3.350  17.008  0.2763 -1.2577 -0.0649
 8265TIP3    H246211   4.702   3.334  16.878  0.8625 -0.3209  0.1545
 8266TIP3   OH246212   4.555   4.205  15.041 -0.2890 -0.1123  0.3383
 8266TIP3    H146213   4.483   4.265  15.058  0.0578  0.8520 -1.4298
 8266TIP3    H246214   4.618   4.257  14.991  0.8368 -1.4444  0.3334
 8267TIP3   OH246215   4.820   3.528   2.587  0.3394  0.0716 -0.4372
 8267TIP3    H146216   4.835   3.434   2.575  1.2310 -0.1120  1.7566
 8267TIP3    H246217   4.901   3.569   2.560  0.0714  0.1834 -1.0723
 8268TIP3   OH246218   6.118   3.072   0.472  0.1904 -0.1775 -0.4203
 8268TIP3    H146219   6.161   3.152   0.502  0.3110 -0.5670  0.4376
 8268TIP3    H246220   6.125   3.012   0.545  0.8178 -1.2634 -1.3542
 8269TIP3   OH246221   6.045   4.265   2.629  0.0375  0.5095  0.0435
 8269TIP3    H146222   6.046   4.196   2.563  0.8819  0.5352  0.0311
 8269TIP3    H246223   5.959   4.307   2.618  0.2044  0.5646 -1.0875
 8270TIP3   OH246224   6.470   2.837   6.597  0.2968 -0.2052  0.4389
 8270TIP3    H146225   6.448   2.926   6.624 -0.6071 -0.5323  0.8041
 8270TIP3    H246226   6.389   2.802   6.560  0.3709 -1.2088  1.2036
 8271TIP3   OH246227   3.949   6.097  11.691 -0.2563  0.0177 -0.4196
 8271TIP3    H146228   4.035   6.120  11.725 -1.0211 -1.0937  2.3931
 8271TIP3    H246229   3.962   6.013  11.646  0.6824  1.3151 -2.6522
 8272TIP3   OH246230   2.023   2.624   4.759 -0.1241 -0.0851 -0.6194
 8272TIP3    H146231   2.032   2.657   4.849  2.9997  1.5909 -1.4680
 8272TIP3    H246232   1.954   2.678   4.721 -0.7641 -0.1176  0.4498
 8273TIP3   OH246233   1.793   1.152   3.396  0.3438 -0.4435  0.3110
 8273TIP3    H146234   1.700   1.172   3.405  0.3333  0.4970 -1.7534
 8273TIP3    H246235   1.837   1.226   3.436  0.2291 -1.1165  1.7297
 8274TIP3   OH246236   1.925   4.967  15.978 -0.0169 -0.3577  0.4707
 8274TIP3    H146237   1.910   4.991  15.887 -0.1633 -1.4961  0.1862
 8274TIP3    H246238   1.847   4.996  16.024  0.4981  1.1333  0.4028
 8275TIP3   OH246239   1.295   0.629  10.385  0.2254  0.1593  0.0661
 8275TIP3    H146240   1.357   0.626  10.312 -0.3648  0.6927 -0.4555
 8275TIP3    H246241   1.340   0.681  10.452  1.6013 -1.9841  0.8757
 8276TIP3   OH246242   6.171   3.718  14.378  0.0830 -0.0137  0.5080
 8276TIP3    H146243   6.239   3.692  14.438  1.3711 -0.3271 -1.0576
 8276TIP3    H246244   6.190   3.810  14.358 -0.1078 -0.0230  0.2706
 8277TIP3   OH246245   4.678   6.213  13.620  0.1614  0.5401 -0.5591
 8277TIP3    H146246   4.739   6.214  13.694  0.8839 -2.7201 -1.0238
 8277TIP3    H246247   4.591   6.207  13.660  0.4586  0.3152  0.0536
 8278TIP3   OH246248   6.024   6.199  13.760 -0.5530  0.3018  0.2829
 8278TIP3    H146249   6.051   6.170  13.847  0.9073  0.6635 -0.0319
 8278TIP3    H246250   5.934   6.230  13.771 -0.7157 -0.5742  1.4526
 8279TIP3   OH246251   6.501   0.863  14.025  0.1248 -0.2462 -0.2528
 8279TIP3    H146252   6.441   0.921  14.070  0.8940 -0.1897  0.7100
 8279TIP3    H246253   6.445   0.811  13.966 -0.6062  1.1604 -0.8122
 8280TIP3   OH246254   1.139   4.387   0.976 -0.6777  0.4026  0.2694
 8280TIP3    H146255   1.190   4.451   1.027 -2.4301  1.1885  1.0736
 8280TIP3    H246256   1.205   4.341   0.924  0.9528  0.8715  1.8442
 8281TIP3   OH246257   2.054   1.338  12.107 -0.3928  0.3608 -0.3813
 8281TIP3    H146258   2.074   1.307  12.019  0.6854 -1.1128  0.3688
 8281TIP3    H246259   2.137   1.373  12.140 -0.1150 -1.5525  1.0289
 8282TIP3   OH246260   1.431   4.298  14.461  0.4294 -0.2897 -0.1594
 8282TIP3    H146261   1.343   4.263  14.472 -0.0575  0.9254 -0.0551
 8282TIP3    H246262   1.458   4.324  14.549  1.5201 -2.0786  0.0557
 8283TIP3   OH246263   2.689   3.828  12.442 -0.6442  0.2704  0.3475
 8283TIP3    H146264   2.678   3.855  12.534  3.6342  2.4138  0.3334
 8283TIP3    H246265   2.649   3.899  12.392  1.1795  1.4654  0.5261
 8284TIP3   OH246266   4.577   0.598  15.616 -0.2108  0.3918  0.4785
 8284TIP3    H146267   4.535   0.585  15.531  0.5454 -0.5024  0.2318
 8284TIP3    H246268   4.517   0.656  15.663 -1.6490 -0.7275  0.0780
 8285TIP3   OH246269   6.721   2.492  12.103 -0.2772 -0.4861  0.1362
 8285TIP3    H146270   6.778   2.436  12.051  0.5786  0.6372 -0.1386
 8285TIP3    H246271   6.686   2.556  12.040 -1.9040 -1.2000  0.2775
 8286TIP3   OH246272   1.258   6.283   2.448 -0.0526 -0.6267 -0.0679
 8286TIP3    H146273   1.188   6.330   2.404  0.8684  1.8667  1.0380
 8286TIP3    H246274   1.338   6.310   2.402  0.4801 -1.2688  0.4584
 8287TIP3   OH246275   4.589   0.495  12.608 -0.0854 -0.1476 -0.4019
 8287TIP3    H146276   4.577   0.576  12.559  1.9451  1.0403  0.9476
 8287TIP3    H246277   4.662   0.452  12.564 -1.2300 -1.3095 -1.1774
 8288TIP3   OH246278   0.892   2.317  15.415  0.2490  0.1186  0.0928
 8288TIP3    H146279   0.898   2.386  15.481 -1.7924  1.5207 -1.1181
 8288TIP3    H246280   0.981   2.309  15.380  0.6761  1.5496  0.8154
 8289TIP3   OH246281   4.791   2.776   4.865 -0.4399 -0.5213 -0.2144
 8289TIP3    H146282   4.702   2.759   4.897  0.0653 -1.7361  0.5791
 8289TIP3    H246283   4.840   2.803   4.942 -0.2159  0.6077 -0.7364
 8290TIP3   OH246284   1.673   4.976   5.370 -0.1282 -0.1508  0.0175
 8290TIP3    H146285   1.670   4.888   5.332 -0.8939 -0.3431  0.5086
 8290TIP3    H246286   1.765   5.001   5.364  0.4514 -1.7497  1.5773
 8291TIP3   OH246287   2.236   1.446  13.895 -0.2460  0.1142 -0.7408
 8291TIP3    H146288   2.234   1.398  13.978  3.6617  1.1996  0.0969
 8291TIP3    H246289   2.238   1.538  13.921  0.3080  0.4837 -2.0655
 8292TIP3   OH246290   4.098   0.740  15.896  0.6104  0.6009 -0.3565
 8292TIP3    H146291   4.027   0.729  15.960  1.6258  0.4178  0.7388
 8292TIP3    H246292   4.164   0.676  15.922  1.4671  1.2195 -0.9844
 8293TIP3   OH246293   3.515   0.995   6.501  0.3772  0.7364  0.1053
 8293TIP3    H146294   3.469   1.010   6.419 -0.9674 -1.9527  0.3241
 8293TIP3    H246295   3.578   0.925   6.481 -0.7012 -0.6876  1.6103
 8294TIP3   OH246296   5.793   5.615  13.946  0.8396  0.2717 -0.1975
 8294TIP3    H146297   5.718   5.564  13.915  0.2928  1.6785 -1.2379
 8294TIP3    H246298   5.868   5.579  13.898  0.8741 -1.2633  0.9875
 8295TIP3   OH246299   6.089   1.401  13.397 -0.2050  0.0900 -0.7363
 8295TIP3    H146300   6.112   1.401  13.490  3.0212  0.1424 -1.4880
 8295TIP3    H246301   6.017   1.338  13.391  0.8735 -1.4170  1.4642
 8296TIP3   OH246302   1.218   0.722  14.252 -0.2091 -0.2761  0.6514
 8296TIP3    H146303   1.147   0.758  14.306 -0.5180 -0.0528  0.0954
 8296TIP3    H246304   1.273   0.674  14.314 -0.8063 -0.3858  1.0963
 8297TIP3   OH246305   0.551   0.832   2.486  0.1764 -0.2660  0.2270
 8297TIP3    H146306   0.479   0.797   2.433 -2.1196  1.1132  2.3183
 8297TIP3    H246307   0.548   0.781   2.567  1.0651  0.2956  0.6187
 8298TIP3   OH246308   1.729   3.499  16.655  0.2927  0.2324  0.6209
 8298TIP3    H146309   1.804   3.558  16.656  0.3663  0.1355  1.2303
 8298TIP3    H246310   1.743   3.442  16.731  0.3508 -0.7178 -0.0930
 8299TIP3   OH246311   3.530   0.855  10.771 -0.1142 -0.4366 -0.0806
 8299TIP3    H146312   3.465   0.844  10.840  1.9609 -0.5707  1.8960
 8299TIP3    H246313   3.508   0.789  10.706 -3.1774  0.8573 -0.4454
 8300TIP3   OH246314   3.885   4.360   0.320  0.7043 -0.8588  0.1127
 8300TIP3    H146315   3.839   4.372   0.403  1.2089 -1.7700  0.5330
 8300TIP3    H246316   3.950   4.292   0.338  1.9489  0.1129 -0.5788
 8301TIP3   OH246317   0.296   4.373  13.771 -0.0190 -0.1614 -0.3192
 8301TIP3    H146318   0.391   4.359  13.779 -0.3085 -0.3921  3.3400
 8301TIP3    H246319   0.262   4.290  13.739  0.7307 -0.9590  0.9274
 8302TIP3   OH246320   1.761   0.120   0.294 -0.3256  0.3160  0.3393
 8302TIP3    H146321   1.804   0.035   0.303 -2.0468 -0.8316 -1.6406
 8302TIP3    H246322   1.687   0.116   0.355 -0.4787  0.3379  0.1558
 8303TIP3   OH246323   3.287   3.716   5.885 -0.2356  0.2630  0.2519
 8303TIP3    H146324   3.312   3.624   5.890 -1.8145 -0.3008 -1.5846
 8303TIP3    H246325   3.369   3.764   5.897  0.5533 -1.3663  1.4797
 8304TIP3   OH246326   0.928   5.830  11.547  0.3849  0.1008  0.2776
 8304TIP3    H146327   0.866   5.828  11.620 -1.4061  1.8240 -1.1223
 8304TIP3    H246328   1.012   5.850  11.587 -0.4439  0.3230  1.9483
 8305TIP3   OH246329   6.674   3.174  16.478  0.8997  0.6459 -0.7922
 8305TIP3    H146330   6.665   3.182  16.383  0.2888 -0.1209 -0.7973
 8305TIP3    H246331   6.643   3.258  16.512  0.4603  0.6575 -1.2287
 8306TIP3   OH246332   5.235   1.256  14.791 -0.4239  0.1206 -0.0569
 8306TIP3    H146333   5.223   1.296  14.705 -0.5866  2.5783  1.0583
 8306TIP3    H246334   5.154   1.208  14.806 -1.0028  0.8720 -0.6856
 8307TIP3   OH246335   1.665   3.908  11.210 -0.2418  0.0948  0.1709
 8307TIP3    H146336   1.684   3.835  11.268 -0.5225 -0.8377 -0.8852
 8307TIP3    H246337   1.619   3.868  11.135 -0.7481  1.4005 -0.2352
 8308TIP3   OH246338   2.329   2.637   4.349 -0.8697 -0.1632 -0.4316
 8308TIP3    H146339   2.335   2.541   4.357  2.5932 -0.0078 -0.1233
 8308TIP3    H246340   2.338   2.653   4.255  0.6665 -0.0885 -0.2911
 8309TIP3   OH246341   0.258   4.303  15.885  0.3767  0.5590 -0.4305
 8309TIP3    H146342   0.199   4.265  15.950  2.8732 -2.4861  0.1815
 8309TIP3    H246343   0.249   4.245  15.809  1.1937  1.1329 -0.9653
 8310TIP3   OH246344   5.389   5.980  12.119 -0.3548 -0.4717 -0.6983
 8310TIP3    H146345   5.422   5.892  12.140 -0.6809 -0.3699  0.2348
 8310TIP3    H246346   5.442   6.039  12.173 -0.4530 -0.1270 -0.9757
 8311TIP3   OH246347   6.611   3.764   5.134  0.3516 -0.1987 -0.7821
 8311TIP3    H146348   6.583   3.687   5.085  0.6127 -0.4469 -0.5425
 8311TIP3    H246349   6.705   3.752   5.146  0.2412 -0.2611  0.0018
 8312TIP3   OH246350   4.171   2.287   0.088  0.3386 -0.3704  0.5204
 8312TIP3    H146351   4.125   2.315   0.168  2.0628 -0.6296  1.6291
 8312TIP3    H246352   4.120   2.325   0.017 -2.7966 -2.3963  1.6058
 8313TIP3   OH246353   0.017   0.119   2.059 -0.1892 -0.3261  0.2386
 8313TIP3    H146354   0.045   0.189   2.000 -1.8877  0.7114  0.6342
 8313TIP3    H246355   0.099   0.086   2.098  0.6849  0.9277 -0.5047
 8314TIP3   OH246356   2.068   3.768  13.869 -0.3635 -0.5004 -0.5904
 8314TIP3    H146357   2.132   3.766  13.940  1.9014  1.9271 -2.4647
 8314TIP3    H246358   2.075   3.682  13.827 -1.0075 -1.5815  1.4639
 8315TIP3   OH246359   2.675   0.565   5.504  0.1862  0.4313 -0.1747
 8315TIP3    H146360   2.611   0.532   5.441  0.5154  0.3692 -0.4773
 8315TIP3    H246361   2.662   0.511   5.582 -1.1774  1.4321  0.3057
 8316TIP3   OH246362   1.846   2.677  15.706  0.9280  0.1171 -0.1023
 8316TIP3    H146363   1.766   2.706  15.750  1.1337  1.5202 -0.6193
 8316TIP3    H246364   1.916   2.726  15.749  1.4422 -0.6019 -0.1116
 8317TIP3   OH246365   6.554   6.669  12.674  0.0489  0.0810  0.3552
 8317TIP3    H146366   6.508   6.617  12.741 -1.5112  0.5955 -0.2787
 8317TIP3    H246367   6.486   6.727  12.639  1.3678  1.3778 -0.1193
 8318TIP3   OH246368   3.201   0.885  14.779  0.1449  0.2123  0.2724
 8318TIP3    H146369   3.229   0.841  14.860 -1.5764 -0.0930  0.7309
 8318TIP3    H246370   3.114   0.918  14.800 -0.7469 -0.7795 -1.7838
 8319TIP3   OH246371   1.802   3.475  16.099  0.5920  0.2000  0.1449
 8319TIP3    H146372   1.821   3.567  16.084  1.2366  0.0246 -0.1266
 8319TIP3    H246373   1.710   3.465  16.074  1.2543  0.1865 -2.4725
 8320TIP3   OH246374   0.337   5.411   3.795 -0.2662  0.4070 -0.2465
 8320TIP3    H146375   0.431   5.426   3.805 -0.2622 -1.0496  2.1113
 8320TIP3    H246376   0.331   5.322   3.760 -0.7558  0.8082 -1.1972
 8321TIP3   OH246377   1.073   4.776  17.166 -0.1136  0.2472 -0.0015
 8321TIP3    H146378   0.978   4.780  17.173 -0.0329  2.6861  0.1552
 8321TIP3    H246379   1.094   4.832  17.091  1.0864 -1.7973 -1.2301
 8322TIP3   OH246380   4.483   5.114  16.540 -0.1624  0.0946  0.3122
 8322TIP3    H146381   4.524   5.050  16.482  0.5282  0.7490  0.0578
 8322TIP3    H246382   4.441   5.177  16.481 -1.8255 -0.7377  0.5771
 8323TIP3   OH246383   1.045   2.586   2.288 -0.3915 -0.3899 -0.1092
 8323TIP3    H146384   1.012   2.649   2.352 -0.4853  0.0179 -0.5477
 8323TIP3    H246385   1.139   2.582   2.303 -0.4084 -0.2676  0.0283
 8324TIP3   OH246386   4.088   1.297  13.336  0.0268  0.5661 -0.3177
 8324TIP3    H146387   4.040   1.293  13.418 -0.8589  0.5301 -0.8311
 8324TIP3    H246388   4.151   1.225  13.341 -1.4595 -0.7717 -0.5717
 8325TIP3   OH246389   3.704   2.010   0.489  0.2425  0.6566  0.0941
 8325TIP3    H146390   3.633   1.968   0.537  1.8269 -1.7549  0.4026
 8325TIP3    H246391   3.766   2.038   0.557 -0.2519  2.5244 -0.1896
 8326TIP3   OH246392   3.717   6.371  15.995 -0.1797 -0.3164  0.6052
 8326TIP3    H146393   3.627   6.340  15.989  0.2090 -1.5374  0.8796
 8326TIP3    H246394   3.770   6.292  15.983  0.8401  0.2600  1.2889
 8327TIP3   OH246395   3.989   4.216   1.164  0.7054  0.1174 -0.0173
 8327TIP3    H146396   4.043   4.140   1.187  1.9855  1.2052  0.5819
 8327TIP3    H246397   3.913   4.209   1.223  1.1441 -0.3231  0.5017
 8328TIP3   OH246398   2.254   6.727   5.504  0.0264  0.3519 -0.3709
 8328TIP3    H146399   2.298   6.729   5.419  0.4712 -0.1307 -0.1544
 8328TIP3    H246400   2.279   6.811   5.544 -0.3697  0.6796 -0.8062
 8329TIP3   OH246401   0.238   0.843  14.312 -0.0615 -0.5590  0.8702
 8329TIP3    H146402   0.197   0.758  14.330  1.5326 -1.7009 -0.6860
 8329TIP3    H246403   0.309   0.822  14.251 -0.5859  2.1090 -0.6978
 8330TIP3   OH246404   4.557   1.707   4.488 -0.0864 -0.1230  0.0167
 8330TIP3    H146405   4.499   1.732   4.417 -1.1701 -0.0318  0.9254
 8330TIP3    H246406   4.530   1.761   4.562  1.4250  0.2147  0.3397
 8331TIP3   OH246407   5.533   5.007  12.052 -1.1292  0.2904  0.1528
 8331TIP3    H146408   5.455   5.022  11.998 -1.6798 -0.1035  0.8169
 8331TIP3    H246409   5.516   5.057  12.132 -0.7718  0.0720  0.3656
 8332TIP3   OH246410   3.182   1.453   2.761  0.0325  0.0125 -0.8639
 8332TIP3    H146411   3.270   1.441   2.797  0.5018  0.6187 -1.7907
 8332TIP3    H246412   3.163   1.370   2.717 -1.9256 -2.0790  3.5624
 8333TIP3   OH246413   6.320   6.517  11.004 -0.4512 -0.7103 -0.0406
 8333TIP3    H146414   6.224   6.508  11.004 -0.5395  0.1809  0.8210
 8333TIP3    H246415   6.341   6.541  10.913 -1.3231  1.7158  0.3616
 8334TIP3   OH246416   3.580   6.477  14.080  0.4661 -0.3352  0.2343
 8334TIP3    H146417   3.627   6.511  14.157  2.8013 -0.6559 -1.0154
 8334TIP3    H246418   3.571   6.553  14.022  2.1043 -0.9338 -0.8150
 8335TIP3   OH246419   6.558   4.935  12.164  0.5475  0.2071  0.7233
 8335TIP3    H146420   6.467   4.934  12.135  0.3205 -2.5487  1.4188
 8335TIP3    H246421   6.576   4.845  12.191  3.8555  0.3906 -0.5780
 8336TIP3   OH246422   0.591   5.118  12.020  0.4938  0.6556  0.5600
 8336TIP3    H146423   0.537   5.184  11.976  0.4072  0.0185 -0.2924
 8336TIP3    H246424   0.550   5.035  11.997  1.6675  0.1880  0.1658
 8337TIP3   OH246425   3.422   5.409   3.918  0.0521 -0.0893  0.4271
 8337TIP3    H146426   3.366   5.486   3.927 -2.3456 -1.6578 -0.5897
 8337TIP3    H246427   3.457   5.416   3.829 -1.5025 -1.0202 -0.2719
 8338TIP3   OH246428   1.381   6.000  11.815  0.0119 -0.0351 -0.2508
 8338TIP3    H146429   1.396   5.912  11.849 -0.5154  0.1237  0.4085
 8338TIP3    H246430   1.286   6.004  11.800  0.1586  0.1080 -1.1596
 8339TIP3   OH246431   6.695   1.977  14.990 -0.1700 -0.3292 -0.7240
 8339TIP3    H146432   6.716   1.885  15.004 -0.4763 -0.3993 -0.7096
 8339TIP3    H246433   6.779   2.022  14.990 -0.0178 -0.6168 -0.7830
 8340TIP3   OH246434   0.356   4.800  15.731 -0.2504 -0.2649  0.0947
 8340TIP3    H146435   0.409   4.724  15.754  1.1638  0.8929  0.7163
 8340TIP3    H246436   0.331   4.838  15.816  0.1406  0.6999 -0.2216
 8341TIP3   OH246437   1.366   5.802   3.666 -0.8921  0.0302  0.2169
 8341TIP3    H146438   1.312   5.854   3.726 -3.8010 -1.5853 -0.8705
 8341TIP3    H246439   1.377   5.718   3.711  0.9901  0.4334  0.5391
 8342TIP3   OH246440   3.272   2.807  11.866  0.5537  0.2012  0.1261
 8342TIP3    H146441   3.257   2.801  11.960  0.8619  1.1746  0.2423
 8342TIP3    H246442   3.363   2.780  11.854  0.8411  1.1110  0.2333
 8343TIP3   OH246443   3.999   3.959   1.777  0.2007 -0.0691 -0.7604
 8343TIP3    H146444   3.970   3.890   1.836  0.6506  0.2751 -0.1293
 8343TIP3    H246445   4.092   3.970   1.797  0.1121  0.7682 -0.8023
 8344TIP3   OH246446   2.639   4.555   1.920 -0.3934  0.4337  0.5962
 8344TIP3    H146447   2.709   4.502   1.883 -1.2069 -0.7309  0.7104
 8344TIP3    H246448   2.639   4.635   1.868  0.4918  0.1010  0.0794
 8345TIP3   OH246449   3.972   3.814   0.768 -0.0993 -0.2866 -0.7978
 8345TIP3    H146450   3.943   3.891   0.817  1.2976 -0.5225  0.4564
 8345TIP3    H246451   3.891   3.774   0.736 -0.8962  1.1646 -0.6476
 8346TIP3   OH246452   1.537   1.337   6.172  0.3519 -0.4209 -0.1638
 8346TIP3    H146453   1.534   1.398   6.245  0.5666  0.5675 -0.9705
 8346TIP3    H246454   1.629   1.312   6.164  0.1612 -1.4026  0.6071
 8347TIP3   OH246455   0.336   4.329   0.938  0.1527 -0.0772 -0.2785
 8347TIP3    H146456   0.289   4.251   0.966 -0.9895  0.2618 -1.2477
 8347TIP3    H246457   0.388   4.354   1.015 -2.2540  0.3126  1.2819
 8348TIP3   OH246458   2.284   2.125  16.846 -0.2377 -0.1162 -0.3503
 8348TIP3    H146459   2.370   2.104  16.882 -0.2292  2.4137  1.2104
 8348TIP3    H246460   2.222   2.097  16.913 -0.6026 -1.1867 -1.1226
 8349TIP3   OH246461   0.262   5.832   1.350  0.2201  0.6041 -0.7022
 8349TIP3    H146462   0.320   5.769   1.391 -0.6807  0.1945 -0.0304
 8349TIP3    H246463   0.257   5.806   1.258  0.1195 -0.1032 -0.4950
 8350TIP3   OH246464   3.143   2.021   2.757  0.6358  0.2778 -0.3985
 8350TIP3    H146465   3.086   1.958   2.713  2.3532  0.0677 -2.3542
 8350TIP3    H246466   3.099   2.106   2.745 -1.0385 -0.3321  1.1609
 8351TIP3   OH246467   6.576   6.400  12.250  0.0049 -0.2296 -0.2348
 8351TIP3    H146468   6.608   6.457  12.179 -1.2498  2.4667  1.2958
 8351TIP3    H246469   6.613   6.438  12.329  0.9829 -2.9434  0.6702
 8352TIP3   OH246470   1.870   4.774   1.295 -0.2078 -0.0068 -0.6126
 8352TIP3    H146471   1.781   4.807   1.280 -0.7291 -0.8491  0.6115
 8352TIP3    H246472   1.913   4.783   1.209 -0.7316  2.5765 -0.6525
 8353TIP3   OH246473   2.676   3.561   5.984 -0.3842 -0.0658  0.3214
 8353TIP3    H146474   2.705   3.515   6.062 -0.6218  0.1473  0.5341
 8353TIP3    H246475   2.668   3.493   5.918 -1.2111 -0.4064  0.7702
 8354TIP3   OH246476   0.286   3.759  14.030 -0.5452  0.5798  0.1758
 8354TIP3    H146477   0.305   3.809  13.951 -1.9307  0.5971 -0.1611
 8354TIP3    H246478   0.273   3.826  14.097 -2.0242  0.6798 -0.1921
 8355TIP3   OH246479   0.616   2.681   0.900 -0.5150 -0.0517  0.1157
 8355TIP3    H146480   0.524   2.680   0.926 -1.0322 -0.5083 -1.6997
 8355TIP3    H246481   0.615   2.659   0.807  1.3334  1.0776 -0.1966
 8356TIP3   OH246482   0.342   1.396   1.400  0.2550  0.2322  0.0462
 8356TIP3    H146483   0.260   1.429   1.363 -1.4423 -2.0289  1.6636
 8356TIP3    H246484   0.378   1.470   1.449 -0.8750  1.2008 -0.5631
 8357TIP3   OH246485   5.756   1.640  15.320 -0.4292 -0.1111 -0.6326
 8357TIP3    H146486   5.743   1.642  15.414 -0.5356 -0.0652 -0.6485
 8357TIP3    H246487   5.843   1.678  15.307 -0.1208 -0.7539 -0.4968
 8358TIP3   OH246488   1.415   0.890   1.374  0.3098  0.1053 -0.2239
 8358TIP3    H146489   1.500   0.923   1.406  0.1146  0.1907  0.2207
 8358TIP3    H246490   1.424   0.887   1.279  0.8908 -0.0989 -0.1648
 8359TIP3   OH246491   6.036   3.057  10.730 -0.2161  0.2394 -0.0970
 8359TIP3    H146492   6.054   2.968  10.761  0.4134  0.5018  0.3071
 8359TIP3    H246493   5.958   3.048  10.675  0.4119 -0.7133 -0.8413
 8360TIP3   OH246494   6.642   5.340  14.360  0.4036  0.2314 -0.3016
 8360TIP3    H146495   6.632   5.246  14.345  1.7170 -0.2124  1.3792
 8360TIP3    H246496   6.553   5.375  14.358 -0.1171 -1.0798 -0.6935
 8361TIP3   OH246497   0.240   3.205  12.326  0.1255 -0.1486  0.0568
 8361TIP3    H146498   0.181   3.189  12.399  1.6891 -0.6586  1.2307
 8361TIP3    H246499   0.243   3.121  12.279  0.3914 -0.3061  0.3542
 8362TIP3   OH246500   4.677   5.175  14.119  0.1290 -0.3940  0.0285
 8362TIP3    H146501   4.650   5.101  14.064 -1.3507  0.7080 -0.7601
 8362TIP3    H246502   4.640   5.154  14.205  0.0722 -0.7773 -0.0839
 8363TIP3   OH246503   6.148   6.391  14.303  0.0697 -0.3034  0.7298
 8363TIP3    H146504   6.113   6.466  14.351 -0.6391 -0.0850 -0.1121
 8363TIP3    H246505   6.164   6.325  14.371 -0.2731  0.2435  1.3504
 8364TIP3   OH246506   0.754   4.368  13.024 -0.2295 -0.4514  0.0574
 8364TIP3    H146507   0.687   4.303  13.006 -0.1799 -0.4327 -0.1975
 8364TIP3    H246508   0.835   4.318  13.035 -0.1060 -0.3973 -0.5948
 8365TIP3   OH246509   2.244   2.932   0.593  0.6134 -0.2243  0.4795
 8365TIP3    H146510   2.158   2.926   0.635  0.3040 -0.6930 -0.2110
 8365TIP3    H246511   2.267   3.025   0.599 -0.3102  0.0434 -0.0528
 8366TIP3   OH246512   0.746   0.301   3.883  0.7014 -0.2759  0.2584
 8366TIP3    H146513   0.680   0.331   3.946  0.5083 -1.1800  0.5026
 8366TIP3    H246514   0.794   0.379   3.859 -1.1984  0.6150 -0.7825
 8367TIP3   OH246515   2.955   2.022   3.347  0.1090 -0.0695 -0.4194
 8367TIP3    H146516   2.983   2.097   3.399  3.7125 -0.0347 -2.2245
 8367TIP3    H246517   3.017   1.953   3.370 -1.7119 -1.7784 -0.5463
 8368TIP3   OH246518   2.804   4.416  14.822  0.8387 -0.3183 -0.6012
 8368TIP3    H146519   2.758   4.439  14.903 -2.0731  1.5492 -2.6899
 8368TIP3    H246520   2.820   4.322  14.830 -1.9174 -0.7317  0.9704
 8369TIP3   OH246521   3.003   3.177  14.339 -0.3003  0.3034  0.3415
 8369TIP3    H146522   2.988   3.168  14.433  0.0336  0.0060  0.3642
 8369TIP3    H246523   2.917   3.160  14.299 -0.0890 -1.1336  0.4895
 8370TIP3   OH246524   3.375   4.882   4.259 -0.1457 -0.6643  0.0372
 8370TIP3    H146525   3.471   4.879   4.258 -0.1503 -1.2897  0.7528
 8370TIP3    H246526   3.354   4.975   4.255  0.4810 -0.5499 -0.7331
 8371TIP3   OH246527   4.755   3.051   1.109  0.2308  0.2004  0.0691
 8371TIP3    H146528   4.682   2.989   1.102 -0.8267  1.2984  1.1623
 8371TIP3    H246529   4.715   3.137   1.099  1.1768  0.8924  2.0040
 8372TIP3   OH246530   1.800   5.808  10.463  0.1031  0.0650 -0.5595
 8372TIP3    H146531   1.827   5.735  10.407  2.6217  0.8163 -0.3749
 8372TIP3    H246532   1.880   5.858  10.478 -1.0977  1.4898  1.3603
 8373TIP3   OH246533   0.877   4.369  16.252  0.3706 -0.0186  0.0782
 8373TIP3    H146534   0.824   4.396  16.177 -1.3986  0.5855  1.5294
 8373TIP3    H246535   0.910   4.452  16.289 -1.7559 -0.0534  2.1241
 8374TIP3   OH246536   5.572   2.578   2.871 -0.4343 -0.0481  0.4589
 8374TIP3    H146537   5.571   2.527   2.952  0.0699 -1.3207 -0.3048
 8374TIP3    H246538   5.544   2.515   2.803 -2.3123  1.3906 -0.1464
 8375TIP3   OH246539   6.650   3.863   0.610  0.5369 -0.2776  0.1572
 8375TIP3    H146540   6.557   3.859   0.633  0.9914  0.5501  2.2758
 8375TIP3    H246541   6.653   3.923   0.536 -0.5853 -0.0956  0.2385
 8376TIP3   OH246542   2.176   5.380  12.344  0.5244  0.3058 -0.3393
 8376TIP3    H146543   2.199   5.452  12.403 -1.2331 -0.4384  1.2778
 8376TIP3    H246544   2.253   5.322  12.346  1.1029  1.0727 -0.0287
 8377TIP3   OH246545   0.461   5.455  14.305  0.2486  0.5814 -0.1225
 8377TIP3    H146546   0.435   5.466  14.396 -0.4533  1.0372 -0.3687
 8377TIP3    H246547   0.421   5.372  14.278  1.3961 -0.1229  0.3039
 8378TIP3   OH246548   0.752   4.933  17.154  0.2005  0.1814 -0.3608
 8378TIP3    H146549   0.716   5.020  17.173  1.1617  0.6571 -0.6912
 8378TIP3    H246550   0.802   4.910  17.232  0.6830  0.3224 -0.6196
 8379TIP3   OH246551   3.820   1.454  14.523 -0.2621  0.1315 -0.4977
 8379TIP3    H146552   3.893   1.484  14.576 -0.7063  0.9796 -0.3508
 8379TIP3    H246553   3.849   1.371  14.486 -0.0925 -0.6879  1.4042
 8380TIP3   OH246554   4.615   0.726   3.314 -0.3142 -0.8383  0.6070
 8380TIP3    H146555   4.550   0.780   3.269  0.7956 -1.3003 -1.6168
 8380TIP3    H246556   4.660   0.679   3.244  4.3997  1.6105  1.7454
 8381TIP3   OH246557   1.660   6.052   0.443 -0.1942  0.1627  0.2041
 8381TIP3    H146558   1.746   6.090   0.457 -0.5893  1.0793  0.2040
 8381TIP3    H246559   1.676   5.975   0.387  0.8090 -0.7003  1.6451
 8382TIP3   OH246560   2.484   2.000  16.175  0.2728 -0.0458  0.6206
 8382TIP3    H146561   2.505   2.052  16.253 -1.7412  0.2109  1.0266
 8382TIP3    H246562   2.486   2.062  16.103 -0.0097  0.1588  0.7900
 8383TIP3   OH246563   6.123   3.061  14.756 -0.3365  0.1307 -0.1994
 8383TIP3    H146564   6.180   3.032  14.827 -0.1360  1.3674  0.1587
 8383TIP3    H246565   6.035   3.033  14.782  0.0284 -1.4051 -0.5513
 8384TIP3   OH246566   0.578   5.818  13.242 -0.7539 -0.3990 -0.3029
 8384TIP3    H146567   0.524   5.755  13.290 -1.1994  1.6843  2.0263
 8384TIP3    H246568   0.659   5.771  13.224 -0.0668 -0.9082  3.6343
 8385TIP3   OH246569   3.317   6.396   1.911  0.2652 -0.2797  0.1201
 8385TIP3    H146570   3.325   6.324   1.849  0.1777  0.0406 -0.2616
 8385TIP3    H246571   3.288   6.470   1.859 -0.6112 -0.2170  0.6802
 8386TIP3   OH246572   4.904   6.299   4.756 -0.0330 -0.3184  0.6011
 8386TIP3    H146573   4.914   6.364   4.686  0.9354 -0.7456  0.3317
 8386TIP3    H246574   4.896   6.351   4.836 -1.0826  0.1757  0.1814
 8387TIP3   OH246575   0.922   4.903   4.451 -0.1788  0.5020 -0.1068
 8387TIP3    H146576   0.887   4.831   4.399 -1.5259  0.3523  1.0018
 8387TIP3    H246577   0.846   4.946   4.489  0.7055  1.4836  0.6047
 8388TIP3   OH246578   1.987   3.084  12.994  0.2478  0.3587  0.1556
 8388TIP3    H146579   2.024   3.166  13.027 -0.8334  0.3267  1.4780
 8388TIP3    H246580   1.892   3.096  13.000  0.0667 -0.3657 -1.2016
 8389TIP3   OH246581   0.940   3.571  15.631 -0.1415 -0.2853 -0.0000
 8389TIP3    H146582   0.936   3.623  15.712  0.5954 -1.4698  0.8134
 8389TIP3    H246583   1.010   3.508  15.647  0.6467  0.0570 -1.9230
 8390TIP3   OH246584   5.888   0.911  16.590 -0.2038 -0.0640 -0.1736
 8390TIP3    H146585   5.843   0.883  16.669  0.7366  0.4028  0.5413
 8390TIP3    H246586   5.959   0.848  16.579  1.3462  1.4194  0.9209
 8391TIP3   OH246587   1.684   0.372  16.113 -0.3335 -0.3958  0.1066
 8391TIP3    H146588   1.604   0.415  16.084  1.5374  3.2569  0.0852
 8391TIP3    H246589   1.685   0.384  16.208  0.1935 -0.4455  0.1097
 8392TIP3   OH246590   0.383   3.417  16.529  0.4828 -0.0856 -0.2330
 8392TIP3    H146591   0.389   3.511  16.542 -2.5753 -0.0231  1.1109
 8392TIP3    H246592   0.424   3.380  16.607 -0.3769  0.1579  0.3368
 8393TIP3   OH246593   2.233   1.780  14.948 -0.5844 -0.1592 -0.4969
 8393TIP3    H146594   2.280   1.698  14.932  0.7827  0.7106 -1.0225
 8393TIP3    H246595   2.273   1.843  14.888 -1.8943  0.8084 -0.3910
 8394TIP3   OH246596   6.696   3.708   4.118 -0.7371 -0.1450 -0.0339
 8394TIP3    H146597   6.782   3.673   4.141 -1.6628 -1.2848  1.7772
 8394TIP3    H246598   6.689   3.695   4.023  2.0277  2.0963 -0.6146
 8395TIP3   OH246599   4.844   1.085  14.047 -0.4925  0.8041  0.0883
 8395TIP3    H146600   4.764   1.049  14.084  0.3559 -0.3707  0.8419
 8395TIP3    H246601   4.857   1.036  13.966  0.7202 -0.7144  1.1673
 8396TIP3   OH246602   5.684   2.349  12.641  0.2184 -0.3122 -0.7242
 8396TIP3    H146603   5.641   2.349  12.727 -0.2252  0.8485 -0.9383
 8396TIP3    H246604   5.658   2.432  12.601  1.7449 -0.0877 -1.3117
 8397TIP3   OH246605   6.709   4.799  15.208 -0.0770 -0.6313  0.2475
 8397TIP3    H146606   6.648   4.862  15.248  1.2497  2.1166 -1.8504
 8397TIP3    H246607   6.657   4.721  15.193 -2.6190  0.9980  0.2374
 8398TIP3   OH246608   4.315   2.127  16.050 -0.6519 -0.4851  0.3800
 8398TIP3    H146609   4.262   2.091  16.121 -2.1943 -1.8067 -1.4159
 8398TIP3    H246610   4.370   2.193  16.093 -1.8348 -0.9725  2.7256
 8399TIP3   OH246611   0.721   5.720  16.162 -0.4554 -0.4132 -0.5684
 8399TIP3    H146612   0.701   5.783  16.093  0.7470  0.6028 -0.0125
 8399TIP3    H246613   0.776   5.654  16.119 -1.1286 -0.7229 -0.9747
 8400TIP3   OH246614   5.593   2.125  13.390 -0.1640 -0.0592 -0.1930
 8400TIP3    H146615   5.518   2.166  13.433 -0.1365  2.2495 -2.2348
 8400TIP3    H246616   5.574   2.032  13.394 -2.9590  0.4411 -0.2671
 8401TIP3   OH246617   4.316   5.879   4.141 -0.4334  0.0068 -0.3469
 8401TIP3    H146618   4.291   5.787   4.154 -0.1374  0.0262  0.4021
 8401TIP3    H246619   4.278   5.902   4.057 -0.7406 -0.7282 -0.4191
 8402TIP3   OH246620   1.772   3.124   3.567 -0.2180  0.4503  0.0918
 8402TIP3    H146621   1.721   3.045   3.587  1.7188 -1.3897 -1.9698
 8402TIP3    H246622   1.727   3.163   3.493 -0.0786  0.1999 -0.1276
 8403TIP3   OH246623   3.601   5.753  15.210 -0.3962 -0.2316 -0.7111
 8403TIP3    H146624   3.521   5.701  15.216 -0.2274 -0.7261 -2.6918
 8403TIP3    H246625   3.577   5.828  15.156  0.1999  0.1560 -0.4359
 8404TIP3   OH246626   4.217   5.940   0.124  0.4683 -0.5806 -0.1982
 8404TIP3    H146627   4.200   5.889   0.044  1.6845  2.3432 -2.4143
 8404TIP3    H246628   4.312   5.955   0.123  0.3829  0.1988  1.3698
 8405TIP3   OH246629   2.054   3.327   4.872  0.1152 -0.5371  0.2042
 8405TIP3    H146630   2.060   3.409   4.823 -0.4928  0.0059  1.0124
 8405TIP3    H246631   1.961   3.309   4.878 -0.0906  1.1907  3.9734
 8406TIP3   OH246632   4.233   0.657  15.195  0.1041 -0.2859 -0.0701
 8406TIP3    H146633   4.275   0.691  15.273 -1.6444  2.6949 -0.3456
 8406TIP3    H246634   4.212   0.735  15.143 -1.0551 -2.0306 -2.3014
 8407TIP3   OH246635   2.675   1.938  10.991 -0.1353  0.2891 -0.5364
 8407TIP3    H146636   2.621   2.005  10.950 -0.7788 -1.2397 -2.2944
 8407TIP3    H246637   2.647   1.937  11.083 -0.1839  2.3126 -0.5173
 8408TIP3   OH246638   2.852   0.793  13.220 -0.2235 -0.3690  0.2914
 8408TIP3    H146639   2.770   0.744  13.228 -0.0667 -0.5627  0.7296
 8408TIP3    H246640   2.919   0.735  13.257  0.0611 -0.0752  0.2451
 8409TIP3   OH246641   1.953   2.263   1.799 -0.4044 -0.4049 -0.7288
 8409TIP3    H146642   2.002   2.341   1.774  0.7007 -1.2880 -1.4042
 8409TIP3    H246643   1.863   2.292   1.808  0.1094  1.0837 -0.3199
 8410TIP3   OH246644   6.256   3.925  11.537 -0.1197  0.4894 -0.4803
 8410TIP3    H146645   6.219   3.952  11.453  1.6063  1.0761 -1.0822
 8410TIP3    H246646   6.301   4.004  11.569 -1.2663  0.4430  1.2781
 8411TIP3   OH246647   0.237   0.442   1.547 -0.5448 -0.2896 -0.3839
 8411TIP3    H146648   0.159   0.485   1.511 -0.5565 -0.1409 -0.1796
 8411TIP3    H246649   0.233   0.459   1.641  0.0480  0.2291 -0.4451
 8412TIP3   OH246650   6.488   1.384  16.086 -0.0616 -0.6399 -0.0154
 8412TIP3    H146651   6.569   1.435  16.092 -0.7245  0.3150  1.0912
 8412TIP3    H246652   6.470   1.356  16.176 -1.7503  0.4529  0.0199
 8413TIP3   OH246653   3.701   2.688  10.418  0.4230 -0.2292  0.0465
 8413TIP3    H146654   3.633   2.622  10.436 -0.6537  0.7385 -0.4137
 8413TIP3    H246655   3.673   2.728  10.335  1.0085  0.8970  0.3981
 8414TIP3   OH246656   4.598   5.983   3.533 -0.1762  0.5970  0.2322
 8414TIP3    H146657   4.578   5.891   3.548  0.5157  0.6528  1.6346
 8414TIP3    H246658   4.512   6.026   3.530 -0.6142 -0.3731 -2.6666
 8415TIP3   OH246659   0.486   0.313   5.669  0.1381 -0.7154  0.0520
 8415TIP3    H146660   0.393   0.294   5.659 -1.2237  3.8687  2.4885
 8415TIP3    H246661   0.503   0.303   5.763  1.0685  2.2712  0.2669
 8416TIP3   OH246662   3.465   4.290  11.917  0.2285  0.4124  0.1314
 8416TIP3    H146663   3.374   4.271  11.940 -0.0709  0.1816 -1.1873
 8416TIP3    H246664   3.515   4.215  11.952 -0.2187  0.0315 -0.0361
 8417TIP3   OH246665   1.773   4.959  12.167 -0.7419  0.3623  0.3437
 8417TIP3    H146666   1.806   4.958  12.078  1.6752  0.4611  1.2200
 8417TIP3    H246667   1.847   4.933  12.221 -2.0582  0.7018  2.3739
 8418TIP3   OH246668   2.248   5.078   3.111 -0.2148 -0.7135 -0.7068
 8418TIP3    H146669   2.242   4.993   3.069  0.0369 -0.8552 -0.4522
 8418TIP3    H246670   2.315   5.125   3.061  0.2447 -0.9598 -0.3330
 8419TIP3   OH246671   5.309   1.487  12.480 -0.1493  0.1292  0.4131
 8419TIP3    H146672   5.371   1.502  12.552 -0.9260 -0.6385  1.2452
 8419TIP3    H246673   5.249   1.562  12.484  0.5003  0.6996 -0.1852
 8420TIP3   OH246674   2.923   2.782  16.314 -0.4168 -0.8130  0.5039
 8420TIP3    H146675   2.979   2.799  16.390 -0.3276 -0.2054  0.2978
 8420TIP3    H246676   2.911   2.867  16.273 -1.7387 -0.8920  0.7140
 8421TIP3   OH246677   6.271   2.555  15.191 -0.6719  0.9329  0.7206
 8421TIP3    H146678   6.337   2.533  15.257  1.9250 -0.1487 -2.1442
 8421TIP3    H246679   6.206   2.485  15.199  1.3752 -1.1233 -0.1179
 8422TIP3   OH246680   6.007   1.231  16.192 -0.1584  0.1958  0.5191
 8422TIP3    H146681   5.918   1.201  16.212  0.5223 -0.6808  2.3692
 8422TIP3    H246682   6.062   1.153  16.205  1.1642  1.2883  1.6143
 8423TIP3   OH246683   0.817   2.234  17.220 -0.0768  0.4204  0.4602
 8423TIP3    H146684   0.861   2.161  17.175 -0.2102  0.1533  0.7587
 8423TIP3    H246685   0.796   2.296  17.150 -0.6555 -0.1850  0.0904
 8424TIP3   OH246686   5.522   5.451  13.898  0.2435 -0.3813  0.3974
 8424TIP3    H146687   5.544   5.407  13.816  0.1207  0.2640  0.0183
 8424TIP3    H246688   5.576   5.408  13.964  1.6634  0.3075 -0.3173
 8425TIP3   OH246689   1.490   4.984  16.404  0.2144 -0.1589 -0.4624
 8425TIP3    H146690   1.551   5.023  16.466  0.0217 -0.6553  0.0429
 8425TIP3    H246691   1.405   4.986  16.450 -0.0962  0.2446 -1.0362
 8426TIP3   OH246692   2.589   0.399  12.395  0.1884 -0.1263 -0.1537
 8426TIP3    H146693   2.550   0.331  12.339 -0.9881 -0.3620  0.9373
 8426TIP3    H246694   2.589   0.361  12.482  0.5165  0.8675  0.2824
 8427TIP3   OH246695   5.099   5.039   2.001 -0.3731  0.2466  0.2786
 8427TIP3    H146696   5.111   4.950   2.034 -1.4303 -0.9149 -2.3252
 8427TIP3    H246697   5.172   5.052   1.940 -1.1658  0.4985 -0.6333
 8428TIP3   OH246698   2.404   3.892  14.433  0.3544  0.1189 -0.3460
 8428TIP3    H146699   2.381   3.984  14.426 -0.9731  0.1017  2.8006
 8428TIP3    H246700   2.360   3.851  14.359 -0.4754  1.7714 -0.7949
 8429TIP3   OH246701   0.398   3.753   4.584 -0.4026  0.4814  0.2064
 8429TIP3    H146702   0.416   3.841   4.551 -0.1347  0.2544 -0.2586
 8429TIP3    H246703   0.386   3.765   4.678 -1.2033  1.1421  0.0301
 8430TIP3   OH246704   5.185   4.722  11.059 -0.0143 -0.6118 -0.7733
 8430TIP3    H146705   5.186   4.759  11.147 -2.1894  0.4123 -1.1293
 8430TIP3    H246706   5.159   4.631  11.072  2.0801 -1.1520 -0.1792
 8431TIP3   OH246707   3.159   4.234   2.859  0.0640 -0.1518 -0.5795
 8431TIP3    H146708   3.238   4.233   2.913  0.7858 -1.9073 -1.6376
 8431TIP3    H246709   3.123   4.146   2.867 -1.0851  0.2601 -1.1317
 8432TIP3   OH246710   0.295   2.343   4.429  0.1693  0.3615 -0.3714
 8432TIP3    H146711   0.324   2.411   4.367  0.4251 -1.4336 -2.2840
 8432TIP3    H246712   0.211   2.314   4.394  1.2386 -2.0373 -1.0224
 8433TIP3   OH246713   1.007   1.875   0.692  0.5295  0.3502  0.2045
 8433TIP3    H146714   0.923   1.918   0.704  1.1005  0.9459  2.3609
 8433TIP3    H246715   0.991   1.784   0.715  0.9414  0.9000  2.7827
 8434TIP3   OH246716   1.083   5.930  17.181 -0.2812  0.3261 -0.1482
 8434TIP3    H146717   1.093   6.025  17.186  1.0670  0.1748  0.3214
 8434TIP3    H246718   1.105   5.909  17.090  0.5140  0.3479  0.0380
 8435TIP3   OH246719   2.392   3.249   1.212 -0.0978  0.4359  0.4676
 8435TIP3    H146720   2.344   3.326   1.182  1.1068  0.1031 -2.4411
 8435TIP3    H246721   2.484   3.276   1.209  0.3369 -1.1446 -0.7262
 8436TIP3   OH246722   0.208   2.207   6.560  0.5546  0.1492 -0.5888
 8436TIP3    H146723   0.285   2.151   6.573 -1.0531 -1.7737  0.9978
 8436TIP3    H246724   0.218   2.277   6.623  1.4217  0.3858 -0.9819
 8437TIP3   OH246725   2.673   3.645  16.390  0.2584  0.1796 -0.2211
 8437TIP3    H146726   2.719   3.691  16.320  1.4798  0.9519  1.0703
 8437TIP3    H246727   2.730   3.654  16.466 -0.8971 -0.9317  0.8009
 8438TIP3   OH246728   5.309   5.907  13.793  0.0474 -0.1033 -0.1407
 8438TIP3    H146729   5.381   5.843  13.799  1.3731  1.3537 -0.1227
 8438TIP3    H246730   5.266   5.886  13.710 -0.0145 -1.5099  0.2367
 8439TIP3   OH246731   1.739   6.148  11.575 -0.3220 -0.1176  0.2009
 8439TIP3    H146732   1.774   6.131  11.663  0.6179  0.6367 -0.0158
 8439TIP3    H246733   1.649   6.177  11.591  0.6096  2.4048  1.1041
 8440TIP3   OH246734   3.610   6.063   1.201 -1.0976 -0.5543 -0.2022
 8440TIP3    H146735   3.679   6.087   1.138 -0.6129  0.5456  0.7296
 8440TIP3    H246736   3.622   5.969   1.213  1.8064 -0.0084  1.7327
 8441TIP3   OH246737   3.717   1.464  12.755 -0.2229 -0.6806  0.0192
 8441TIP3    H146738   3.697   1.461  12.661  2.9181  0.1636 -0.7243
 8441TIP3    H246739   3.753   1.551  12.769 -0.5303 -0.8558  1.9945
 8442TIP3   OH246740   3.465   0.558  10.862 -0.2599 -0.3943 -0.0106
 8442TIP3    H146741   3.506   0.636  10.899  1.4626 -1.3233  0.0695
 8442TIP3    H246742   3.374   0.563  10.892  0.6446 -0.1910  2.8883
 8443TIP3   OH246743   1.451   4.986  15.074  0.1543 -0.1031 -0.3491
 8443TIP3    H146744   1.486   4.901  15.101 -0.7548 -0.9029 -1.6178
 8443TIP3    H246745   1.401   5.016  15.149 -0.9757 -1.5192 -0.5136
 8444TIP3   OH246746   0.568   3.191   1.997 -0.1991 -0.0194  0.5307
 8444TIP3    H146747   0.607   3.105   1.980 -0.8055 -0.1861 -0.0341
 8444TIP3    H246748   0.593   3.244   1.921 -2.4622 -0.6079 -0.6667
 8445TIP3   OH246749   6.668   2.322  11.189  0.4291 -0.3369  0.0862
 8445TIP3    H146750   6.739   2.306  11.250  0.7744  0.4548 -0.1081
 8445TIP3    H246751   6.699   2.286  11.106  0.0857 -1.1317  0.2933
 8446TIP3   OH246752   4.398   3.097  11.070  0.4592  0.2753  0.1231
 8446TIP3    H146753   4.476   3.049  11.040 -1.0979 -2.2850 -0.0211
 8446TIP3    H246754   4.367   3.144  10.993  1.7628  1.2130  0.1531
 8447TIP3   OH246755   3.440   1.787  15.088  0.1803 -0.2422  0.5032
 8447TIP3    H146756   3.398   1.866  15.054 -1.2197 -1.1123  0.1816
 8447TIP3    H246757   3.415   1.785  15.180  2.9263  1.4316  1.3354
 8448TIP3   OH246758   2.716   0.783   5.670  0.2978  0.1957 -0.5854
 8448TIP3    H146759   2.687   0.721   5.602 -1.1853 -0.1082  0.3086
 8448TIP3    H246760   2.757   0.727   5.737  1.7150  0.4918 -1.1712
 8449TIP3   OH246761   6.047   1.302   0.904 -0.4502 -0.4732  0.1068
 8449TIP3    H146762   5.959   1.269   0.922 -0.1529 -0.8991  0.8236
 8449TIP3    H246763   6.104   1.246   0.957  0.1573  0.4958  0.4748
 8450TIP3   OH246764   5.761   5.493   2.133 -0.2114  0.0199  0.2091
 8450TIP3    H146765   5.740   5.419   2.075 -0.7918  1.7787 -1.9013
 8450TIP3    H246766   5.831   5.460   2.189  1.4872 -1.2855 -2.5630
 8451TIP3   OH246767   5.438   4.829   3.334 -0.4557  0.2077 -0.0669
 8451TIP3    H146768   5.504   4.864   3.394  0.4733 -0.7762 -0.4910
 8451TIP3    H246769   5.393   4.761   3.384 -1.0681  0.7863  0.1780
 8452TIP3   OH246770   6.763   0.507  12.735  0.2583  0.2987 -0.1613
 8452TIP3    H146771   6.758   0.603  12.731  0.5582  0.3775  1.1171
 8452TIP3    H246772   6.724   0.485  12.820 -1.8920 -0.8846 -1.4139
 8453TIP3   OH246773   5.789   0.767  16.324 -0.5890  0.9800  0.1396
 8453TIP3    H146774   5.807   0.806  16.410 -0.5738  0.4926  0.3552
 8453TIP3    H246775   5.724   0.700  16.341 -1.1142  1.3642 -0.3430
 8454TIP3   OH246776   1.386   4.945  11.271 -0.0620  0.3456  0.2259
 8454TIP3    H146777   1.341   5.023  11.240 -1.4961 -0.8466 -0.7973
 8454TIP3    H246778   1.331   4.912  11.342 -0.4881 -0.7678 -0.6071
 8455TIP3   OH246779   0.015   3.893  14.270 -0.2530 -0.3082 -0.2456
 8455TIP3    H146780  -0.023   3.900  14.357  0.5102  0.4920  0.0278
 8455TIP3    H246781   0.109   3.882  14.285 -0.3197 -2.0013 -0.9189
 8456TIP3   OH246782   2.876   1.347   3.522 -0.3607 -0.1954 -0.5114
 8456TIP3    H146783   2.952   1.289   3.521 -1.0209 -1.0635 -1.4345
 8456TIP3    H246784   2.848   1.348   3.613  1.0147  0.4748 -0.0825
 8457TIP3   OH246785   2.164   0.308  11.460  0.4656  0.2714  0.3807
 8457TIP3    H146786   2.119   0.362  11.395  1.9478  0.3285 -0.6141
 8457TIP3    H246787   2.156   0.357  11.542 -1.9593 -0.0912  0.4170
 8458TIP3   OH246788   3.475   6.322  11.787 -0.1637 -0.1174 -0.6531
 8458TIP3    H146789   3.492   6.368  11.869  0.3035 -0.3115 -0.6411
 8458TIP3    H246790   3.519   6.238  11.797  0.0882 -0.0523 -1.1953
 8459TIP3   OH246791   2.035   5.261  13.762  0.6611 -0.1598  0.0397
 8459TIP3    H146792   2.067   5.197  13.699  1.0555 -0.6968  0.7677
 8459TIP3    H246793   1.952   5.226  13.793  0.3290  0.2461 -0.3956
 8460TIP3   OH246794   1.208   4.604  16.418 -0.0128 -0.1028 -0.6898
 8460TIP3    H146795   1.203   4.679  16.359  1.7830  0.3628 -0.2926
 8460TIP3    H246796   1.202   4.528  16.360 -0.5164  0.3498 -1.2341
 8461TIP3   OH246797   4.684   5.328   2.176 -0.2414 -0.6142  0.9142
 8461TIP3    H146798   4.754   5.269   2.202  1.2458  0.5401 -0.3631
 8461TIP3    H246799   4.658   5.296   2.089  0.4560  0.4716  0.2917
 8462TIP3   OH246800   1.371   5.780  16.711 -0.6628  0.6320 -0.3364
 8462TIP3    H146801   1.374   5.777  16.615 -0.6511  0.1368 -0.3204
 8462TIP3    H246802   1.381   5.873  16.732 -0.8034  0.7590 -0.8202
 8463TIP3   OH246803   5.135   2.088   2.133  0.1867  0.1346  0.1165
 8463TIP3    H146804   5.056   2.039   2.155 -0.0211  0.8963  1.1076
 8463TIP3    H246805   5.188   2.085   2.213  1.0785 -0.2067 -0.4775
 8464TIP3   OH246806   4.640   0.070  17.113 -0.3146 -0.3597 -0.1467
 8464TIP3    H146807   4.551   0.097  17.089 -0.7491 -0.6471  1.0762
 8464TIP3    H246808   4.695   0.104  17.043 -1.3305  0.2725 -0.6545
 8465TIP3   OH246809   3.728   4.469   0.550 -0.1774  0.1854 -0.5452
 8465TIP3    H146810   3.738   4.561   0.577  0.6213  0.5114 -1.9148
 8465TIP3    H246811   3.637   4.463   0.520 -0.5452  0.2524  0.5168
 8466TIP3   OH246812   1.804   5.843  12.150 -0.2415 -0.6599 -0.0150
 8466TIP3    H146813   1.867   5.773  12.165  0.8696  0.1544 -0.7104
 8466TIP3    H246814   1.719   5.806  12.174  0.4297 -1.9756  0.3588
 8467TIP3   OH246815   4.302   6.630  13.314  0.3236 -0.4483  0.0750
 8467TIP3    H146816   4.364   6.576  13.362  0.7756 -0.9253 -1.0147
 8467TIP3    H246817   4.288   6.582  13.232 -0.3584  0.3882 -0.3066
 8468TIP3   OH246818   5.970   6.594  10.981  0.0951  1.0829  0.5046
 8468TIP3    H146819   5.901   6.554  10.927 -0.2606  1.0063  1.0109
 8468TIP3    H246820   5.926   6.618  11.062  0.7847  0.5085  1.0647
 8469TIP3   OH246821   6.658   4.324  14.803 -0.0575 -0.3339  0.3305
 8469TIP3    H146822   6.591   4.258  14.788 -2.3713  1.8350  0.7444
 8469TIP3    H246823   6.643   4.390  14.735  1.8416  0.0627  0.2663
 8470TIP3   OH246824   5.225   4.979   2.796  0.5594 -0.0055 -0.0048
 8470TIP3    H146825   5.312   4.978   2.835  0.8779  0.1345 -0.7061
 8470TIP3    H246826   5.196   4.888   2.799  0.0081  0.2136  1.8151
 8471TIP3   OH246827   3.857   5.738   0.163  0.4762  0.0117  0.3813
 8471TIP3    H146828   3.823   5.824   0.137  0.2926  0.2665  1.4254
 8471TIP3    H246829   3.854   5.686   0.083 -0.6570  0.5816  0.0341
 8472TIP3   OH246830   2.014   1.634  15.507 -0.4491 -0.3065 -0.0623
 8472TIP3    H146831   1.986   1.654  15.596  0.8956  0.8062  0.1179
 8472TIP3    H246832   1.941   1.583  15.470 -0.9723 -0.8373  1.6772
 8473TIP3   OH246833   2.884   4.926   5.567 -0.4222  0.3442 -0.2038
 8473TIP3    H146834   2.915   4.950   5.654  0.5591 -1.6632  0.0204
 8473TIP3    H246835   2.825   4.997   5.542  0.5544  1.7559  1.4061
 8474TIP3   OH246836   5.280   4.598  11.969 -1.0294  0.1455  0.1856
 8474TIP3    H146837   5.307   4.567  11.883 -2.4685 -1.9843  0.4746
 8474TIP3    H246838   5.351   4.657  11.996  0.8069 -1.3515 -1.2219
 8475TIP3   OH246839   1.541   1.224  13.598  0.1400 -0.1436 -0.1838
 8475TIP3    H146840   1.452   1.258  13.594  0.4657  0.8094  0.4417
 8475TIP3    H246841   1.589   1.288  13.651  1.9779  1.1266 -3.2412
 8476TIP3   OH246842   2.504   2.437   2.031 -0.0835 -0.4047 -0.3381
 8476TIP3    H146843   2.559   2.361   2.012 -1.7923 -1.6959 -0.1754
 8476TIP3    H246844   2.555   2.487   2.095  0.5559 -2.0002  0.4288
 8477TIP3   OH246845   0.953   3.192   3.993  0.0239  0.2030 -0.1032
 8477TIP3    H146846   0.997   3.109   3.977 -0.5440  0.0924 -1.1716
 8477TIP3    H246847   0.869   3.168   4.033  0.7953  0.3980  1.6801
 8478TIP3   OH246848   0.298   5.251  14.944 -0.1499  0.3537  0.3483
 8478TIP3    H146849   0.319   5.256  15.037  1.5006 -0.5044  0.0497
 8478TIP3    H246850   0.290   5.342  14.916  2.9199  0.7800  0.6005
 8479TIP3   OH246851   2.636   0.637   2.487 -0.4596  0.2752 -0.0312
 8479TIP3    H146852   2.557   0.686   2.509  0.0114 -0.4692  3.6719
 8479TIP3    H246853   2.614   0.546   2.508  0.9259 -0.1229 -0.2302
 8480TIP3   OH246854   6.003   2.225  16.302  0.3751 -0.2545  0.0427
 8480TIP3    H146855   6.055   2.304  16.316 -0.0093 -0.7208  4.6972
 8480TIP3    H246856   6.063   2.153  16.319 -0.6588 -0.8493  1.3069
 8481TIP3   OH246857   2.749   6.695   1.784 -0.2883 -0.4720  0.0667
 8481TIP3    H146858   2.804   6.636   1.732 -0.3662  0.6125 -1.2491
 8481TIP3    H246859   2.808   6.730   1.851  0.7242  0.9448 -1.5407
 8482TIP3   OH246860   3.876   4.529  15.108 -0.0490 -0.3072  0.1901
 8482TIP3    H146861   3.908   4.469  15.175 -0.2050 -1.3120 -0.6235
 8482TIP3    H246862   3.820   4.591  15.155  0.9293 -0.1664  1.1984
 8483TIP3   OH246863   5.626   5.995  10.843  0.1428  0.2607  0.0835
 8483TIP3    H146864   5.636   6.040  10.927 -0.4070 -0.5613  0.5914
 8483TIP3    H246865   5.634   5.902  10.864 -2.1535 -0.0813 -0.4245
 8484TIP3   OH246866   0.044   3.711   0.009 -0.2017 -0.3530  0.0459
 8484TIP3    H146867   0.127   3.705   0.057  0.0404 -0.6953 -0.4157
 8484TIP3    H246868  -0.000   3.629   0.027  0.2588 -0.8308 -0.9997
 8485TIP3   OH246869   4.074   2.719   2.145  0.5230 -0.1917  0.8576
 8485TIP3    H146870   3.989   2.683   2.119  0.8785 -0.8963  0.6532
 8485TIP3    H246871   4.053   2.801   2.190 -0.3285 -0.8023  1.5992
 8486TIP3   OH246872   1.252   0.733   4.811  0.3722 -0.1482  0.3176
 8486TIP3    H146873   1.333   0.725   4.761  0.1611  1.6864 -0.3530
 8486TIP3    H246874   1.279   0.728   4.903  1.0883 -0.8625  0.0656
 8487TIP3   OH246875   2.871   0.428  15.524  0.0963  0.0004  0.1158
 8487TIP3    H146876   2.844   0.437  15.433 -1.4742 -1.4323  0.4013
 8487TIP3    H246877   2.955   0.383  15.520  2.2828  4.0335 -0.7775
 8488TIP3   OH246878   4.535   0.459  13.799  0.3544 -0.6741  0.5449
 8488TIP3    H146879   4.598   0.524  13.830 -0.6399  0.4316  0.2747
 8488TIP3    H246880   4.557   0.446  13.707  0.3347 -0.4813  0.5151
 8489TIP3   OH246881   0.553   1.468   5.433  0.2356 -0.0387  0.3857
 8489TIP3    H146882   0.601   1.462   5.515  0.9673 -1.3786 -0.1384
 8489TIP3    H246883   0.561   1.382   5.393 -0.3887  0.5003 -0.9462
 8490TIP3   OH246884   3.867   0.035   5.732  0.3424  0.4694 -0.5721
 8490TIP3    H146885   3.774   0.056   5.743  0.5681  0.2700  2.0513
 8490TIP3    H246886   3.891   0.078   5.650 -1.7092  1.7984 -0.5333
 8491TIP3   OH246887   3.193   5.247   1.132 -0.2228  0.2259  0.5581
 8491TIP3    H146888   3.248   5.318   1.164 -1.0781  1.2460 -0.2184
 8491TIP3    H246889   3.154   5.280   1.051 -1.8970 -0.5063  1.0385
 8492TIP3   OH246890   5.191   3.652   1.728  0.0252 -0.0079  0.4543
 8492TIP3    H146891   5.253   3.695   1.787 -0.7582 -0.3495  1.5514
 8492TIP3    H246892   5.105   3.673   1.765 -0.4881  0.0852 -0.7919
 8493TIP3   OH246893   1.178   1.544  17.062  0.0382  0.0835 -0.4058
 8493TIP3    H146894   1.119   1.536  17.137 -0.1361  0.6015 -0.4849
 8493TIP3    H246895   1.225   1.626  17.078 -1.4695  1.2856 -1.8888
 8494TIP3   OH246896   1.394   4.372   5.464 -0.3742  0.1377  0.2562
 8494TIP3    H146897   1.358   4.295   5.509  1.2822 -0.8655 -0.1031
 8494TIP3    H246898   1.322   4.402   5.409 -1.0948 -1.0778  0.4937
 8495TIP3   OH246899   6.248   2.484   3.898  0.0335  0.4314  0.1478
 8495TIP3    H146900   6.233   2.446   3.811  0.5345 -0.6501  0.5194
 8495TIP3    H246901   6.266   2.576   3.881  2.1626 -0.1741 -1.1067
 8496TIP3   OH246902   3.974   0.085   2.576 -0.0031 -0.0742  0.0246
 8496TIP3    H146903   4.018   0.160   2.616  1.4502 -0.6605 -0.4486
 8496TIP3    H246904   3.982   0.015   2.642 -1.8668  0.3252  0.7119
 8497TIP3   OH246905   5.560   5.277  16.544 -0.1975 -0.0673 -0.2024
 8497TIP3    H146906   5.562   5.329  16.624 -0.1466 -2.1003  1.1699
 8497TIP3    H246907   5.582   5.188  16.573  0.3727 -0.7282 -2.5638
 8498TIP3   OH246908   6.055   1.127   3.964 -0.2279  0.3582 -0.1422
 8498TIP3    H146909   6.073   1.040   3.928 -1.6353 -0.3993  0.9478
 8498TIP3    H246910   6.053   1.184   3.888 -2.6586 -1.1435 -1.2631
 8499TIP3   OH246911   5.730   0.174   4.461 -0.1169  0.4708 -0.2834
 8499TIP3    H146912   5.690   0.087   4.470 -2.4518  1.6549  1.4923
 8499TIP3    H246913   5.823   0.159   4.474 -0.4850 -1.7627  0.1061
 8500TIP3   OH246914   5.013   0.558   5.725 -0.1986 -0.1352 -0.3692
 8500TIP3    H146915   4.994   0.554   5.819 -1.3908  0.7328 -0.5659
 8500TIP3    H246916   5.029   0.467   5.700 -1.4239 -0.5595  0.3588
 8501TIP3   OH246917   3.550   4.956   3.673 -0.1832 -0.4042  0.6473
 8501TIP3    H146918   3.634   4.998   3.692 -0.5434  0.6696 -0.0947
 8501TIP3    H246919   3.487   5.028   3.669 -0.7317 -0.9463 -1.0475
 8502TIP3   OH246920   2.392   1.400  12.899  0.0212  0.1689 -0.1659
 8502TIP3    H146921   2.332   1.369  12.832 -0.4407  2.0392 -0.6539
 8502TIP3    H246922   2.448   1.463  12.854  1.2131 -0.2554  0.6857
 8503TIP3   OH246923   2.696   3.051   1.117  0.5209 -0.0137 -0.6339
 8503TIP3    H146924   2.684   2.965   1.075  2.1589 -0.8046  0.4683
 8503TIP3    H246925   2.730   3.107   1.047 -0.5390 -0.2493 -1.3556
 8504TIP3   OH246926   3.092   1.073  13.029 -0.0712  0.2129  0.3312
 8504TIP3    H146927   3.088   1.021  13.110 -0.8979  0.9298  0.7554
 8504TIP3    H246928   3.014   1.127  13.031 -0.5728 -0.3931 -1.3897
 8505TIP3   OH246929   3.169   5.681  13.336  0.1080 -0.1511 -0.1637
 8505TIP3    H146930   3.232   5.741  13.296  0.1113 -1.0095 -1.4533
 8505TIP3    H246931   3.084   5.706  13.300  0.1318 -1.0245 -0.8529
 8506TIP3   OH246932   5.640   1.873  11.588 -0.0512 -0.0319 -0.0538
 8506TIP3    H146933   5.706   1.804  11.599 -0.1593 -0.1048  0.1354
 8506TIP3    H246934   5.685   1.941  11.539 -0.5020 -1.0578 -1.9490
 8507TIP3   OH246935   1.635   2.346  15.349  0.0479  0.0890  0.2512
 8507TIP3    H146936   1.696   2.417  15.371  1.6154 -1.3286  0.5844
 8507TIP3    H246937   1.571   2.347  15.421 -0.0533  1.2631  0.1630
 8508TIP3   OH246938   4.271   1.585  14.105  0.4659 -0.2866  0.7898
 8508TIP3    H146939   4.230   1.572  14.019 -0.0087  0.8547  0.8422
 8508TIP3    H246940   4.361   1.553  14.093  0.6024  0.4778 -0.3227
 8509TIP3   OH246941   0.349   5.623   5.420 -0.2464 -0.0798  0.5265
 8509TIP3    H146942   0.391   5.599   5.502 -1.0721  0.4301  1.1185
 8509TIP3    H246943   0.380   5.559   5.356  1.4712  0.3488  0.9245
 8510TIP3   OH246944   1.251   2.738  12.956 -0.7899  0.2200 -0.0250
 8510TIP3    H146945   1.221   2.822  12.923 -0.7491  0.2687  0.0627
 8510TIP3    H246946   1.345   2.739  12.944 -0.6471  0.6643  1.0654
 8511TIP3   OH246947   4.941   2.886   0.570 -0.4023 -0.3992 -0.3155
 8511TIP3    H146948   5.018   2.910   0.519 -0.3637 -0.6871 -0.3976
 8511TIP3    H246949   4.887   2.965   0.572  0.6840  0.3299  1.2015
 8512TIP3   OH246950   1.212   4.997   1.396  0.1222  0.4727  0.1001
 8512TIP3    H146951   1.206   5.061   1.325 -0.6627 -1.5895 -1.7433
 8512TIP3    H246952   1.284   5.028   1.450  0.2555  2.4852 -1.1826
 8513TIP3   OH246953   0.967   2.395  13.813 -0.0518  0.7378 -0.3711
 8513TIP3    H146954   0.941   2.417  13.903  0.6879  2.1121 -0.4768
 8513TIP3    H246955   1.042   2.337  13.823  1.0149  2.1293 -0.0851
 8514TIP3   OH246956   1.872   4.800   2.493  0.2313  0.5490 -0.4479
 8514TIP3    H146957   1.794   4.761   2.454 -0.3194  0.8398  0.3413
 8514TIP3    H246958   1.842   4.883   2.530  0.3870 -0.4160  1.9216
 8515TIP3   OH246959   4.743   2.807  11.685 -0.1036 -0.0810 -0.2863
 8515TIP3    H146960   4.751   2.747  11.611 -1.0042  2.9183 -2.9529
 8515TIP3    H246961   4.827   2.853  11.688 -1.1077  1.9083 -1.4333
 8516TIP3   OH246962   2.044   4.907  14.779 -0.1028  0.3918  0.1661
 8516TIP3    H146963   2.036   4.830  14.722 -0.3364  0.0882  0.6030
 8516TIP3    H246964   2.138   4.923  14.784 -0.0859  0.5210 -0.4330
 8517TIP3   OH246965   0.475   0.198  11.268  0.3489  0.0716  0.3690
 8517TIP3    H146966   0.504   0.270  11.211  0.0839  0.3751  0.6116
 8517TIP3    H246967   0.487   0.119  11.215 -1.7459  0.5295 -0.8275
 8518TIP3   OH246968   0.616   4.880   0.549 -0.6292 -0.8088  0.1957
 8518TIP3    H146969   0.659   4.934   0.483  0.1470  0.9702  2.1036
 8518TIP3    H246970   0.678   4.810   0.568 -0.5877 -0.9595 -0.4849
 8519TIP3   OH246971   4.668   1.503   0.858  0.0243 -0.1502  0.8277
 8519TIP3    H146972   4.643   1.585   0.817 -0.0879  0.2190  1.6159
 8519TIP3    H246973   4.709   1.452   0.788  0.6822  0.8264  0.4957
 8520TIP3   OH246974   0.497   1.125   1.678 -0.0410 -0.2348 -0.1218
 8520TIP3    H146975   0.544   1.042   1.684 -1.4635 -1.3094 -2.7160
 8520TIP3    H246976   0.533   1.168   1.600 -2.8761 -0.8449 -1.8595
 8521TIP3   OH246977   2.144   5.311   1.342  0.8360  0.0701 -0.3508
 8521TIP3    H146978   2.200   5.235   1.327 -1.1854 -1.8656  1.6148
 8521TIP3    H246979   2.189   5.361   1.411  2.4837  1.0395 -2.0839
 8522TIP3   OH246980   1.143   2.784  15.665  0.2655  0.2406 -0.5198
 8522TIP3    H146981   1.122   2.798  15.757 -0.6736 -0.6339 -0.5866
 8522TIP3    H246982   1.073   2.829  15.618  0.5830  0.4391 -0.8007
 8523TIP3   OH246983   1.475   2.474   4.302  0.0071 -0.0572 -0.7487
 8523TIP3    H146984   1.566   2.448   4.291  0.6385  1.6065  0.3509
 8523TIP3    H246985   1.443   2.421   4.375  0.7034  0.7833  0.1843
 8524TIP3   OH246986   6.142   1.359   4.115  0.6061 -0.0184 -0.6788
 8524TIP3    H146987   6.145   1.276   4.067  1.2462 -0.8693  0.7708
 8524TIP3    H246988   6.051   1.387   4.109  0.4645 -0.6296 -1.5174
 8525TIP3   OH246989   6.324   2.494  13.945 -0.7229  0.1921  0.0199
 8525TIP3    H146990   6.295   2.580  13.914  1.4835 -0.1149 -3.0661
 8525TIP3    H246991   6.399   2.513  14.001 -0.3189  0.2980 -0.5555
 8526TIP3   OH246992   5.477   0.681   4.831  0.0524  0.6618 -0.1631
 8526TIP3    H146993   5.419   0.751   4.803  0.8005  0.8755 -1.2096
 8526TIP3    H246994   5.427   0.600   4.816  0.4877  0.7542 -2.3248
 8527TIP3   OH246995   5.539   1.167   5.030 -0.5339  0.1976 -0.1273
 8527TIP3    H146996   5.522   1.210   5.114 -0.3667  0.1071 -0.0470
 8527TIP3    H246997   5.588   1.232   4.980 -0.7543  0.3043 -0.2076
 8528TIP3   OH246998   3.632   3.945   6.523  0.7711 -0.3601  0.2183
 8528TIP3    H146999   3.712   3.987   6.556  0.2525  0.4411  0.4530
 8528TIP3    H247000   3.664   3.868   6.476  1.8394  1.1135 -1.5318
 8529TIP3   OH247001   2.478   3.409   4.247 -0.2085  0.2174 -0.0507
 8529TIP3    H147002   2.453   3.389   4.157 -2.0436 -0.1854  0.5249
 8529TIP3    H247003   2.498   3.503   4.246 -2.5764  0.7498 -0.3903
 8530TIP3   OH247004   1.874   6.697  15.036 -0.5365  0.0176 -0.2791
 8530TIP3    H147005   1.793   6.651  15.012 -0.2424 -1.1070  0.8237
 8530TIP3    H247006   1.920   6.710  14.953 -0.5087 -1.9387 -0.5911
 8531TIP3   OH247007   2.636   3.182  11.682 -0.0894 -0.1063  1.0469
 8531TIP3    H147008   2.683   3.263  11.664  0.8149 -0.1869  2.9183
 8531TIP3    H247009   2.698   3.129  11.732 -0.2903 -2.3931 -1.0383
 8532TIP3   OH247010   5.432   0.391  12.055  0.3844 -0.2190  0.3927
 8532TIP3    H147011   5.472   0.477  12.046 -1.6973  0.6229 -1.2770
 8532TIP3    H247012   5.339   0.409  12.068  0.0464 -2.2055  0.9657
 8533TIP3   OH247013   0.196   1.727   4.677  0.0855  0.5554  0.5470
 8533TIP3    H147014   0.127   1.789   4.700  0.4671  0.2632  2.5279
 8533TIP3    H247015   0.271   1.783   4.654 -1.1211  0.9097 -2.8794
 8534TIP3   OH247016   4.086   4.945   4.676 -0.0272 -0.0731 -0.0471
 8534TIP3    H147017   4.027   4.958   4.602 -0.2480  0.8531  0.2880
 8534TIP3    H247018   4.045   4.994   4.748  0.6850 -0.1751  0.4297
 8535TIP3   OH247019   1.507   3.062  11.933  0.0592 -0.1363  0.3066
 8535TIP3    H147020   1.509   3.135  11.994 -0.8001 -0.1605  0.3673
 8535TIP3    H247021   1.415   3.038  11.926  0.1886 -0.3870 -0.6942
 8536TIP3   OH247022   4.932   4.030  14.223 -0.2394  0.4653  0.6012
 8536TIP3    H147023   4.957   4.013  14.314 -0.4067 -0.6476  0.4406
 8536TIP3    H247024   4.994   4.097  14.194  0.8108 -0.2856  1.0660
 8537TIP3   OH247025   5.001   5.400  16.151  0.3380  0.4303  0.1801
 8537TIP3    H147026   5.044   5.484  16.134  0.9739  0.2193  0.7433
 8537TIP3    H247027   4.933   5.420  16.214  0.2975  0.5746  0.0894
 8538TIP3   OH247028   5.519   3.077   1.939 -0.0763  0.0962  0.3011
 8538TIP3    H147029   5.468   3.019   1.883 -0.5653  0.0097  0.8328
 8538TIP3    H247030   5.492   3.055   2.028  0.3760  0.5317  0.5509
 8539TIP3   OH247031   1.874   0.375   2.487 -0.2985 -0.3476 -0.8339
 8539TIP3    H147032   1.824   0.319   2.547 -1.3292  1.9217  0.5037
 8539TIP3    H247033   1.847   0.464   2.510  1.9451  0.7505 -2.3163
 8540TIP3   OH247034   6.599   6.606   5.635 -0.7889 -0.0680  0.8903
 8540TIP3    H147035   6.631   6.578   5.720 -0.0900  0.7812  0.9217
 8540TIP3    H247036   6.602   6.702   5.639 -3.7081  0.0479  1.0243
 8541TIP3   OH247037   0.718   0.495  15.274  0.2165 -0.2455 -0.3666
 8541TIP3    H147038   0.631   0.485  15.313  0.8044 -2.4303  0.4619
 8541TIP3    H247039   0.716   0.438  15.197  1.0443 -0.6139 -0.1203
 8542TIP3   OH247040   6.523   0.461  14.224 -0.0658 -0.3344 -0.4189
 8542TIP3    H147041   6.613   0.431  14.239 -0.8149 -1.7596  1.3613
 8542TIP3    H247042   6.489   0.402  14.157  0.3929  0.3668 -1.2797
 8543TIP3   OH247043   3.773   3.900  12.153 -0.1071  0.4047  0.0955
 8543TIP3    H147044   3.843   3.864  12.099 -0.2557 -1.4500  1.0977
 8543TIP3    H247045   3.815   3.921  12.236 -0.9214 -1.8459  1.1304
 8544TIP3   OH247046   0.129   1.941  14.072 -1.0534 -0.5344  0.9363
 8544TIP3    H147047   0.198   2.006  14.062 -1.0995 -0.5876  0.2605
 8544TIP3    H247048   0.154   1.869  14.015 -2.8092  0.4143 -1.1247
 8545TIP3   OH247049   0.466   1.918   5.981 -0.1309  0.2934 -0.0506
 8545TIP3    H147050   0.502   1.951   6.063 -0.6279  1.5214 -0.3070
 8545TIP3    H247051   0.423   1.836   6.004 -0.2170  0.6033  0.9076
 8546TIP3   OH247052   0.187   0.876  13.106 -0.1544  0.3749  0.2743
 8546TIP3    H147053   0.279   0.850  13.105  0.2076  1.5822 -1.9881
 8546TIP3    H247054   0.188   0.966  13.072 -2.0830  0.7218  1.0890
 8547TIP3   OH247055   4.390   3.210  12.973  0.4473 -0.7023 -0.2154
 8547TIP3    H147056   4.376   3.199  13.067 -2.1447  3.7519  0.0594
 8547TIP3    H247057   4.319   3.161  12.933 -0.5230  0.2688  0.2945
 8548TIP3   OH247058   5.049   0.206   5.085  0.2928 -0.1350 -0.2417
 8548TIP3    H147059   5.094   0.250   5.158  0.7772 -0.3798 -0.3941
 8548TIP3    H247060   4.964   0.249   5.081  0.9831  1.1908 -0.7627
 8549TIP3   OH247061   2.399   0.132  12.261  0.1705  0.3115  0.3892
 8549TIP3    H147062   2.400   0.149  12.167 -0.8121 -1.7528 -0.0173
 8549TIP3    H247063   2.307   0.132  12.284  0.3909  0.3210  1.2678
 8550TIP3   OH247064   3.502   6.717  17.218 -1.1800 -0.3367  0.1936
 8550TIP3    H147065   3.468   6.802  17.245  2.2856  1.7519 -1.5912
 8550TIP3    H247066   3.483   6.712  17.124 -0.0486 -0.8179 -0.0189
 8551TIP3   OH247067   6.320   3.640  15.100  0.6517  0.1012 -0.1523
 8551TIP3    H147068   6.285   3.628  15.012 -0.0418  3.1855 -0.3637
 8551TIP3    H247069   6.401   3.589  15.101  1.0304  0.5872 -2.8004
 8552TIP3   OH247070   3.187   3.655  13.093  0.2994 -0.3363  0.2026
 8552TIP3    H147071   3.280   3.672  13.111 -0.1148 -0.5470  2.5859
 8552TIP3    H247072   3.155   3.738  13.058  0.8813  0.4334  1.4381
 8553TIP3   OH247073   6.650   5.616   4.859  0.2926  0.2021 -0.7121
 8553TIP3    H147074   6.669   5.609   4.953  0.8084  2.2135 -0.6522
 8553TIP3    H247075   6.736   5.627   4.818  0.1445 -1.4427 -1.5264
 8554TIP3   OH247076   0.454   0.470  14.990 -0.0414 -0.3090 -0.2925
 8554TIP3    H147077   0.483   0.495  14.902 -1.1501  0.2898 -0.4993
 8554TIP3    H247078   0.458   0.551  15.041 -2.3791  0.0580 -0.6206
 8555TIP3   OH247079   6.604   3.568  12.749 -0.3828  0.1279 -0.0409
 8555TIP3    H147080   6.676   3.603  12.802 -0.7060 -0.7093  0.9512
 8555TIP3    H247081   6.533   3.632  12.760  0.0343  0.7108 -0.6488
 8556TIP3   OH247082   5.472   0.827  14.229  0.0955 -0.3128 -0.0217
 8556TIP3    H147083   5.553   0.788  14.262 -0.3234 -0.2573  1.0880
 8556TIP3    H247084   5.424   0.853  14.307 -1.6370 -1.6481 -0.5883
 8557TIP3   OH247085   5.611   6.350   2.784  0.0582 -0.3827  0.0891
 8557TIP3    H147086   5.685   6.375   2.728 -0.4893 -0.3142 -0.6230
 8557TIP3    H247087   5.651   6.319   2.865  0.8486  0.1073 -0.1079
 8558TIP3   OH247088   2.561   5.156   2.209  0.2951 -0.0275  0.1337
 8558TIP3    H147089   2.494   5.188   2.149 -0.5534  0.7818  1.5121
 8558TIP3    H247090   2.513   5.106   2.275  1.1893 -0.6551  0.3179
 8559TIP3   OH247091   5.805   0.892  13.869 -0.4330 -0.4217 -0.1916
 8559TIP3    H147092   5.736   0.831  13.843  0.5714 -1.2799 -0.8705
 8559TIP3    H247093   5.765   0.947  13.936 -2.5078  0.5770 -2.1759
 8560TIP3   OH247094   6.150   4.411   0.714 -0.5037 -0.4302  0.0432
 8560TIP3    H147095   6.158   4.490   0.767 -2.5066 -0.1938  0.0361
 8560TIP3    H247096   6.239   4.377   0.709  0.3083  1.5438  0.4632
 8561TIP3   OH247097   2.945   1.397  13.765 -0.4701  0.6143 -1.0024
 8561TIP3    H147098   2.959   1.484  13.729 -0.4272  0.4156 -1.4641
 8561TIP3    H247099   3.000   1.395  13.844  0.8173  0.4379 -1.8852
 8562TIP3   OH247100   0.402   0.901  11.334 -0.2541 -0.0250  0.3595
 8562TIP3    H147101   0.377   0.817  11.293 -1.1064  0.7950 -0.8498
 8562TIP3    H247102   0.323   0.955  11.328  0.6574  1.2891 -0.0008
 8563TIP3   OH247103   4.979   0.493   6.003 -0.0816 -0.3191 -0.3378
 8563TIP3    H147104   5.012   0.403   6.001 -1.5167 -0.8596 -0.9837
 8563TIP3    H247105   5.027   0.535   6.073  0.4377 -1.6696  0.1382
 8564TIP3   OH247106   5.832   3.415  16.998  0.1558  0.1465  0.1727
 8564TIP3    H147107   5.920   3.416  17.033 -0.4486  0.6699  1.6988
 8564TIP3    H247108   5.843   3.394  16.905  1.7755 -1.2132  0.6520
 8565TIP3   OH247109   1.344   6.312  13.074  0.4499 -0.3786 -0.5155
 8565TIP3    H147110   1.341   6.251  13.148  0.0283  0.6966  0.3659
 8565TIP3    H247111   1.303   6.392  13.107 -1.0453 -0.3568 -2.3595
 8566TIP3   OH247112   2.652   6.034  14.905  0.2158 -0.4215 -0.1190
 8566TIP3    H147113   2.594   5.977  14.854 -0.6823  1.1216 -0.8846
 8566TIP3    H247114   2.732   6.040  14.853  0.0580 -0.4654 -0.3716
 8567TIP3   OH247115   4.166   0.191   2.797 -0.0096 -0.5686  0.1726
 8567TIP3    H147116   4.233   0.182   2.865 -0.3424 -0.2597  0.5496
 8567TIP3    H247117   4.210   0.166   2.716  0.6369 -0.0994  0.3725
 8568TIP3   OH247118   0.898   5.106   1.762  0.2855 -0.4167  0.2495
 8568TIP3    H147119   0.857   5.033   1.808  1.6364 -0.4639  1.4048
 8568TIP3    H247120   0.949   5.065   1.692  1.4562 -0.6336  1.2155
 8569TIP3   OH247121   1.841   2.578  15.426 -0.2708 -0.5499  0.0187
 8569TIP3    H147122   1.824   2.636  15.351  0.6857 -1.5001 -0.9483
 8569TIP3    H247123   1.846   2.637  15.501 -1.5557  0.3921 -0.6094
 8570TIP3   OH247124   6.050   6.419  12.946 -0.1713 -0.1032  0.6907
 8570TIP3    H147125   6.040   6.411  13.041 -0.3164  5.3353  1.2631
 8570TIP3    H247126   5.962   6.443  12.915  0.2456 -0.2593 -0.6343
 8571TIP3   OH247127   1.974   6.167  15.558  0.3476  0.5300 -0.0380
 8571TIP3    H147128   2.057   6.204  15.589  1.9023 -1.9852 -1.0150
 8571TIP3    H247129   1.998   6.117  15.480 -1.9214 -1.0829  0.2616
 8572TIP3   OH247130   2.250   0.654  16.892 -0.2750  0.0591 -0.2582
 8572TIP3    H147131   2.211   0.583  16.840 -1.0053  0.0547  0.3031
 8572TIP3    H247132   2.344   0.643  16.878 -0.3866 -0.9330 -0.3028
 8573TIP3   OH247133   3.209   1.225  15.661 -0.4405  0.2457 -0.1703
 8573TIP3    H147134   3.134   1.251  15.714 -0.5062  2.2538 -1.2006
 8573TIP3    H247135   3.259   1.306  15.649  2.2284 -1.1704  1.0027
 8574TIP3   OH247136   2.875   3.810   6.046  0.0778 -0.0481  0.3257
 8574TIP3    H147137   2.819   3.736   6.021  0.2652  0.1142 -0.5926
 8574TIP3    H247138   2.963   3.774   6.045  0.0476 -0.1623  1.2429
 8575TIP3   OH247139   3.162   4.871  12.795 -0.5315 -0.2759  0.3420
 8575TIP3    H147140   3.117   4.944  12.753  0.0467  0.3401  0.7972
 8575TIP3    H247141   3.224   4.840  12.729  0.9798  1.2348  1.0293
 8576TIP3   OH247142   4.325   0.754  14.656 -0.1692 -0.0586  1.1053
 8576TIP3    H147143   4.342   0.787  14.568 -0.0852  0.0934  1.1776
 8576TIP3    H247144   4.249   0.803  14.686  0.5760  0.8159  1.6095
 8577TIP3   OH247145   6.057   4.857  10.661 -0.1422 -0.0619 -0.2839
 8577TIP3    H147146   6.092   4.773  10.691 -1.7711 -1.2488 -1.6052
 8577TIP3    H247147   6.093   4.921  10.722 -0.7730 -2.0054  2.2356
 8578TIP3   OH247148   3.865   4.444  15.779 -0.4603  0.3084  0.1446
 8578TIP3    H147149   3.788   4.489  15.813 -1.1877 -0.3325 -0.6170
 8578TIP3    H247150   3.833   4.355  15.758  0.0469  0.5533 -1.7762
 8579TIP3   OH247151   5.438   0.635  16.168 -0.0805 -0.3251 -0.1720
 8579TIP3    H147152   5.355   0.667  16.132 -0.2638 -0.3151  0.2614
 8579TIP3    H247153   5.495   0.712  16.169 -0.2647 -0.1909  0.1131
 8580TIP3   OH247154   6.161   1.908  16.245  0.1460 -0.2899  0.5055
 8580TIP3    H147155   6.220   1.931  16.317  0.7418  0.1029 -0.1087
 8580TIP3    H247156   6.108   1.836  16.280  1.2226 -0.8743  0.9324
 8581TIP3   OH247157   5.155   2.836  12.328 -0.2737 -0.5016  0.2551
 8581TIP3    H147158   5.248   2.860  12.330 -0.5925  0.7221  1.1107
 8581TIP3    H247159   5.149   2.762  12.388  0.4524 -1.7740 -1.2014
 8582TIP3   OH247160   6.752   1.386  14.885  0.6698  0.1866  0.6418
 8582TIP3    H147161   6.827   1.440  14.858  1.0406 -0.1642  0.9604
 8582TIP3    H247162   6.773   1.299  14.851  0.8284 -0.1106  1.4941
 8583TIP3   OH247163   5.327   4.295   5.374  0.4013 -0.2387  0.3186
 8583TIP3    H147164   5.357   4.373   5.328  0.8537  0.7261  2.2133
 8583TIP3    H247165   5.355   4.222   5.317  1.5154  0.8831 -0.6067
 8584TIP3   OH247166   2.115   0.009  17.238 -0.2286 -0.2779 -0.4253
 8584TIP3    H147167   2.175   0.069  17.194 -1.3113  1.1550  0.0040
 8584TIP3    H247168   2.171  -0.040  17.299  0.5099  1.0397 -0.0159
 8585TIP3   OH247169   6.722   0.132  14.430  0.4939 -0.0790 -0.2648
 8585TIP3    H147170   6.736   0.121  14.524  1.7081  0.9342 -0.3211
 8585TIP3    H247171   6.808   0.120  14.391  0.3262  1.2877 -1.0834
 8586TIP3   OH247172   5.965   4.302  10.629  0.4737  0.1601  0.5106
 8586TIP3    H147173   5.893   4.239  10.625 -0.2123  0.8656  1.5943
 8586TIP3    H247174   5.938   4.366  10.694  1.6950  0.9303  0.2850
 8587TIP3   OH247175   5.663   5.119  13.366 -0.0739 -0.2709  0.4951
 8587TIP3    H147176   5.700   5.207  13.362 -1.8621  0.4498 -0.7610
 8587TIP3    H247177   5.568   5.133  13.363 -0.3572 -2.3168 -1.5154
 8588TIP3   OH247178   0.920   4.630  14.580 -0.0022  0.6385  0.0014
 8588TIP3    H147179   0.920   4.535  14.568  0.5564  0.7859 -1.3170
 8588TIP3    H247180   0.986   4.661  14.518 -1.4523  2.0226 -0.8837
 8589TIP3   OH247181   5.713   6.540  12.172 -0.4552 -0.1546  0.3569
 8589TIP3    H147182   5.800   6.517  12.205 -0.2100 -0.5252 -0.5320
 8589TIP3    H247183   5.723   6.541  12.077 -1.2432  0.5321  0.2738
 8590TIP3   OH247184   3.864   0.785  17.098  0.2421  0.0563  0.1404
 8590TIP3    H147185   3.906   0.863  17.133  0.8909  0.2505 -1.0491
 8590TIP3    H247186   3.931   0.743  17.045 -1.3667  1.0502 -2.8208
 8591TIP3   OH247187   3.565   3.994  14.042  0.2964  0.2458  0.7703
 8591TIP3    H147188   3.598   4.047  13.969  1.2790  1.6051  2.1859
 8591TIP3    H247189   3.473   3.977  14.019  0.9505 -0.4863 -1.4181
 8592TIP3   OH247190   4.727   0.741   2.759  0.0742  0.4407  0.6777
 8592TIP3    H147191   4.668   0.814   2.777 -0.9158 -0.0937 -0.3447
 8592TIP3    H247192   4.772   0.766   2.678  2.2761  1.4623  2.1549
 8593TIP3   OH247193   0.908   3.475  13.079  0.2440 -0.2216  0.0939
 8593TIP3    H147194   0.856   3.517  13.011 -1.2129 -0.5460  0.9962
 8593TIP3    H247195   0.844   3.429  13.134  1.5799 -1.6080  0.5246
 8594TIP3   OH247196   3.196   6.118  16.607  0.5293  0.0647 -0.4280
 8594TIP3    H147197   3.160   6.166  16.682 -0.6675 -0.3533 -0.7126
 8594TIP3    H247198   3.260   6.058  16.644  0.4158  0.3247  0.1835
 8595TIP3   OH247199   6.273   5.420  12.339  0.0944 -0.5561  0.3561
 8595TIP3    H147200   6.330   5.353  12.375  1.2060  0.3909  0.3720
 8595TIP3    H247201   6.324   5.460  12.268 -1.8113 -1.9740 -1.8928
 8596TIP3   OH247202   4.244   3.361  16.759 -0.0866 -0.0268  0.7344
 8596TIP3    H147203   4.247   3.353  16.854  0.0842 -2.0934  0.5870
 8596TIP3    H247204   4.257   3.271  16.727  1.7215  0.8953 -1.2717
 8597TIP3   OH247205   1.374   5.842   4.524  0.4742  0.2197 -0.1568
 8597TIP3    H147206   1.433   5.881   4.458  0.9372  1.8606  1.1746
 8597TIP3    H247207   1.397   5.749   4.524  1.4045  0.4238 -1.3437
 8598TIP3   OH247208   3.214   6.510   1.177 -0.2094 -0.0058  0.3982
 8598TIP3    H147209   3.176   6.445   1.236  2.3128  0.3834  2.5095
 8598TIP3    H247210   3.149   6.581   1.175 -2.1763 -1.7736 -0.5746
 8599TIP3   OH247211   3.663   6.301   5.111  0.5966 -0.2823 -0.2655
 8599TIP3    H147212   3.751   6.337   5.095  0.8632 -1.4607 -1.4806
 8599TIP3    H247213   3.634   6.270   5.026 -0.4257 -1.1940  0.4091
 8600TIP3   OH247214   3.181   3.834   0.147  0.3430 -0.1540 -0.1246
 8600TIP3    H147215   3.126   3.819   0.069 -0.4469 -0.4677  0.4851
 8600TIP3    H247216   3.144   3.777   0.214  0.2912  0.9702  0.8163
 8601TIP3   OH247217   5.393   2.621   0.805  0.1063  0.4519 -0.3517
 8601TIP3    H147218   5.355   2.630   0.892  0.0846  0.2303 -0.3380
 8601TIP3    H247219   5.328   2.659   0.746  0.3796  1.1419 -0.2159
 8602TIP3   OH247220   1.794   1.935  16.465  0.0008 -0.4844  1.3646
 8602TIP3    H147221   1.757   2.009  16.514  0.9081 -0.2690  1.7241
 8602TIP3    H247222   1.832   1.878  16.531  1.9406  0.2086  0.8616
 8603TIP3   OH247223   4.562   5.928   3.803 -0.4648 -0.9747  0.2243
 8603TIP3    H147224   4.500   5.987   3.845  0.0837 -0.8120  0.8125
 8603TIP3    H247225   4.601   5.980   3.733 -0.2478 -0.7526  0.5094
 8604TIP3   OH247226   6.250   5.476  12.743 -0.0312  0.0609 -0.1279
 8604TIP3    H147227   6.298   5.522  12.812  0.6588 -1.4009  0.3786
 8604TIP3    H247228   6.316   5.423  12.698 -0.8673 -0.6777 -0.5011
 8605TIP3   OH247229   1.003   2.632  14.074 -0.7344  0.4169 -0.0355
 8605TIP3    H147230   0.949   2.559  14.104  0.7618 -1.3797 -1.5228
 8605TIP3    H247231   1.049   2.597  13.997  2.2132  1.9606  0.9496
 8606TIP3   OH247232   4.452   1.457  12.565  0.1562  0.4709 -0.1220
 8606TIP3    H147233   4.425   1.518  12.495 -1.5258 -0.0215  0.0742
 8606TIP3    H247234   4.393   1.476  12.637  0.2934 -0.7007  0.3072
 8607TIP3   OH247235   4.431   4.542   4.227 -0.0281  0.0518  0.0008
 8607TIP3    H147236   4.401   4.564   4.139  0.2624  0.3641 -0.0204
 8607TIP3    H247237   4.372   4.591   4.285  0.7512  1.0553 -0.0509
 8608TIP3   OH247238   4.843   2.344   6.755  0.4673  0.4836  0.1794
 8608TIP3    H147239   4.831   2.249   6.753  2.0576  0.2694 -0.0243
 8608TIP3    H247240   4.815   2.374   6.668  3.5412 -0.2913 -1.1516
 8609TIP3   OH247241   1.693   6.720   5.512 -0.0852 -0.5810  0.9185
 8609TIP3    H147242   1.667   6.635   5.547 -3.0999  0.2592  0.7780
 8609TIP3    H247243   1.728   6.767   5.588  1.2397 -1.7572  1.0757
 8610TIP3   OH247244   1.328   5.462  12.321 -0.2614  0.4789  0.2881
 8610TIP3    H147245   1.381   5.534  12.284 -1.3277  0.6776 -0.9097
 8610TIP3    H247246   1.286   5.501  12.397  0.6435  0.5683  0.7504
 8611TIP3   OH247247   4.434   3.849  16.370  0.5208  0.6394  0.4779
 8611TIP3    H147248   4.378   3.869  16.295  0.2138  2.7340  1.2203
 8611TIP3    H247249   4.522   3.845  16.333 -0.0257 -2.2715 -0.6214
 8612TIP3   OH247250   6.409   3.771  12.762 -0.4619  0.0551  0.0148
 8612TIP3    H147251   6.401   3.733  12.675 -0.0769 -2.0368  0.8548
 8612TIP3    H247252   6.349   3.846  12.761 -1.4237 -0.7038 -1.6455
 8613TIP3   OH247253   5.224   1.587   2.719  0.4357  0.3423  0.2943
 8613TIP3    H147254   5.259   1.504   2.749 -1.1060  0.2773  1.9848
 8613TIP3    H247255   5.132   1.585   2.745  0.0128  1.9490 -0.9791
 8614TIP3   OH247256   5.479   3.358   1.511  0.2047  0.1353  0.1656
 8614TIP3    H147257   5.463   3.445   1.473  3.3272  0.4906 -0.4878
 8614TIP3    H247258   5.574   3.346   1.504  0.1346 -2.2859  2.5590
 8615TIP3   OH247259   6.498   6.336  12.755  0.1923 -0.0601  0.2527
 8615TIP3    H147260   6.525   6.247  12.778 -0.4693 -0.5981 -0.9464
 8615TIP3    H247261   6.572   6.372  12.706 -0.7805 -1.1480 -2.1053
 8616TIP3   OH247262   2.478   1.830  15.116 -0.2307  0.5041 -0.1793
 8616TIP3    H147263   2.416   1.841  15.044  0.5649  0.9400 -0.8112
 8616TIP3    H247264   2.484   1.736  15.129 -3.0135  0.5386  1.6480
 8617TIP3   OH247265   4.909   0.441   4.266 -0.0495  0.9109 -0.4800
 8617TIP3    H147266   4.888   0.364   4.213  1.5587 -0.4935  0.8406
 8617TIP3    H247267   5.005   0.443   4.268 -0.0663  0.9633  2.2766
 8618TIP3   OH247268   2.775   5.174  11.652  0.4237  0.3757 -0.3215
 8618TIP3    H147269   2.764   5.262  11.616 -0.3305 -0.0835 -1.2316
 8618TIP3    H247270   2.806   5.122  11.578 -0.4308 -0.4191 -0.1279
 8619TIP3   OH247271   1.330   0.118  13.900  0.0737 -0.0993  0.2466
 8619TIP3    H147272   1.296   0.163  13.977  0.1796 -0.9431  0.7919
 8619TIP3    H247273   1.368   0.187  13.847 -2.1242  0.8123 -0.1962
 8620TIP3   OH247274   4.301   3.327   5.337  0.0951  0.1436 -0.1412
 8620TIP3    H147275   4.295   3.363   5.425 -0.7687  0.7382 -0.4375
 8620TIP3    H247276   4.271   3.237   5.345 -2.3673  0.9195 -0.2627
 8621TIP3   OH247277   0.421   5.054  12.879 -0.1133 -0.5394  0.0670
 8621TIP3    H147278   0.394   5.052  12.787 -0.7184 -0.9943  0.2455
 8621TIP3    H247279   0.483   4.982  12.887  1.7776  1.0018 -0.5270
 8622TIP3   OH247280   5.593   3.627  16.267 -0.9018 -0.0645  0.7365
 8622TIP3    H147281   5.533   3.608  16.195 -0.4261  0.6863  0.1314
 8622TIP3    H247282   5.626   3.715  16.248  1.8376 -1.1714 -0.0064
 8623TIP3   OH247283   6.704   2.726   6.730 -0.4457  0.0423 -0.0953
 8623TIP3    H147284   6.730   2.653   6.675 -0.8871  0.2532 -0.5927
 8623TIP3    H247285   6.617   2.750   6.699  1.0487  3.0045 -2.3021
 8624TIP3   OH247286   4.261   4.359   3.318 -0.2640 -0.3304 -0.1021
 8624TIP3    H147287   4.318   4.435   3.327 -0.4285 -0.0838 -1.0854
 8624TIP3    H247288   4.180   4.384   3.361 -1.2816  1.0752 -2.7543
 8625TIP3   OH247289   5.587   2.369   1.369 -0.4680  0.2374  0.4134
 8625TIP3    H147290   5.559   2.333   1.285 -0.3548 -0.6569  0.7412
 8625TIP3    H247291   5.506   2.388   1.415 -0.5321  1.6560 -0.2718
 8626TIP3   OH247292   2.355   3.703   3.051  0.2972  0.0648 -0.5330
 8626TIP3    H147293   2.349   3.798   3.051 -0.5915  0.0367 -2.6095
 8626TIP3    H247294   2.416   3.683   2.981 -0.0818 -0.9091 -0.5928
 8627TIP3   OH247295   5.922   4.318   0.859  0.3395 -0.0504 -0.3629
 8627TIP3    H147296   5.948   4.299   0.949 -1.0609  2.0433  0.5184
 8627TIP3    H247297   5.998   4.359   0.820  1.1443 -1.4738 -0.3109
 8628TIP3   OH247298   5.249   5.455   6.003 -0.2695  0.2648 -0.8588
 8628TIP3    H147299   5.247   5.431   5.910  0.1223  2.8386 -1.5691
 8628TIP3    H247300   5.323   5.406   6.038 -2.0323 -2.8621 -1.2239
 8629TIP3   OH247301   3.633   3.246  11.960 -0.0269  0.0618  0.2789
 8629TIP3    H147302   3.633   3.285  11.872  0.4265 -0.6207 -0.0316
 8629TIP3    H247303   3.557   3.188  11.960  0.5592 -0.7198 -0.0248
 8630TIP3   OH247304   5.041   1.651   1.115 -0.1725  0.7891  0.4921
 8630TIP3    H147305   5.005   1.566   1.088  0.0806  1.1299 -1.0021
 8630TIP3    H247306   4.975   1.687   1.174 -0.9245  0.1405  0.0701
 8631TIP3   OH247307   2.854   0.251   1.861 -0.3342 -0.4774  0.0645
 8631TIP3    H147308   2.809   0.308   1.799  0.4221 -0.9626 -0.9287
 8631TIP3    H247309   2.944   0.248   1.831  0.2663  0.0149  1.7128
 8632TIP3   OH247310   0.427   1.437   2.904  0.2869 -0.4445  0.4130
 8632TIP3    H147311   0.393   1.349   2.889  1.5902 -0.9465  0.2847
 8632TIP3    H247312   0.418   1.450   2.998 -0.5267 -0.4475  0.3379
 8633TIP3   OH247313   4.750   1.820   0.604  0.1014 -0.3891  0.6376
 8633TIP3    H147314   4.839   1.802   0.633  0.5777  0.2762 -0.3693
 8633TIP3    H247315   4.749   1.796   0.512 -1.0682 -1.3964  0.9051
 8634TIP3   OH247316   0.491   4.501  16.271 -0.0575  0.1702  0.5855
 8634TIP3    H147317   0.488   4.582  16.221  0.5713  0.4512  0.9874
 8634TIP3    H247318   0.431   4.442  16.227 -1.5486  1.3015  1.0796
 8635TIP3   OH247319   2.592   0.993  15.585  0.0975 -0.1985  0.1025
 8635TIP3    H147320   2.515   0.985  15.529  0.0432  0.1788  0.1264
 8635TIP3    H247321   2.661   1.024  15.527  0.1884 -0.3669  0.1202
 8636TIP3   OH247322   5.354   0.073  14.219  0.1984 -0.4925 -0.9332
 8636TIP3    H147323   5.268   0.110  14.240  0.6400 -0.2894  0.5054
 8636TIP3    H247324   5.344  -0.021  14.235  0.1461 -0.5276 -1.1537
 8637TIP3   OH247325   3.182   5.959  15.236 -0.6967 -0.8877  0.2377
 8637TIP3    H147326   3.243   5.906  15.287 -0.9536 -1.7408 -0.3307
 8637TIP3    H247327   3.222   5.966  15.149 -0.5088  0.1265  0.4045
 8638TIP3   OH247328   1.821   6.447   2.013 -0.0974 -0.0725 -0.0058
 8638TIP3    H147329   1.763   6.377   1.983  2.4050 -2.4540  0.6168
 8638TIP3    H247330   1.903   6.403   2.035  1.1289  2.8939  1.5624
 8639TIP3   OH247331   2.931   3.655   1.742  0.2913 -1.0709 -0.3017
 8639TIP3    H147332   3.002   3.694   1.691  0.1134 -0.0780  0.1853
 8639TIP3    H247333   2.860   3.719   1.736 -0.9120 -2.4943 -1.5887
 8640TIP3   OH247334   2.936   3.268   6.170 -0.0055 -0.2884 -0.6514
 8640TIP3    H147335   2.951   3.175   6.187  0.8137 -0.1252 -0.4653
 8640TIP3    H247336   2.841   3.277   6.171 -0.0669 -0.9032  0.5577
 8641TIP3   OH247337   3.772   2.865  14.740 -0.0399 -0.0736  0.6632
 8641TIP3    H147338   3.785   2.821  14.656  0.6915 -1.0615  1.2823
 8641TIP3    H247339   3.721   2.802  14.792 -1.2289  0.8805  0.6709
 8642TIP3   OH247340   2.603   4.634   0.150  0.0243 -0.1874  0.5416
 8642TIP3    H147341   2.668   4.683   0.099  0.1535  1.1855  1.9875
 8642TIP3    H247342   2.520   4.679   0.134 -0.1699 -0.5667  0.4843
 8643TIP3   OH247343   4.698   6.448  14.219 -0.1277  0.3737 -0.1105
 8643TIP3    H147344   4.677   6.513  14.152 -2.0155 -0.3115 -0.2165
 8643TIP3    H247345   4.635   6.465  14.289 -1.4475 -2.0770 -0.6464
 8644TIP3   OH247346   6.707   2.928  12.815 -0.4366 -0.3799  0.2109
 8644TIP3    H147347   6.690   2.961  12.903  1.3191  0.3318  0.3041
 8644TIP3    H247348   6.668   2.993  12.756 -1.2279 -0.6313  0.4629
 8645TIP3   OH247349   5.963   0.604   2.216  0.5578 -0.2302  0.3924
 8645TIP3    H147350   6.044   0.654   2.212 -0.3377  1.3187  1.0307
 8645TIP3    H247351   5.901   0.663   2.261 -0.5741 -1.8328  0.9713
 8646TIP3   OH247352   1.763   1.240  12.797 -0.0050 -0.0170 -0.0289
 8646TIP3    H147353   1.787   1.161  12.846 -0.5701  0.4704  1.0514
 8646TIP3    H247354   1.847   1.276  12.767  0.4074  0.0932  1.2411
 8647TIP3   OH247355   6.224   2.420   2.734  0.0392  0.5841 -0.2424
 8647TIP3    H147356   6.180   2.461   2.659  2.1871  2.5723 -0.4672
 8647TIP3    H247357   6.277   2.351   2.696 -1.5839 -0.7426 -0.1449
 8648TIP3   OH247358   3.414   6.370  11.478 -0.2657  0.1470  0.6724
 8648TIP3    H147359   3.322   6.365  11.505 -0.4187  2.1825  0.5650
 8648TIP3    H247360   3.462   6.332  11.552 -1.2735 -2.7708 -0.0854
 8649TIP3   OH247361   5.300   4.254   5.775  0.4010 -0.1383 -0.4856
 8649TIP3    H147362   5.346   4.315   5.833 -0.3824  0.6720 -0.7059
 8649TIP3    H247363   5.314   4.168   5.815  1.4363  0.1835 -0.1177
 8650TIP3   OH247364   0.790   4.473   1.677 -0.0428 -0.2689 -0.0408
 8650TIP3    H147365   0.727   4.518   1.620  1.4042  0.5334 -1.0538
 8650TIP3    H247366   0.815   4.540   1.741  1.7604  0.2631 -1.2646
 8651TIP3   OH247367   5.497   3.033  13.189  0.0230 -0.5778 -0.2404
 8651TIP3    H147368   5.410   2.994  13.195 -0.0740 -0.3554 -0.1808
 8651TIP3    H247369   5.511   3.076  13.274 -0.2910  0.3704 -0.6568
 8652TIP3   OH247370   4.154   4.097   5.579  0.0847 -0.7471  0.4653
 8652TIP3    H147371   4.119   4.167   5.524 -0.4685 -0.6163  0.9713
 8652TIP3    H247372   4.096   4.096   5.655 -0.1768 -2.0350  0.2633
 8653TIP3   OH247373   6.412   5.019  13.673  0.1721 -0.3629 -0.3020
 8653TIP3    H147374   6.351   5.091  13.652  1.4060  0.7958  0.0264
 8653TIP3    H247375   6.468   5.012  13.596  0.6794 -0.3091  0.0592
 8654TIP3   OH247376   0.814   3.150  11.853  0.0394 -0.7510 -0.0621
 8654TIP3    H147377   0.823   3.070  11.905 -0.8321 -0.2610  0.8623
 8654TIP3    H247378   0.725   3.180  11.872  0.1642  0.1199 -0.8622
 8655TIP3   OH247379   1.115   6.378   2.947  0.0247 -0.3354  0.6201
 8655TIP3    H147380   1.161   6.315   3.004 -2.1465 -1.3052  1.3595
 8655TIP3    H247381   1.176   6.393   2.875  1.3337 -1.9115  1.3393
 8656TIP3   OH247382   6.557   4.903   5.290 -0.4181 -0.0953 -0.8979
 8656TIP3    H147383   6.502   4.853   5.351  0.5948 -0.3870 -0.1997
 8656TIP3    H247384   6.621   4.839   5.259  0.6395  0.6624 -0.3095
 8657TIP3   OH247385   3.412   3.428  11.619  0.4404 -0.5473  0.0855
 8657TIP3    H147386   3.494   3.384  11.597  0.6795  0.7896 -1.8194
 8657TIP3    H247387   3.359   3.423  11.539  0.4103  2.4334 -0.1476
 8658TIP3   OH247388   2.503   1.585   5.331 -0.1886 -0.2529  0.1876
 8658TIP3    H147389   2.555   1.542   5.262  0.5685  1.5677 -0.3969
 8658TIP3    H247390   2.467   1.663   5.289  1.1989  1.4815  2.1466
 8659TIP3   OH247391   4.333   3.846  14.326 -0.5555  0.2330 -0.3248
 8659TIP3    H147392   4.361   3.805  14.408 -1.1418  1.2831  0.4096
 8659TIP3    H247393   4.414   3.878  14.286 -0.4888  1.6269  0.8965
 8660TIP3   OH247394   3.207   2.844   3.420  0.3254  0.4708 -0.0792
 8660TIP3    H147395   3.139   2.816   3.481 -1.9001  0.7318 -2.3604
 8660TIP3    H247396   3.283   2.861   3.475 -1.1933 -0.6280  2.4461
 8661TIP3   OH247397   3.389   1.628   0.943 -0.3666 -0.2488 -0.8965
 8661TIP3    H147398   3.371   1.536   0.920 -1.4794  0.3652 -2.5640
 8661TIP3    H247399   3.484   1.636   0.937 -0.1875 -1.4956  0.0729
 8662TIP3   OH247400   3.004   4.767  10.706 -0.4284  0.6433 -0.2918
 8662TIP3    H147401   3.064   4.801  10.639  0.3416 -0.2667 -0.0565
 8662TIP3    H247402   3.021   4.673  10.709 -1.2963  0.4970  0.3572
 8663TIP3   OH247403   1.145   0.018  15.801  0.4124 -0.1417  0.5731
 8663TIP3    H147404   1.172   0.096  15.753  1.3150 -1.9014 -1.8411
 8663TIP3    H247405   1.131  -0.048  15.734 -0.0805 -2.1658  2.6083
 8664TIP3   OH247406   0.823   3.716  17.035 -0.0968  0.4696 -0.3080
 8664TIP3    H147407   0.861   3.628  17.038 -2.3511 -0.6103 -1.8560
 8664TIP3    H247408   0.774   3.724  17.116  1.2113  0.8439  0.4619
 8665TIP3   OH247409   6.627   6.169   4.909  0.2286  0.7811  0.0348
 8665TIP3    H147410   6.707   6.155   4.858 -0.1901  0.6930 -0.6107
 8665TIP3    H247411   6.559   6.122   4.860 -0.0904  0.3093  0.9310
 8666TIP3   OH247412   1.593   6.566   0.516 -0.0225  0.1648 -0.1606
 8666TIP3    H147413   1.578   6.482   0.472 -0.1133  0.6473 -1.0634
 8666TIP3    H247414   1.517   6.619   0.491 -2.4233 -0.9754  4.1407
 8667TIP3   OH247415   2.135   6.470   1.498  0.0928  0.0632  0.3987
 8667TIP3    H147416   2.211   6.412   1.506 -0.0883 -0.2232  0.0831
 8667TIP3    H247417   2.171   6.557   1.483  0.3473 -0.1480 -0.2028
 8668TIP3   OH247418   0.256   1.845  13.490  0.4011  0.2491 -0.0376
 8668TIP3    H147419   0.275   1.772  13.430 -0.6923 -0.8802  0.9538
 8668TIP3    H247420   0.327   1.842  13.554  0.8735  0.6617 -0.5324
 8669TIP3   OH247421   4.044   5.999   3.059 -0.1988  0.2221 -0.4322
 8669TIP3    H147422   4.000   5.967   2.980 -1.8934 -0.4033  0.7396
 8669TIP3    H247423   4.010   6.087   3.072 -0.7575 -0.0865  0.2157
 8670TIP3   OH247424   3.527   4.926  13.739  0.4557 -0.1332 -0.1468
 8670TIP3    H147425   3.452   4.917  13.680 -0.4129 -0.2106  0.9654
 8670TIP3    H247426   3.575   5.002  13.705  0.2094 -0.4323 -1.2055
 8671TIP3   OH247427   4.200   0.538  13.791 -0.2850 -0.2896  0.6456
 8671TIP3    H147428   4.141   0.545  13.866  0.8664 -1.9333  1.7536
 8671TIP3    H247429   4.285   0.567  13.825 -0.0440  0.2258 -0.3930
 8672TIP3   OH247430   4.897   2.682  12.408  0.4891 -0.3789  0.2025
 8672TIP3    H147431   4.864   2.643  12.326  2.7058  0.5077 -1.1249
 8672TIP3    H247432   4.939   2.609  12.453 -1.7087 -1.1296  1.1181
 8673TIP3   OH247433   5.429   1.912   2.442 -0.1702  0.6216 -0.3124
 8673TIP3    H147434   5.398   1.978   2.380 -0.3167  0.3162 -0.5659
 8673TIP3    H247435   5.510   1.948   2.477 -0.1461  0.8488 -0.5998
 8674TIP3   OH247436   6.582   2.284   5.790 -0.1947 -0.4956  0.4987
 8674TIP3    H147437   6.533   2.217   5.744  0.7737 -0.0993 -1.1243
 8674TIP3    H247438   6.666   2.290   5.744  0.2537  0.8922  1.4399
 8675TIP3   OH247439   4.083   1.143   4.481  0.5194 -0.2149 -0.4668
 8675TIP3    H147440   4.150   1.134   4.414  2.4000  0.9879  1.2018
 8675TIP3    H247441   4.129   1.131   4.564 -0.9102  2.6992  0.8159
 8676TIP3   OH247442   4.059   2.882   0.597  0.2650 -0.2397  0.3777
 8676TIP3    H147443   3.991   2.949   0.588  1.7795  1.4379  0.9383
 8676TIP3    H247444   4.129   2.912   0.539  1.4384 -0.7129  1.5364
 8677TIP3   OH247445   2.529   4.973  13.030 -0.3496  0.2610 -0.1657
 8677TIP3    H147446   2.473   4.898  13.010 -0.8619  0.7262 -0.4793
 8677TIP3    H247447   2.556   4.958  13.121 -1.6378  0.4484  0.2570
 8678TIP3   OH247448   4.958   6.091  16.232 -0.6053 -0.8009  0.7375
 8678TIP3    H147449   5.045   6.069  16.198 -1.0012 -1.2093 -0.0155
 8678TIP3    H247450   4.938   6.176  16.192 -0.4808 -0.6250  1.0457
 8679TIP3   OH247451   1.809   5.467  12.732 -0.2559  0.5995  0.8271
 8679TIP3    H147452   1.774   5.426  12.811 -1.6536  0.2240  0.0134
 8679TIP3    H247453   1.747   5.445  12.663  0.6675  1.3886 -0.2785
 8680TIP3   OH247454   5.619   2.471  13.335  0.4655  0.3104 -0.8959
 8680TIP3    H147455   5.670   2.396  13.304 -1.1039  0.0980 -3.0518
 8680TIP3    H247456   5.669   2.505  13.409  0.1457 -4.1763  1.5539
 8681TIP3   OH247457   0.533   0.978   4.481 -0.2951 -0.0487  0.1742
 8681TIP3    H147458   0.495   0.918   4.546 -0.5828 -0.0684 -0.0107
 8681TIP3    H247459   0.535   0.927   4.400  0.5886 -0.2125  0.2966
 8682TIP3   OH247460   3.031   0.875   5.218 -0.1735 -0.1648  0.1254
 8682TIP3    H147461   2.964   0.812   5.245  0.1641 -0.7410 -0.3841
 8682TIP3    H247462   2.990   0.924   5.146  0.1987 -0.9873 -0.6559
 8683TIP3   OH247463   6.153   2.781  13.147 -0.5029  0.3186 -1.0029
 8683TIP3    H147464   6.224   2.762  13.086  0.4043  1.1303 -0.2089
 8683TIP3    H247465   6.174   2.868  13.182  0.1683 -1.0772  2.1646
 8684TIP3   OH247466   3.181   2.942   5.315 -0.4466 -0.4116 -0.3451
 8684TIP3    H147467   3.166   2.989   5.233 -1.0032  0.3772  0.1988
 8684TIP3    H247468   3.114   2.975   5.374 -1.3318 -2.4588 -0.1703
 8685TIP3   OH247469   2.095   5.999  14.653 -0.0758 -0.1191 -0.1079
 8685TIP3    H147470   2.161   6.065  14.632  0.1471 -0.0607  0.7471
 8685TIP3    H247471   2.015   6.031  14.611  0.7511 -0.9343 -2.4004
 8686TIP3   OH247472   3.870   4.328   4.372  0.3491  0.2942 -0.2855
 8686TIP3    H147473   3.960   4.293   4.371 -0.1421 -1.3198  4.1498
 8686TIP3    H247474   3.876   4.407   4.426 -1.3753 -1.4497  2.5599
 8687TIP3   OH247475   3.243   0.322  13.362  0.5825 -0.4723 -0.0714
 8687TIP3    H147476   3.251   0.414  13.336  1.8985 -0.4996  0.1701
 8687TIP3    H247477   3.308   0.311  13.431  2.0573 -2.1312 -1.6544
 8688TIP3   OH247478   1.408   4.729  13.668  0.5128 -0.2748  0.5007
 8688TIP3    H147479   1.417   4.824  13.667  0.4896 -0.2748 -0.5125
 8688TIP3    H247480   1.314   4.714  13.677  0.2766 -0.1749 -1.6310
 8689TIP3   OH247481   4.287   6.776   2.316 -0.0068 -0.0791  0.2775
 8689TIP3    H147482   4.305   6.767   2.222 -0.6169 -0.6478  0.2174
 8689TIP3    H247483   4.231   6.853   2.322  0.5667  0.3467  0.2420
 8690TIP3   OH247484   1.949   3.769  12.187  0.0803  0.0278 -1.0013
 8690TIP3    H147485   1.871   3.728  12.149 -2.6917  0.9746  3.3794
 8690TIP3    H247486   1.996   3.696  12.228 -1.8773  0.2524  1.8035
 8691TIP3   OH247487   0.127   2.895   1.571  0.1344 -0.1055 -0.2206
 8691TIP3    H147488   0.113   2.823   1.509 -0.8341  0.1480 -0.3058
 8691TIP3    H247489   0.059   2.959   1.550  1.9953  1.6156 -1.2715
 8692TIP3   OH247490   1.591   1.348  15.339  0.4750 -0.9717 -0.0972
 8692TIP3    H147491   1.609   1.407  15.413  3.8601 -0.9728 -0.8699
 8692TIP3    H247492   1.649   1.378  15.269 -2.4228 -1.1924 -2.7145
 8693TIP3   OH247493   3.011   5.660   0.340 -0.2810 -0.1693 -0.1016
 8693TIP3    H147494   3.020   5.751   0.367  0.9954 -0.2992 -0.0688
 8693TIP3    H247495   2.921   5.637   0.363 -1.4219  1.8148 -2.3896
 8694TIP3   OH247496   6.298   3.248  16.701  0.3196 -0.6629  0.2430
 8694TIP3    H147497   6.352   3.322  16.673  0.1328 -0.7270 -0.2989
 8694TIP3    H247498   6.212   3.266  16.663 -0.0908 -0.4743  1.2442
 8695TIP3   OH247499   2.184   0.749  14.279 -0.0691  0.3125  0.6158
 8695TIP3    H147500   2.181   0.784  14.189  0.2835 -0.2977  0.3632
 8695TIP3    H247501   2.268   0.703  14.284 -0.1107  0.3008  1.2450
 8696TIP3   OH247502   5.821   4.891  15.844  0.6072 -0.0709 -0.3838
 8696TIP3    H147503   5.874   4.949  15.790 -0.2434 -0.4372 -1.6194
 8696TIP3    H247504   5.863   4.805  15.837 -0.3587 -0.4479 -1.6792
 8697TIP3   OH247505   3.427   2.099   5.721  0.2360  0.1553  0.7221
 8697TIP3    H147506   3.422   2.182   5.673 -0.0840  0.0681  0.6058
 8697TIP3    H247507   3.404   2.033   5.656  1.7383 -0.1520  0.4749
 8698TIP3   OH247508   4.935   6.519  11.954 -0.4617 -0.7177  0.2763
 8698TIP3    H147509   4.967   6.459  12.022 -0.9497 -1.4402 -0.1269
 8698TIP3    H247510   4.850   6.483  11.929 -0.2155 -0.5357 -0.8285
 8699TIP3   OH247511   5.652   5.589  10.175  0.2108 -0.1689 -0.3785
 8699TIP3    H147512   5.601   5.630  10.105  1.1957  0.3790 -0.7909
 8699TIP3    H247513   5.735   5.566  10.133  0.5999 -0.3373  0.4843
 8700TIP3   OH247514   3.020   5.896  12.949 -0.3543 -0.8219  0.5051
 8700TIP3    H147515   3.080   5.837  12.903  0.3582 -1.6830  2.4942
 8700TIP3    H247516   3.076   5.968  12.980 -0.8243 -0.2601  0.0507
 8701TIP3   OH247517   1.028   2.978   5.087  0.1214 -0.1256 -0.1864
 8701TIP3    H147518   1.051   2.892   5.050  1.7171  0.5206 -0.7256
 8701TIP3    H247519   0.949   3.004   5.039  1.6083  0.2583 -2.5129
 8702TIP3   OH247520   3.997   3.431   0.559 -0.4268 -0.3129 -0.6222
 8702TIP3    H147521   4.050   3.458   0.484  1.0003 -1.7676 -0.1454
 8702TIP3    H247522   4.032   3.480   0.633  0.9406 -2.0274 -0.1141
 8703TIP3   OH247523   5.123   3.152   2.803  0.0535  0.5437 -0.4044
 8703TIP3    H147524   5.167   3.219   2.854  1.3150 -1.3754  1.0969
 8703TIP3    H247525   5.054   3.118   2.861  1.4375 -1.5937  0.0505
 8704TIP3   OH247526   5.066   0.864  13.966  0.4859  0.0508  0.1115
 8704TIP3    H147527   4.993   0.810  13.998  1.0471 -0.2194  0.9444
 8704TIP3    H247528   5.059   0.859  13.871  1.3350 -2.5739  0.1521
 8705TIP3   OH247529   1.687   3.053  17.147  0.0929  0.6863  0.1709
 8705TIP3    H147530   1.741   2.980  17.179 -0.1899  0.7691  0.8498
 8705TIP3    H247531   1.717   3.067  17.057 -0.2353 -0.6316 -0.1577
 8706TIP3   OH247532   0.845   5.958  16.062 -0.1668  0.2100  0.0623
 8706TIP3    H147533   0.877   6.048  16.056 -1.5861  0.6217 -2.0447
 8706TIP3    H247534   0.751   5.965  16.047 -0.0415 -1.7775 -2.0721
 8707TIP3   OH247535   1.154   3.095   4.255  0.0302 -0.1413  0.3567
 8707TIP3    H147536   1.068   3.129   4.280  0.8675  1.9636  0.4956
 8707TIP3    H247537   1.194   3.066   4.337 -0.0807 -0.0019  0.4608
 8708TIP3   OH247538   2.619   3.825  13.730  0.4927  0.5900  0.1891
 8708TIP3    H147539   2.573   3.755  13.776  1.2854 -0.8122 -1.0997
 8708TIP3    H247540   2.576   3.906  13.758 -1.0831 -0.4990  0.9224
 8709TIP3   OH247541   2.897   6.380   4.906  0.6292 -0.1378  0.0638
 8709TIP3    H147542   2.948   6.376   4.825  1.0565  0.2899  0.3069
 8709TIP3    H247543   2.953   6.429   4.967 -0.5671  1.3876 -0.0287
 8710TIP3   OH247544   2.089   4.397   5.518  0.2903 -0.2911 -0.4660
 8710TIP3    H147545   2.145   4.384   5.595  0.4051 -0.6535 -0.6069
 8710TIP3    H247546   2.077   4.492   5.513  1.0793 -0.1846 -0.5562
 8711TIP3   OH247547   3.569   3.430   2.274  0.3683  0.3851 -0.9374
 8711TIP3    H147548   3.542   3.521   2.285  1.1489  0.3274  1.8053
 8711TIP3    H247549   3.494   3.379   2.304  0.3998  0.1324 -1.2875
 8712TIP3   OH247550   1.790   4.344  13.252  0.1046  0.2264 -0.4955
 8712TIP3    H147551   1.842   4.263  13.254  0.5753  0.4840  4.7817
 8712TIP3    H247552   1.852   4.411  13.226  1.3974 -0.1712  1.4232
 8713TIP3   OH247553   0.551   4.980  13.850  0.3576  0.0015  0.3031
 8713TIP3    H147554   0.614   5.023  13.792  0.9262  1.5337  2.0484
 8713TIP3    H247555   0.592   4.896  13.872  1.4563  0.6709  0.8273
 8714TIP3   OH247556   3.959   0.351  17.032  0.0034  0.2309 -0.1853
 8714TIP3    H147557   4.050   0.322  17.025  0.4154  1.3796  0.3686
 8714TIP3    H247558   3.961   0.426  17.092 -1.8188 -1.9993  2.8315
 8715TIP3   OH247559   4.651   1.093  14.300  0.4811 -0.0867  0.0764
 8715TIP3    H147560   4.711   1.160  14.335  2.3634 -1.5819 -0.1803
 8715TIP3    H247561   4.676   1.013  14.347 -1.6295 -0.6563  0.2601
 8716TIP3   OH247562   1.640   6.131  14.167  0.5690 -0.3715  0.1204
 8716TIP3    H147563   1.604   6.086  14.091  3.1968 -0.0750 -1.3596
 8716TIP3    H247564   1.611   6.222  14.156  0.6910 -0.3893 -0.3478
 8717TIP3   OH247565   0.829   1.611  13.525  0.7215  0.2164  0.2509
 8717TIP3    H147566   0.822   1.517  13.507 -0.5124  0.2417  0.5697
 8717TIP3    H247567   0.922   1.631  13.513  0.8405 -0.8661 -0.6766
 8718TIP3   OH247568   3.247   1.414  16.174  0.0850 -0.0600  0.0776
 8718TIP3    H147569   3.241   1.484  16.240  1.4343  0.5598 -0.4438
 8718TIP3    H247570   3.292   1.455  16.100 -2.3695 -0.4341 -1.6806
 8719TIP3   OH247571   5.914   0.681   1.129 -0.4066 -0.1543 -0.7743
 8719TIP3    H147572   5.825   0.690   1.163 -0.3379 -1.2515 -0.3037
 8719TIP3    H247573   5.938   0.590   1.147  1.0406  0.3044 -0.3572
 8720TIP3   OH247574   5.409   5.451   3.228  0.0501  0.2718  0.0318
 8720TIP3    H147575   5.417   5.518   3.296 -0.3518  0.5886 -0.2370
 8720TIP3    H247576   5.341   5.484   3.169 -0.8750 -0.8482  0.4532
 8721TIP3   OH247577   1.367   4.915  15.985 -0.2693  0.0807  0.0249
 8721TIP3    H147578   1.421   4.888  16.059  1.9514  1.5820 -0.9931
 8721TIP3    H247579   1.327   4.834  15.954  1.4181 -1.0937  0.8113
 8722TIP3   OH247580   0.270   0.492  15.351 -0.1843  0.3530  0.1077
 8722TIP3    H147581   0.191   0.472  15.301  0.4783  0.5531 -1.0422
 8722TIP3    H247582   0.319   0.552  15.295  1.1369 -0.3772  0.4547
 8723TIP3   OH247583   3.412   6.071   0.330 -0.7273 -0.2739 -0.3000
 8723TIP3    H147584   3.481   6.028   0.380  0.1470  1.0860 -0.3164
 8723TIP3    H247585   3.344   6.004   0.320  0.5098 -1.5599 -0.1381
 8724TIP3   OH247586   2.953   5.399   1.895 -0.2631  0.5885  0.2259
 8724TIP3    H147587   2.884   5.437   1.841  0.9637  2.4190 -0.1069
 8724TIP3    H247588   2.922   5.410   1.985 -1.8046 -1.4596 -0.0303
 8725TIP3   OH247589   3.223   0.794   0.090  0.6119  0.6968  0.0041
 8725TIP3    H147590   3.191   0.847   0.163  0.1649  0.8970 -0.3405
 8725TIP3    H247591   3.288   0.736   0.130 -0.7116 -0.2401  0.8336
 8726TIP3   OH247592   4.837   5.851  15.432 -0.3236  0.6148 -0.5748
 8726TIP3    H147593   4.809   5.901  15.509 -1.8868 -0.2511 -0.5565
 8726TIP3    H247594   4.920   5.812  15.458  0.7261  2.8471 -0.4497
 8727TIP3   OH247595   5.008   0.913   2.652 -0.5732 -0.3125 -0.0817
 8727TIP3    H147596   4.996   0.826   2.613 -0.0823 -0.1984 -0.5021
 8727TIP3    H247597   5.043   0.966   2.580  0.7221 -0.1920  0.6195
 8728TIP3   OH247598   2.277   5.918  13.283  0.3675  0.2902 -0.1055
 8728TIP3    H147599   2.315   6.005  13.268  3.6150 -0.7330  1.7214
 8728TIP3    H247600   2.303   5.868  13.206  1.0748  0.1230  0.2402
 8729TIP3   OH247601   1.045   4.855  15.519  0.8334  0.3700 -0.1238
 8729TIP3    H147602   1.113   4.864  15.452  0.6995  0.3951 -0.2577
 8729TIP3    H247603   0.967   4.828  15.470  0.7687  0.2610  0.0389
 8730TIP3   OH247604   4.282   3.677   2.127 -0.0576 -0.3459  0.0144
 8730TIP3    H147605   4.314   3.755   2.082 -0.0335 -0.4707 -0.1869
 8730TIP3    H247606   4.257   3.617   2.056  0.6434 -0.8155  0.1621
 8731TIP3   OH247607   5.368   0.313   2.143  0.1280 -0.6334  0.4671
 8731TIP3    H147608   5.411   0.387   2.186 -2.5035  1.6181 -0.6419
 8731TIP3    H247609   5.347   0.345   2.055 -1.5353 -2.5159  0.1346
 8732TIP3   OH247610   0.217   5.861  12.632 -0.3061  0.4447  0.3286
 8732TIP3    H147611   0.239   5.798  12.564 -0.3099  0.7236  0.0705
 8732TIP3    H247612   0.145   5.821  12.680 -0.5996  0.4450 -0.1085
 8733TIP3   OH247613   1.809   2.652   2.817 -0.0710 -0.3989 -0.1380
 8733TIP3    H147614   1.865   2.579   2.843 -0.9037 -0.3731  1.7917
 8733TIP3    H247615   1.857   2.730   2.843  0.5070 -0.2408 -1.5866
 8734TIP3   OH247616   0.438   5.934   3.592  0.1017  0.3365 -0.0337
 8734TIP3    H147617   0.353   5.956   3.554 -0.5222  0.2234  1.2570
 8734TIP3    H247618   0.491   6.012   3.580 -1.0055  1.3508  1.4199
 8735TIP3   OH247619   6.053   6.157  14.733 -0.5639  0.0637  0.1533
 8735TIP3    H147620   6.028   6.065  14.723 -0.7685 -0.1815  2.4872
 8735TIP3    H247621   6.095   6.180  14.651 -0.1422 -2.2401 -0.3107
 8736TIP3   OH247622   6.646   4.324  12.960  0.7346  0.0449 -0.3130
 8736TIP3    H147623   6.557   4.289  12.961  1.1282 -0.9364  1.0746
 8736TIP3    H247624   6.675   4.319  13.051  1.9518  1.0246 -0.6381
 8737TIP3   OH247625   4.154   4.690   4.772 -0.0579 -0.1820 -0.4112
 8737TIP3    H147626   4.117   4.674   4.859  4.0091 -1.0375  1.2651
 8737TIP3    H247627   4.158   4.785   4.765 -1.0089 -0.0979  0.0502
 8738TIP3   OH247628   4.905   5.852   3.389  0.4535 -0.1940  0.2845
 8738TIP3    H147629   4.816   5.821   3.369  0.7478 -1.2215  0.5288
 8738TIP3    H247630   4.930   5.804   3.468  0.2020  2.1259  1.8162
 8739TIP3   OH247631   0.467   3.055   5.802  0.5028  0.0283  0.7910
 8739TIP3    H147632   0.504   3.054   5.891  0.7161 -1.8564  0.7001
 8739TIP3    H247633   0.372   3.050   5.816  0.5971 -1.5964  0.8927
 8740TIP3   OH247634   6.490   4.631   4.298 -0.0901 -0.0837 -0.4768
 8740TIP3    H147635   6.584   4.630   4.317 -0.2271  0.3474  0.2813
 8740TIP3    H247636   6.484   4.647   4.204  0.6056 -0.9875 -0.6799
 8741TIP3   OH247637   2.936   6.420   1.767 -0.3937  0.3007 -0.0903
 8741TIP3    H147638   2.939   6.343   1.824 -1.6050  0.8976  0.7927
 8741TIP3    H247639   2.964   6.388   1.681 -0.0871 -0.9447  0.4760
 8742TIP3   OH247640   6.306   1.464  15.695 -0.3119 -0.0688 -0.7131
 8742TIP3    H147641   6.389   1.474  15.648 -0.4420  0.9240 -0.7431
 8742TIP3    H247642   6.292   1.370  15.700  1.1097 -0.2581 -0.1958
 8743TIP3   OH247643   1.755   1.788   5.546  0.2618  0.0243 -0.6171
 8743TIP3    H147644   1.749   1.854   5.477  1.3129 -0.6266 -1.3354
 8743TIP3    H247645   1.844   1.797   5.580 -0.5705  1.0281  1.3479
 8744TIP3   OH247646   3.764   2.055   2.886 -0.5399  0.2507  0.2458
 8744TIP3    H147647   3.756   2.150   2.896  0.6340  0.4457 -0.6075
 8744TIP3    H247648   3.730   2.019   2.968 -0.0425  1.4417  0.9886
 8745TIP3   OH247649   1.443   0.656  11.220  0.3269 -0.0957 -0.6186
 8745TIP3    H147650   1.498   0.578  11.220  2.6652  1.5088 -2.1042
 8745TIP3    H247651   1.402   0.656  11.133 -1.5659 -0.9316  0.2466
 8746TIP3   OH247652   2.837   2.626  11.741 -0.1065  0.3385 -0.4229
 8746TIP3    H147653   2.823   2.719  11.757  1.2727  0.5357 -0.3744
 8746TIP3    H247654   2.931   2.612  11.754 -0.7301 -1.6370  2.5285
 8747TIP3   OH247655   6.351   4.716   1.531  0.5056 -0.4452 -0.0012
 8747TIP3    H147656   6.378   4.674   1.613 -0.3761 -0.9101  0.0624
 8747TIP3    H247657   6.391   4.803   1.534  2.2970 -1.2468 -0.1057
 8748TIP3   OH247658   6.281   5.450   2.979  0.0881  0.1702  0.5128
 8748TIP3    H147659   6.225   5.374   2.996  1.1000 -0.2544  1.9766
 8748TIP3    H247660   6.329   5.463   3.060  1.7282  0.8665 -0.5523
 8749TIP3   OH247661   0.431   6.003   0.180  0.2850  0.5903 -0.0011
 8749TIP3    H147662   0.403   6.015   0.271  0.8483 -0.1870  0.2795
 8749TIP3    H247663   0.462   6.090   0.153  1.0948  0.5859  0.8919
 8750TIP3   OH247664   4.798   5.966   0.063  0.0912 -0.2371 -0.0943
 8750TIP3    H147665   4.759   5.946   0.148  0.0224  2.7714  0.6263
 8750TIP3    H247666   4.890   5.985   0.083  0.4733 -1.1613 -0.9391
 8751TIP3   OH247667   0.678   0.484  16.163 -0.3338 -0.2128  0.1298
 8751TIP3    H147668   0.675   0.499  16.257  0.0813 -1.2197  0.3152
 8751TIP3    H247669   0.589   0.501  16.132 -0.2009  1.2577  0.5132
 8752TIP3   OH247670   4.514   1.658  16.021 -0.4208 -0.1092 -0.2506
 8752TIP3    H147671   4.526   1.585  16.082 -2.5866 -0.5693 -0.3373
 8752TIP3    H247672   4.541   1.624  15.936 -1.4279 -0.8431 -0.2913
 8753TIP3   OH247673   1.637   2.666   3.208 -0.4954  0.5764 -0.3843
 8753TIP3    H147674   1.701   2.628   3.267  0.2716  0.2687 -1.4003
 8753TIP3    H247675   1.557   2.616   3.224  0.0685 -0.3926 -0.5463
 8754TIP3   OH247676   3.271   1.957   4.347  0.4785  0.1862 -0.1677
 8754TIP3    H147677   3.340   1.956   4.280  0.3612  0.5632 -0.2933
 8754TIP3    H247678   3.280   1.872   4.390  1.1525  0.3126 -0.0444
 8755TIP3   OH247679   3.910   4.667  17.049  0.0374 -0.6921  0.4810
 8755TIP3    H147680   3.870   4.753  17.042  0.0583 -0.6584  0.7701
 8755TIP3    H247681   3.867   4.615  16.981  0.3645 -0.3256 -0.0028
 8756TIP3   OH247682   0.771   3.800  10.889 -0.1560 -0.4224 -0.2022
 8756TIP3    H147683   0.760   3.713  10.927 -0.2339 -0.4041 -0.1839
 8756TIP3    H247684   0.793   3.857  10.963 -0.7755 -0.2937 -0.1111
 8757TIP3   OH247685   5.390   1.771   1.776 -0.1874  0.4836  0.2126
 8757TIP3    H147686   5.347   1.822   1.845  1.1820 -2.3703  3.2711
 8757TIP3    H247687   5.474   1.814   1.763  0.2744  0.0190  1.5980
 8758TIP3   OH247688   4.488   6.442   1.794  0.1163  0.1601  0.2346
 8758TIP3    H147689   4.428   6.398   1.733  0.6595  0.6562 -0.6600
 8758TIP3    H247690   4.461   6.410   1.880 -0.3749 -0.8870 -0.2925
 8759TIP3   OH247691   0.353   1.358  16.704 -0.0265 -0.4410  0.1827
 8759TIP3    H147692   0.331   1.344  16.612  1.9258 -1.5342 -0.1419
 8759TIP3    H247693   0.448   1.346  16.708  0.4651  3.2696  1.6756
 8760TIP3   OH247694   6.317   5.068  15.486  0.1708  0.1320 -0.2352
 8760TIP3    H147695   6.349   4.987  15.524  1.5331  0.4039 -0.7735
 8760TIP3    H247696   6.260   5.041  15.414 -0.6393 -0.3506  0.5751
 8761TIP3   OH247697   4.163   6.626   5.093 -0.1913  0.1808 -0.6188
 8761TIP3    H147698   4.180   6.720   5.087 -0.3415  0.0432 -3.7635
 8761TIP3    H247699   4.246   6.589   5.125  0.0055  1.3027  0.2131
 8762TIP3   OH247700   3.738   1.941  13.178  0.0167 -0.6447 -0.5966
 8762TIP3    H147701   3.822   1.902  13.155 -0.1621 -1.3803 -0.0118
 8762TIP3    H247702   3.676   1.902  13.118 -0.0983 -0.9630 -0.2695
 8763TIP3   OH247703   2.840   5.441   5.838 -0.0541  0.3610  0.0832
 8763TIP3    H147704   2.896   5.440   5.915 -0.5047 -2.4685  0.4539
 8763TIP3    H247705   2.881   5.379   5.777 -1.6151 -0.1716 -0.4670
 8764TIP3   OH247706   2.657   5.087   5.497 -0.4584 -0.1945 -0.4186
 8764TIP3    H147707   2.608   5.123   5.571  0.8639  0.4572  0.1439
 8764TIP3    H247708   2.601   5.104   5.421 -1.7304 -0.6807  0.3859
 8765TIP3   OH247709   5.106   3.280   3.101  0.0710 -0.1081 -0.0453
 8765TIP3    H147710   5.039   3.212   3.099  0.2940 -0.2845 -2.1066
 8765TIP3    H247711   5.136   3.280   3.192 -2.3542 -0.3604  0.8052
 8766TIP3   OH247712   0.421   2.096  14.019  0.2613 -0.2362  0.0241
 8766TIP3    H147713   0.455   2.131  13.936  1.9574 -2.6920 -0.3845
 8766TIP3    H247714   0.495   2.099  14.079  0.2224 -2.2361  0.2193
 8767TIP3   OH247715   5.297   1.634  16.318 -0.3860  0.5589  0.2785
 8767TIP3    H147716   5.348   1.714  16.308 -0.4286  0.5617  0.0891
 8767TIP3    H247717   5.269   1.611  16.229  1.2220 -0.7321  0.0734
 8768TIP3   OH247718   6.110   4.722  13.060 -0.8552 -0.3381  0.0852
 8768TIP3    H147719   6.132   4.807  13.022 -3.1996  0.4986  0.5113
 8768TIP3    H247720   6.051   4.682  12.996 -1.1682 -0.8729  0.7040
 8769TIP3   OH247721   6.230   5.472  11.548 -0.0302  0.4308 -0.3045
 8769TIP3    H147722   6.271   5.443  11.467  1.6201  0.1818  0.5933
 8769TIP3    H247723   6.162   5.407  11.566 -0.0814  0.2277 -1.2324
 8770TIP3   OH247724   4.379   5.931  10.674  0.1095  0.7251 -0.1557
 8770TIP3    H147725   4.343   5.904  10.589  0.6497 -0.6598  0.0520
 8770TIP3    H247726   4.408   6.021  10.660 -2.3348  1.4769 -0.6649
 8771TIP3   OH247727   0.347   2.368   5.128  0.0323  0.2558  0.2118
 8771TIP3    H147728   0.281   2.370   5.059  0.2216 -1.1870 -0.0406
 8771TIP3    H247729   0.307   2.318   5.198  0.1661  0.9797  0.8054
 8772TIP3   OH247730   2.133   0.367   5.577  0.5565  0.1150 -1.0746
 8772TIP3    H147731   2.049   0.325   5.593  2.1298 -1.9913  1.9785
 8772TIP3    H247732   2.124   0.454   5.616  0.0796 -0.4086 -0.0132
 8773TIP3   OH247733   3.737   0.215  16.616  0.1608  0.0255  0.3676
 8773TIP3    H147734   3.728   0.299  16.571 -0.8721  0.4650  1.4066
 8773TIP3    H247735   3.667   0.213  16.680  1.2673 -0.8578  1.5884
 8774TIP3   OH247736   0.164   4.820   1.926  0.4287  0.6037 -0.0948
 8774TIP3    H147737   0.182   4.796   2.017 -1.8217 -0.5125  0.0971
 8774TIP3    H247738   0.146   4.914   1.929  0.2415  0.5473  0.6478
 8775TIP3   OH247739   0.590   5.841   2.930  0.0422  0.2507 -0.6299
 8775TIP3    H147740   0.588   5.936   2.931  0.3098  0.2521  0.0094
 8775TIP3    H247741   0.498   5.814   2.931 -0.0430  0.4792  2.3445
 8776TIP3   OH247742   4.753   6.379  13.410 -0.3030  0.5922  0.0677
 8776TIP3    H147743   4.743   6.458  13.462 -2.6741  0.4729 -0.1413
 8776TIP3    H247744   4.725   6.308  13.468 -0.2666  0.1495 -0.4522
 8777TIP3   OH247745   2.273   5.760  17.143 -0.4984 -0.1506 -0.8779
 8777TIP3    H147746   2.214   5.686  17.159 -0.7151  0.4741  1.4065
 8777TIP3    H247747   2.215   5.833  17.122 -0.4339 -0.0349 -0.6554
 8778TIP3   OH247748   0.895   1.739  11.282  0.6570 -0.6387 -0.5761
 8778TIP3    H147749   0.854   1.671  11.230  1.0561 -1.4410  0.1517
 8778TIP3    H247750   0.914   1.809  11.219 -0.9251 -0.6542 -1.0830
 8779TIP3   OH247751   3.761   3.341   4.622  0.4004  0.1385 -0.5282
 8779TIP3    H147752   3.676   3.314   4.586  0.7702 -0.0656 -1.2521
 8779TIP3    H247753   3.777   3.427   4.583  0.9829 -0.2536 -1.1659
 8780TIP3   OH247754   6.174   1.504  11.395 -0.5261 -0.2651 -0.0561
 8780TIP3    H147755   6.110   1.477  11.329 -0.7615  0.3701 -0.0984
 8780TIP3    H247756   6.163   1.599  11.401 -0.1088 -0.2467  0.4860
 8781TIP3   OH247757   5.936   6.261   1.330 -0.0099  0.5502  0.7684
 8781TIP3    H147758   5.867   6.197   1.349  0.2622 -0.4154 -1.3461
 8781TIP3    H247759   6.000   6.212   1.279  1.2388  1.9829  0.9509
 8782TIP3   OH247760   2.384   5.209   3.589  0.7689  0.6489  0.1270
 8782TIP3    H147761   2.366   5.215   3.496  0.4500 -1.3859  0.0239
 8782TIP3    H247762   2.455   5.145   3.596  1.5170  1.5658  1.2082
 8783TIP3   OH247763   0.683   1.659   6.332  0.2709 -0.2437 -0.8544
 8783TIP3    H147764   0.650   1.573   6.360  1.2766 -0.6904 -1.0037
 8783TIP3    H247765   0.662   1.663   6.239 -0.1995 -0.1360 -0.7396
 8784TIP3   OH247766   3.056   3.877  16.802  0.5701 -0.9523  0.2662
 8784TIP3    H147767   3.022   3.796  16.839 -0.2439 -0.8811 -0.3164
 8784TIP3    H247768   3.149   3.859  16.786  0.6583 -1.3757  1.2186
 8785TIP3   OH247769   1.191   3.381  11.398 -0.0451 -0.3864 -0.4171
 8785TIP3    H147770   1.163   3.304  11.448 -1.8182 -0.9705 -2.2206
 8785TIP3    H247771   1.123   3.446  11.414  0.1383 -0.0714 -0.8848
 8786TIP3   OH247772   3.318   6.503   5.846  0.1781 -0.3315 -0.2020
 8786TIP3    H147773   3.231   6.473   5.875  0.5526 -0.1580  1.1067
 8786TIP3    H247774   3.380   6.451   5.897  0.8443  0.1848 -0.4769
 8787TIP3   OH247775   1.664   5.466  13.170 -0.3894  0.0454  0.4541
 8787TIP3    H147776   1.588   5.524  13.174 -0.6799 -0.4205  2.3503
 8787TIP3    H247777   1.732   5.518  13.127 -2.1814 -0.0283 -2.5789
 8788TIP3   OH247778   4.071   6.733   3.825  0.0853 -0.6288  0.1724
 8788TIP3    H147779   4.062   6.657   3.768  1.9532 -0.0252 -0.9508
 8788TIP3    H247780   4.102   6.803   3.768  0.6602  0.3589  1.6660
 8789TIP3   OH247781   1.115   2.306  12.951 -0.5219  0.1512 -0.0153
 8789TIP3    H147782   1.029   2.275  12.979 -0.2064  0.1852  1.0138
 8789TIP3    H247783   1.122   2.393  12.988 -1.2606  1.3745 -2.6208
 8790TIP3   OH247784   5.796   2.590  16.717 -0.0307  0.2180  0.1872
 8790TIP3    H147785   5.740   2.545  16.654  1.1248 -0.7648 -0.1601
 8790TIP3    H247786   5.811   2.676  16.678  1.2522 -0.6258 -1.2616
 8791TIP3   OH247787   2.159   4.904   2.020 -0.0369  0.2846 -0.7253
 8791TIP3    H147788   2.212   4.975   1.985 -1.6655  0.4636 -2.9196
 8791TIP3    H247789   2.159   4.838   1.951  0.4770 -1.3434  0.8102
 8792TIP3   OH247790   2.636   5.120   2.637 -0.0506 -0.2710  0.5910
 8792TIP3    H147791   2.567   5.178   2.604  0.7530  1.2255  1.5189
 8792TIP3    H247792   2.604   5.032   2.617 -0.6702  0.4980 -2.0383
 8793TIP3   OH247793   0.366   4.342   5.300  0.0729 -0.2130 -0.1733
 8793TIP3    H147794   0.333   4.364   5.387 -0.5211  0.4973 -0.5761
 8793TIP3    H247795   0.394   4.426   5.263  1.0414 -0.6170 -0.3748
 8794TIP3   OH247796   1.853   3.442  13.989 -0.1408  0.0903 -0.4214
 8794TIP3    H147797   1.802   3.507  13.941 -1.0384  0.5612  1.1182
 8794TIP3    H247798   1.919   3.493  14.037 -0.4424 -0.1859  0.2996
 8795TIP3   OH247799   0.374   3.358  13.716  0.0003 -0.2909 -0.0017
 8795TIP3    H147800   0.409   3.447  13.715  0.6667 -0.5222  1.4566
 8795TIP3    H247801   0.370   3.333  13.624  1.6745  0.5364 -0.3298
 8796TIP3   OH247802   0.894   0.725   4.017 -0.5098  0.2725 -0.2415
 8796TIP3    H147803   0.884   0.707   3.923  0.7512 -1.8368 -0.0157
 8796TIP3    H247804   0.809   0.704   4.054 -0.6763 -0.0120 -0.7673
 8797TIP3   OH247805   0.219   6.507   0.204  0.2981 -0.0907  0.3015
 8797TIP3    H147806   0.161   6.571   0.246 -1.2759  0.3222 -2.3595
 8797TIP3    H247807   0.176   6.423   0.218 -0.1332  0.0251 -0.3092
 8798TIP3   OH247808   6.427   2.062  15.020 -0.2540  0.0584  0.1825
 8798TIP3    H147809   6.453   2.154  15.010 -1.0202  0.5005  2.0452
 8798TIP3    H247810   6.509   2.016  15.036  0.2794  0.2145 -1.9516
 8799TIP3   OH247811   5.198   4.127  16.900 -0.5025 -0.4985  0.3114
 8799TIP3    H147812   5.241   4.047  16.871 -0.1250 -0.1042 -0.2171
 8799TIP3    H247813   5.191   4.181  16.821  0.3332  0.4862  0.9054
 8800TIP3   OH247814   4.891   0.532  13.066 -0.6090 -0.2388 -0.3451
 8800TIP3    H147815   4.986   0.527  13.081 -0.5295  0.1880 -0.7074
 8800TIP3    H247816   4.868   0.447  13.029  0.0949  0.6264 -2.8521
 8801TIP3   OH247817   5.637   0.948  10.560 -0.2842 -0.0865  0.1710
 8801TIP3    H147818   5.730   0.952  10.580 -0.2281 -0.5637  0.0186
 8801TIP3    H247819   5.624   0.860  10.524 -0.8749 -0.2044  0.6501
 8802TIP3   OH247820   5.425   4.128   2.105  0.5094 -0.2313 -0.1854
 8802TIP3    H147821   5.458   4.217   2.092  1.2538 -0.5977 -0.8433
 8802TIP3    H247822   5.362   4.115   2.034  1.0772 -0.5475 -0.6380
 8803TIP3   OH247823   2.835   1.401   1.979 -0.1208 -0.5062 -0.1622
 8803TIP3    H147824   2.766   1.350   1.936 -0.4660  0.1421 -0.3800
 8803TIP3    H247825   2.788   1.463   2.036  0.2898 -0.2922 -0.0525
 8804TIP3   OH247826   5.250   0.072  12.632 -0.0629  0.7765 -0.5855
 8804TIP3    H147827   5.168   0.023  12.644 -0.2544  0.9174 -1.2911
 8804TIP3    H247828   5.249   0.138  12.701 -0.1903  0.3075 -0.1331
 8805TIP3   OH247829   6.147   0.358  11.709  0.0299 -0.4284  0.2967
 8805TIP3    H147830   6.219   0.330  11.651  0.7528  2.0471 -0.0512
 8805TIP3    H247831   6.185   0.357  11.796 -0.1395 -1.1127  0.3686
 8806TIP3   OH247832   2.000   4.898  15.355 -0.5180  0.1897 -0.1600
 8806TIP3    H147833   2.055   4.828  15.319  0.5893  0.3718  1.1338
 8806TIP3    H247834   1.914   4.857  15.365  0.2527 -1.1900  1.1125
 8807TIP3   OH247835   6.032   6.222   3.212  0.0293 -0.1742 -0.0496
 8807TIP3    H147836   5.991   6.305   3.235  0.7219  0.2895 -0.4617
 8807TIP3    H247837   6.094   6.205   3.284  0.6401  0.1900 -0.4919
 8808TIP3   OH247838   0.041   3.432   6.233  0.4473 -0.1932 -0.4604
 8808TIP3    H147839  -0.006   3.428   6.317 -0.0590 -1.4621 -0.7962
 8808TIP3    H247840   0.129   3.463   6.257  0.5006 -1.1400  0.6179
 8809TIP3   OH247841   1.383   1.044   4.739  0.4234 -0.3690  0.0416
 8809TIP3    H147842   1.419   1.114   4.684 -0.0190 -0.3718 -0.2525
 8809TIP3    H247843   1.407   1.069   4.828  0.7873 -0.1540 -0.1150
 8810TIP3   OH247844   3.765   3.612  11.737  0.0137 -0.9220  0.0343
 8810TIP3    H147845   3.778   3.518  11.720 -3.0691 -1.6479  1.3297
 8810TIP3    H247846   3.748   3.617  11.831 -1.2085  0.7713 -0.2564
 8811TIP3   OH247847   3.725   6.092  14.835  0.4460 -0.7281  0.3313
 8811TIP3    H147848   3.779   6.086  14.913  3.4032  1.6057 -1.4163
 8811TIP3    H247849   3.765   6.030  14.774  0.4161  0.1198 -0.5613
 8812TIP3   OH247850   2.630   4.129  13.361  0.2346  0.4476  0.1608
 8812TIP3    H147851   2.619   4.066  13.290  0.5358 -1.2501  1.5710
 8812TIP3    H247852   2.694   4.089  13.420  1.0226  2.4365  0.7116
 8813TIP3   OH247853   4.202   0.353   2.003  0.4406 -0.2375  0.2493
 8813TIP3    H147854   4.137   0.310   1.949 -0.2077 -1.6907  2.1188
 8813TIP3    H247855   4.244   0.417   1.945  0.1480 -2.1020 -2.0824
 8814TIP3   OH247856   5.950   3.400  14.228  0.1450  0.4632  0.5367
 8814TIP3    H147857   5.866   3.392  14.274 -0.0808  0.5596  0.1318
 8814TIP3    H247858   6.009   3.343  14.279  0.9059  3.5714  3.3079
 8815TIP3   OH247859   6.080   0.097  12.398 -0.6828 -0.6392 -0.2122
 8815TIP3    H147860   6.120   0.019  12.439 -0.5969 -0.7794 -0.5654
 8815TIP3    H247861   6.002   0.064  12.354 -0.6009 -0.5395 -0.4334
 8816TIP3   OH247862   5.154   1.515   6.027  0.3747  0.2865  0.7417
 8816TIP3    H147863   5.172   1.470   5.944 -0.0584  2.1297 -0.3725
 8816TIP3    H247864   5.232   1.568   6.043  0.2632  0.2916  1.2740
 8817TIP3   OH247865   0.813   0.395   4.511  0.6191  0.2251  0.1112
 8817TIP3    H147866   0.867   0.333   4.462  1.8530  1.0537  0.3788
 8817TIP3    H247867   0.806   0.357   4.599  0.6438  0.0404  0.0321
 8818TIP3   OH247868   2.384   3.966  11.599  0.5055 -0.1475  0.0911
 8818TIP3    H147869   2.423   4.028  11.537  0.8351 -0.3640  0.0765
 8818TIP3    H247870   2.341   3.901  11.543 -0.9704  0.7831  0.1295
 8819TIP3   OH247871   1.839   1.935   1.541 -0.4899 -0.0756  0.1647
 8819TIP3    H147872   1.865   1.875   1.612 -0.9129  0.3850  0.7154
 8819TIP3    H247873   1.921   1.971   1.508 -0.3668  0.7735  1.3629
 8820TIP3   OH247874   5.812   2.983  17.084  0.5274  0.0403  0.0276
 8820TIP3    H147875   5.721   2.969  17.112  0.3989  0.7290 -0.0399
 8820TIP3    H247876   5.855   2.899  17.099  0.2176  0.1170  1.3348
 8821TIP3   OH247877   2.676   0.808   4.252 -0.1171  0.6998 -0.3458
 8821TIP3    H147878   2.629   0.875   4.301  0.4056 -0.1321  1.3631
 8821TIP3    H247879   2.755   0.852   4.220  1.0226  0.5433  2.1289
 8822TIP3   OH247880   2.232   3.020  10.377  0.3478  0.0109 -0.0947
 8822TIP3    H147881   2.275   2.970  10.309 -1.5435 -1.0632 -0.5436
 8822TIP3    H247882   2.176   3.082  10.329  0.2483  0.3647  0.4703
 8823TIP3   OH247883   4.284   2.837  16.225 -0.0336 -0.4048  0.2498
 8823TIP3    H147884   4.311   2.893  16.153 -0.5210 -2.9281 -1.9603
 8823TIP3    H247885   4.359   2.780  16.241 -0.3247 -0.5774  1.0374
 8824TIP3   OH247886   4.337   4.067   3.495  0.1619 -0.3299  0.4141
 8824TIP3    H147887   4.418   4.116   3.479 -0.7890  0.9453 -0.6056
 8824TIP3    H247888   4.366   3.980   3.521  1.8789  0.5912  1.6175
 8825TIP3   OH247889   2.793   3.517   3.446 -0.7589 -0.1939 -0.4544
 8825TIP3    H147890   2.876   3.509   3.493 -1.0858  0.8746  0.3414
 8825TIP3    H247891   2.761   3.605   3.469 -1.4726 -0.0864 -1.8020
 8826TIP3   OH247892   0.122   2.362  11.621  0.6153  0.2615 -0.2058
 8826TIP3    H147893   0.148   2.338  11.532  3.0031  2.6719 -0.2306
 8826TIP3    H247894   0.128   2.458  11.623  0.4087  0.2640  2.5090
 8827TIP3   OH247895   4.801   2.389  14.075 -0.5216 -0.8606 -0.5902
 8827TIP3    H147896   4.726   2.336  14.050  0.3627 -1.4331 -2.0851
 8827TIP3    H247897   4.873   2.327  14.083  0.2486 -0.0632 -1.1369
 8828TIP3   OH247898   3.059   2.390  12.790 -0.3474 -0.4220 -0.7086
 8828TIP3    H147899   3.126   2.453  12.766 -0.2488 -1.3841 -3.0980
 8828TIP3    H247900   2.980   2.420  12.745 -1.2804  0.0957  1.2041
 8829TIP3   OH247901   3.415   2.960  11.396  0.1340 -0.1670 -0.4824
 8829TIP3    H147902   3.394   3.006  11.477 -0.1535 -0.1728 -0.5558
 8829TIP3    H247903   3.459   2.880  11.424  0.2766 -0.0411 -0.3429
 8830TIP3   OH247904   6.140   0.792   0.244 -0.6507 -0.5289  0.0795
 8830TIP3    H147905   6.116   0.761   0.156  0.1884  0.2873 -0.4411
 8830TIP3    H247906   6.073   0.857   0.265 -2.1065 -2.2687  0.9527
 8831TIP3   OH247907   0.466   5.504  16.882  0.9536  0.1947  0.9306
 8831TIP3    H147908   0.450   5.599  16.880 -0.0339  0.0188  0.3782
 8831TIP3    H247909   0.559   5.496  16.905  0.5579  1.2472  3.0611
 8832TIP3   OH247910   6.724   6.598   0.270 -0.2758  0.7989  0.8115
 8832TIP3    H147911   6.671   6.588   0.349  0.9853  0.1996  1.6019
 8832TIP3    H247912   6.661   6.604   0.198 -1.4427  1.7851  1.9054
 8833TIP3   OH247913   2.576   1.760   0.575  0.0315  0.1982 -0.7177
 8833TIP3    H147914   2.547   1.733   0.488  1.8137  0.7764 -1.5203
 8833TIP3    H247915   2.542   1.849   0.584 -0.0097  0.2011 -0.8947
 8834TIP3   OH247916   3.155   2.084   6.354 -0.5262 -0.1385  0.3998
 8834TIP3    H147917   3.062   2.088   6.333 -0.0543  0.6251 -1.6276
 8834TIP3    H247918   3.159   2.104   6.448 -2.4903 -1.3857  0.7822
 8835TIP3   OH247919   4.809   3.461   1.679 -0.6809  0.4516  0.2036
 8835TIP3    H147920   4.832   3.532   1.620 -1.0754  0.5857  0.2135
 8835TIP3    H247921   4.886   3.404   1.679 -0.0680  1.2593  0.7670
 8836TIP3   OH247922   5.490   1.595   3.759  0.2222  0.1593 -0.0086
 8836TIP3    H147923   5.454   1.518   3.715 -0.2986  0.1162  0.4851
 8836TIP3    H247924   5.433   1.667   3.732 -1.2346 -0.1930  2.0576
 8837TIP3   OH247925   5.327   6.786  16.485  0.2075  0.8570 -0.2447
 8837TIP3    H147926   5.389   6.852  16.454  0.4117  0.3043 -1.0219
 8837TIP3    H247927   5.257   6.786  16.420 -0.8892  1.8490  0.8931
 8838TIP3   OH247928   3.929   5.193  13.363  0.0128  0.3619 -0.0699
 8838TIP3    H147929   3.866   5.258  13.394 -1.0953  0.0465 -1.6103
 8838TIP3    H247930   3.875   5.121  13.332  1.1547 -0.0081 -1.2229
 8839TIP3   OH247931   5.317   4.297  15.625  0.3978  0.1856  1.0155
 8839TIP3    H147932   5.406   4.331  15.624  0.3709  0.3039  2.5366
 8839TIP3    H247933   5.261   4.374  15.619  0.3904  0.0455 -1.1035
 8840TIP3   OH247934   6.412   1.738   3.961  0.0630  0.0333  0.0990
 8840TIP3    H147935   6.349   1.784   3.905  1.0711  0.6447 -0.5592
 8840TIP3    H247936   6.358   1.689   4.023 -1.0525  1.1408  0.0242
 8841TIP3   OH247937   5.991   3.353  13.948  0.2664 -0.1434 -0.2819
 8841TIP3    H147938   5.987   3.261  13.922  1.1266 -0.3877  0.4370
 8841TIP3    H247939   5.978   3.352  14.043 -0.2836  0.5254 -0.3471
 8842TIP3   OH247940   0.020   3.288  12.074 -0.1271 -0.1851  0.4354
 8842TIP3    H147941   0.087   3.225  12.048  2.3906  2.9507 -1.0753
 8842TIP3    H247942   0.055   3.330  12.152  0.1674  2.1046 -0.8703
 8843TIP3   OH247943   3.641   2.287  16.936  0.1770 -0.1305  0.0150
 8843TIP3    H147944   3.664   2.199  16.965 -0.0097  0.3426  1.6154
 8843TIP3    H247945   3.686   2.346  16.996 -1.4659  0.8445  0.3352
 8844TIP3   OH247946   0.852   5.571  10.714  0.0007 -0.8257 -0.5983
 8844TIP3    H147947   0.943   5.586  10.686 -0.3551  0.2687 -1.2253
 8844TIP3    H247948   0.829   5.487  10.676  0.8634 -1.2804 -0.1461
 8845TIP3   OH247949   2.702   0.529  11.821 -0.1822 -0.4232  0.2766
 8845TIP3    H147950   2.689   0.621  11.797 -1.4677 -1.4911 -3.4756
 8845TIP3    H247951   2.797   0.519  11.828 -0.0027  1.0417  0.1013
 8846TIP3   OH247952   1.124   4.084  13.000 -0.6165 -0.3392  0.0143
 8846TIP3    H147953   1.117   4.004  12.947  1.7002  0.4273 -1.5554
 8846TIP3    H247954   1.118   4.054  13.090  0.9742 -2.4299 -0.5247
 8847TIP3   OH247955   5.667   0.705   5.417 -0.4416 -0.9439 -0.0109
 8847TIP3    H147956   5.745   0.759   5.428 -0.4587 -0.7070 -1.0102
 8847TIP3    H247957   5.597   0.755   5.459  0.2514 -1.9525  2.4273
 8848TIP3   OH247958   5.687   3.133  13.909 -0.1243 -0.2458 -0.0496
 8848TIP3    H147959   5.619   3.180  13.957  0.4850 -1.4561  2.0551
 8848TIP3    H247960   5.651   3.122  13.821 -2.2743 -0.0840  0.7851
 8849TIP3   OH247961   6.526   4.383   1.059 -0.7518 -0.5422 -0.1104
 8849TIP3    H147962   6.588   4.447   1.093 -0.2864 -0.8338 -0.3912
 8849TIP3    H247963   6.444   4.400   1.105 -1.1809  1.4972 -1.5693
 8850TIP3   OH247964   4.171   0.850  14.859  0.2584  0.9654 -0.4726
 8850TIP3    H147965   4.122   0.773  14.887  0.3606  0.8322 -0.6553
 8850TIP3    H247966   4.130   0.924  14.905  0.4896  0.7367  0.1057
 8851TIP3   OH247967   3.339   3.228   6.321  0.2720  0.2211  0.2709
 8851TIP3    H147968   3.268   3.182   6.277  0.2078  0.1341  0.4645
 8851TIP3    H247969   3.300   3.262   6.401  0.2303  0.9264 -0.0492
 8852TIP3   OH247970   3.258   5.357  16.637  0.1026 -0.1797 -0.3173
 8852TIP3    H147971   3.316   5.282  16.645  0.0949 -0.0737  0.7209
 8852TIP3    H247972   3.317   5.432  16.626  0.1262 -0.2284 -0.5346
 8853TIP3   OH247973   2.826   6.298  12.485 -0.6290 -0.9605 -0.5361
 8853TIP3    H147974   2.859   6.230  12.425 -1.7904 -1.0505 -1.0818
 8853TIP3    H247975   2.742   6.324  12.447 -0.0199  1.0557 -0.5269
 8854TIP3   OH247976   5.645   2.722   0.796  0.2005 -0.0166 -0.1802
 8854TIP3    H147977   5.680   2.662   0.730 -2.3504 -2.7789  0.8949
 8854TIP3    H247978   5.553   2.697   0.805 -0.2438  2.2695  2.3049
 8855TIP3   OH247979   0.544   0.234   0.844  0.2906 -0.3107 -0.5428
 8855TIP3    H147980   0.511   0.282   0.920  0.3937  0.0169 -0.7065
 8855TIP3    H247981   0.636   0.220   0.863  0.4890  0.4259 -0.9476
 8856TIP3   OH247982   5.512   5.102   1.438 -0.2238  0.5464  0.2778
 8856TIP3    H147983   5.470   5.039   1.496  0.5459 -1.0777 -0.8952
 8856TIP3    H247984   5.519   5.182   1.491 -2.3377  0.0501  1.3545
 8857TIP3   OH247985   5.520   4.331  16.283  0.1472 -0.3466 -0.0860
 8857TIP3    H147986   5.517   4.424  16.258  0.1070 -0.5028 -0.6769
 8857TIP3    H247987   5.569   4.330  16.365  1.8842 -0.0113 -1.0919
 8858TIP3   OH247988   1.688   3.638  13.904  0.2018 -0.4403 -0.3555
 8858TIP3    H147989   1.660   3.730  13.901  2.2784  0.3284  1.9775
 8858TIP3    H247990   1.624   3.595  13.960 -0.7824 -0.4283 -1.4595
 8859TIP3   OH247991   5.555   5.272  16.263  0.5471 -0.2696 -0.5667
 8859TIP3    H147992   5.553   5.307  16.352  2.3285  2.0250 -1.3677
 8859TIP3    H247993   5.465   5.244  16.246 -0.2071  0.8797  1.3334
 8860TIP3   OH247994   0.001   1.245  13.664  0.2605  0.5512  0.0398
 8860TIP3    H147995   0.049   1.285  13.736  0.9004 -1.2881  0.6668
 8860TIP3    H247996   0.068   1.223  13.600  0.1537 -1.0608  0.4554
 8861TIP3   OH247997   5.195   4.473  17.028 -0.4906  0.2900  0.4681
 8861TIP3    H147998   5.243   4.416  17.088 -0.3046 -1.1311 -0.9913
 8861TIP3    H247999   5.120   4.419  16.999  0.4224  0.2711 -1.9549
 8862TIP3   OH248000   2.266   2.943  11.936  0.4506 -0.2369  0.0009
 8862TIP3    H148001   2.257   3.020  11.991 -0.8235  0.6579 -1.4289
 8862TIP3    H248002   2.177   2.922  11.908  0.8438 -1.8666 -0.1286
 8863TIP3   OH248003   0.965   4.253   0.684 -0.5323 -0.1121 -0.3280
 8863TIP3    H148004   0.992   4.179   0.629 -0.5574  0.9262 -1.7858
 8863TIP3    H248005   0.879   4.277   0.649 -1.0898 -0.1974  0.9726
 8864TIP3   OH248006   3.869   3.788   3.491 -0.0938  0.4160  0.5765
 8864TIP3    H148007   3.938   3.851   3.509  0.1779  0.2927 -0.0202
 8864TIP3    H248008   3.877   3.721   3.560  1.9445 -0.8992 -0.8944
 8865TIP3   OH248009   2.429   2.307   0.072  0.0033 -0.2532 -0.2846
 8865TIP3    H148010   2.421   2.324  -0.022  1.5381  1.4190 -0.1315
 8865TIP3    H248011   2.476   2.383   0.106  2.8301 -2.5853  1.2138
 8866TIP3   OH248012   4.118   5.615  13.424 -0.2047  0.4564  0.0884
 8866TIP3    H148013   4.149   5.549  13.487 -0.4464 -0.9196 -1.2110
 8866TIP3    H248014   4.103   5.693  13.477  0.1240 -0.5196  1.6568
 8867TIP3   OH248015   3.685   2.199   4.848  0.5133  0.3905 -0.2934
 8867TIP3    H148016   3.748   2.212   4.919  1.5215 -2.0016 -0.6999
 8867TIP3    H248017   3.610   2.158   4.890  1.0968 -0.9946 -0.5906
 8868TIP3   OH248018   5.870   3.669   1.362 -0.8778 -0.5516  0.6203
 8868TIP3    H148019   5.931   3.598   1.343  0.7263  0.5496  1.5140
 8868TIP3    H248020   5.788   3.625   1.385  0.5701 -2.1822  2.8883
 8869TIP3   OH248021   0.956   5.642  11.137  0.4579  0.3992  0.7840
 8869TIP3    H148022   1.028   5.652  11.076 -1.2152  0.8934 -1.1523
 8869TIP3    H248023   0.916   5.558  11.114  0.1360  0.3268  1.5649
 8870TIP3   OH248024   6.688   4.536  14.632 -0.1140 -0.4548  0.1120
 8870TIP3    H148025   6.631   4.583  14.571  0.3794 -2.5158 -2.0180
 8870TIP3    H248026   6.773   4.579  14.624 -0.2052 -0.3346 -0.1960
 8871TIP3   OH248027   5.351   0.612   4.410 -0.8865  0.2700  0.0194
 8871TIP3    H148028   5.288   0.568   4.354  0.9916 -3.4639  0.7074
 8871TIP3    H248029   5.342   0.569   4.495  1.8426  0.3622  0.3953
 8872TIP3   OH248030   5.449   5.450  12.345  0.1508 -0.2783 -0.1254
 8872TIP3    H148031   5.501   5.460  12.425  1.0267  0.0398 -0.7286
 8872TIP3    H248032   5.513   5.441  12.275 -0.5705  1.9390 -1.1266
 8873TIP3   OH248033   6.331   4.550  14.252 -0.1901  0.1679  0.1698
 8873TIP3    H148034   6.255   4.518  14.203 -0.3621  1.3284 -0.3494
 8873TIP3    H248035   6.406   4.523  14.200 -0.1930 -1.7624  1.1443
 8874TIP3   OH248036   3.369   6.410   5.579  0.2283 -0.3081  0.1374
 8874TIP3    H148037   3.419   6.450   5.508 -2.7094  1.3788 -1.0653
 8874TIP3    H248038   3.345   6.484   5.636 -2.0994 -0.8404 -0.1005
 8875TIP3   OH248039   5.544   1.938   4.977 -1.1005  0.0645  0.3748
 8875TIP3    H148040   5.511   1.874   4.914 -4.8276  1.1241  1.1012
 8875TIP3    H248041   5.538   2.022   4.930  0.8926  0.2758  0.4615
 8876TIP3   OH248042   4.616   0.048   5.438 -0.1014 -0.4676 -0.1648
 8876TIP3    H148043   4.696   0.038   5.386 -1.0590 -1.7604 -1.4132
 8876TIP3    H248044   4.646   0.087   5.520  1.3361  2.3520 -1.9509
 8877TIP3   OH248045   0.949   4.270  14.010  0.6777  0.6571 -0.7996
 8877TIP3    H148046   1.006   4.337  14.046 -1.1072  0.8281  1.8147
 8877TIP3    H248047   0.990   4.187  14.035 -0.4651  0.7743  1.5822
 8878TIP3   OH248048   5.385   0.604   0.610  0.8461  0.1065 -0.4332
 8878TIP3    H148049   5.315   0.663   0.637  0.8645  0.1492 -0.4782
 8878TIP3    H248050   5.466   0.653   0.628  0.8669  0.0182 -0.2882
 8879TIP3   OH248051   4.345   5.157   4.686 -0.3874 -0.4051  0.8628
 8879TIP3    H148052   4.281   5.228   4.690 -1.0461 -0.8676 -0.9320
 8879TIP3    H248053   4.338   5.114   4.771 -1.5770  0.3141  1.1423
 8880TIP3   OH248054   3.832   3.804   1.933  0.1448  0.1588 -0.4772
 8880TIP3    H148055   3.737   3.806   1.925  0.2617  1.1944 -1.7203
 8880TIP3    H248056   3.848   3.812   2.027 -1.0127 -1.0122 -0.1769
 8881TIP3   OH248057   6.070   0.554   5.676 -0.2192  0.3032 -0.4779
 8881TIP3    H148058   5.984   0.514   5.668 -0.9831  1.8975 -0.3040
 8881TIP3    H248059   6.072   0.590   5.765 -0.7254  3.2873 -1.5990
 8882TIP3   OH248060   6.561   1.920   0.467  0.7470 -0.0363 -0.1109
 8882TIP3    H148061   6.596   1.992   0.521 -0.3311  0.3060  0.1304
 8882TIP3    H248062   6.540   1.961   0.383 -0.0532 -0.0210  0.0928
 8883TIP3   OH248063   5.147   6.236   1.887 -0.2070 -0.2394 -0.6101
 8883TIP3    H148064   5.230   6.243   1.935 -1.4279  1.4777  1.3683
 8883TIP3    H248065   5.168   6.267   1.799  1.7566 -2.0173 -0.8060
 8884TIP3   OH248066   2.447   3.904  15.327  0.4988  0.2318  1.7287
 8884TIP3    H148067   2.361   3.914  15.286  1.0500 -0.8729  0.2827
 8884TIP3    H248068   2.430   3.847  15.402 -0.0960  0.3672  1.7068
 8885TIP3   OH248069   4.635   3.800  12.135  0.2448 -0.5815  1.0185
 8885TIP3    H148070   4.630   3.848  12.218  1.0803  0.1945  0.6166
 8885TIP3    H248071   4.704   3.735  12.149  0.9524  0.0844  0.6627
 8886TIP3   OH248072   1.198   0.231  15.644 -0.2341  0.2297 -0.4189
 8886TIP3    H148073   1.205   0.261  15.554  0.6372  0.7604 -0.1754
 8886TIP3    H248074   1.158   0.304  15.691  0.2105  0.3167 -0.1803
 8887TIP3   OH248075   3.164   4.254   2.543  0.0016 -0.1244 -0.0374
 8887TIP3    H148076   3.196   4.338   2.510  0.9690 -1.0976 -1.6409
 8887TIP3    H248077   3.193   4.251   2.634  1.7542  0.3760 -0.5587
 8888TIP3   OH248078   1.830   1.222   0.673  0.2770  0.2584  0.5305
 8888TIP3    H148079   1.905   1.179   0.715  0.9084  1.2042  0.3771
 8888TIP3    H248080   1.837   1.314   0.699  0.2009  0.7007 -0.9646
 8889TIP3   OH248081   2.212   2.067  13.968 -0.0185  0.0440  0.1977
 8889TIP3    H148082   2.157   2.019  13.905 -0.6833 -0.3156  1.0402
 8889TIP3    H248083   2.161   2.067  14.049  0.6623  0.8462  0.6307
 8890TIP3   OH248084   3.893   1.128  13.805  0.1706  0.4761  0.3919
 8890TIP3    H148085   3.894   1.114  13.899  0.4092 -0.3327  0.2710
 8890TIP3    H248086   3.936   1.050  13.768 -0.0813  0.7001 -0.3922
 8891TIP3   OH248087   5.984   4.062  11.087 -0.1896 -0.5331  0.7334
 8891TIP3    H148088   5.945   3.974  11.092  0.7443 -1.2014 -2.2783
 8891TIP3    H248089   6.075   4.047  11.062 -0.3602  1.3139 -1.1696
 8892TIP3   OH248090   3.050   3.599  13.312 -0.0052  0.8612  0.4921
 8892TIP3    H148091   3.102   3.595  13.393  0.2306  0.3338  0.3206
 8892TIP3    H248092   3.108   3.643  13.249 -0.5477  2.1364  0.8727
 8893TIP3   OH248093   3.602   0.643  15.001 -0.1456 -0.1675  0.4165
 8893TIP3    H148094   3.629   0.553  14.983 -0.7039 -0.5483  1.4578
 8893TIP3    H248095   3.518   0.634  15.046 -1.5038  0.9687 -1.7945
 8894TIP3   OH248096   0.368   2.588  13.395 -0.2762 -0.2100  0.5926
 8894TIP3    H148097   0.380   2.511  13.452 -0.1412 -1.4283 -1.0572
 8894TIP3    H248098   0.287   2.570  13.347  0.8208 -0.2615 -1.2635
 8895TIP3   OH248099   2.456   4.041  13.778  0.0743  0.0503  0.3271
 8895TIP3    H148100   2.402   4.023  13.701 -2.9658  2.3616  1.7993
 8895TIP3    H248101   2.415   3.992  13.849  0.6256  0.8528  1.2208
 8896TIP3   OH248102   5.401   4.008  15.636 -0.1121  0.3704  0.1924
 8896TIP3    H148103   5.330   4.068  15.613 -0.2219 -0.3885 -1.5136
 8896TIP3    H248104   5.475   4.036  15.581  0.4903  0.2712  0.9374
 8897TIP3   OH248105   3.416   3.475  16.817  0.5316 -0.4217 -0.4486
 8897TIP3    H148106   3.498   3.447  16.777  1.3629  0.5326  0.5714
 8897TIP3    H248107   3.395   3.407  16.880  0.8190 -0.4100 -0.3381
 8898TIP3   OH248108   5.007   6.752  12.663 -0.3847 -0.6677  0.0111
 8898TIP3    H148109   4.932   6.789  12.709 -0.2858 -0.0666 -0.3066
 8898TIP3    H248110   4.971   6.715  12.582 -0.4580 -1.1136  0.2469
 8899TIP3   OH248111   5.770   6.602   4.902  0.2967 -0.0570 -0.4649
 8899TIP3    H148112   5.685   6.561   4.888 -0.3754  1.4454 -0.9508
 8899TIP3    H248113   5.824   6.570   4.830 -0.5537  0.7584 -1.4876
 8900TIP3   OH248114   6.649   4.727   3.445 -0.2077 -0.2239  0.3546
 8900TIP3    H148115   6.558   4.735   3.415 -0.0673 -1.4724 -0.4193
 8900TIP3    H248116   6.695   4.686   3.372  0.9579  0.2837  0.7980
 8901TIP3   OH248117   4.750   5.853   6.407 -0.0552 -0.0877 -0.2415
 8901TIP3    H148118   4.773   5.793   6.478  0.0712 -2.1323 -1.9586
 8901TIP3    H248119   4.694   5.919   6.447 -0.2632 -1.4154  1.6700
 8902TIP3   OH248120   0.089   3.414  16.548  0.3619 -0.4840 -0.0140
 8902TIP3    H148121   0.073   3.423  16.454  0.9102  1.0533  0.0219
 8902TIP3    H248122   0.183   3.397  16.555  0.4517  0.1249  0.2906
 8903TIP3   OH248123   6.354   0.306  12.376 -0.0424  0.2916 -0.9687
 8903TIP3    H148124   6.270   0.327  12.416 -0.0916  0.3811 -1.1189
 8903TIP3    H248125   6.418   0.323  12.444 -0.0529  1.2346 -1.1871
 8904TIP3   OH248126   4.899   1.055   4.376 -0.4185  0.0275 -0.2618
 8904TIP3    H148127   4.887   1.113   4.301  0.3095  0.4079 -0.0971
 8904TIP3    H248128   4.971   0.997   4.351  0.3474  0.6581  0.4227
 8905TIP3   OH248129   4.911   6.628   2.885  0.3354 -0.1633  0.4660
 8905TIP3    H148130   4.991   6.677   2.906  0.5820 -0.9808  1.4431
 8905TIP3    H248131   4.888   6.585   2.967 -1.0166 -0.0691  0.1330
 8906TIP3   OH248132   2.770   3.890   1.950 -0.0438  0.2129 -0.5102
 8906TIP3    H148133   2.808   3.957   1.893  0.1321  0.8957  0.3979
 8906TIP3    H248134   2.765   3.931   2.036 -1.2905 -0.4490 -0.2469
 8907TIP3   OH248135   0.685   5.652  14.653 -0.4171 -0.4383 -0.0975
 8907TIP3    H148136   0.711   5.712  14.582 -1.5601  0.9347  0.6040
 8907TIP3    H248137   0.599   5.685  14.681 -0.6277 -1.8527  0.9555
 8908TIP3   OH248138   3.700   3.401  13.813 -0.2658  0.0028 -0.1463
 8908TIP3    H148139   3.655   3.408  13.897 -1.8655  0.9600 -1.0523
 8908TIP3    H248140   3.793   3.393  13.836 -0.7835 -0.9519  1.7306
 8909TIP3   OH248141   2.112   1.314  14.848 -0.0829 -0.4393  0.0629
 8909TIP3    H148142   2.154   1.244  14.799  0.0523 -2.2548  2.6612
 8909TIP3    H248143   2.177   1.342  14.912 -0.4904  1.4040 -0.2732
 8910TIP3   OH248144   4.903   3.112  11.947 -0.1460 -0.3663 -0.6945
 8910TIP3    H148145   4.825   3.058  11.944 -0.3993 -0.2259  1.7344
 8910TIP3    H248146   4.947   3.085  12.028  0.6585  1.7546 -0.3857
 8911TIP3   OH248147   2.386   2.553  12.697  0.8995  0.2125  0.3141
 8911TIP3    H148148   2.315   2.616  12.679  0.0316 -1.3804 -2.0726
 8911TIP3    H248149   2.360   2.512  12.779 -1.6796 -1.2633 -1.1768
 8912TIP3   OH248150   2.851   6.054  14.703  0.0800  0.7920 -0.2556
 8912TIP3    H148151   2.805   6.076  14.622 -0.8890 -0.3572 -0.0249
 8912TIP3    H248152   2.912   5.984  14.678  0.3759  1.0129 -0.1600
 8913TIP3   OH248153   0.839   4.364  14.839 -0.0247  0.1849  0.0123
 8913TIP3    H148154   0.821   4.408  14.922 -0.2099  0.1336  0.0008
 8913TIP3    H248155   0.913   4.306  14.858 -0.8078 -0.6901  0.4514
 8914TIP3   OH248156   3.134   2.680   5.215  0.6605  0.1067  0.3204
 8914TIP3    H148157   3.182   2.756   5.248  1.5406 -0.6540  0.8191
 8914TIP3    H248158   3.050   2.684   5.260  2.4853 -1.9294  4.1535
 8915TIP3   OH248159   1.578   1.211   3.588 -0.2242  0.2777  0.6191
 8915TIP3    H148160   1.553   1.262   3.510 -0.1118  0.6759  0.8423
 8915TIP3    H248161   1.545   1.263   3.662 -1.4417 -0.7179  0.7886
 8916TIP3   OH248162   4.860   5.041   0.787  0.7155 -0.0587 -0.1818
 8916TIP3    H148163   4.915   4.983   0.735 -0.3189 -0.0942 -1.2718
 8916TIP3    H248164   4.859   5.002   0.874  1.0339 -0.9894 -0.5853
 8917TIP3   OH248165   1.736   5.150   1.267  0.0788  0.1156  0.5726
 8917TIP3    H148166   1.817   5.149   1.216 -0.1240  2.6219  0.1400
 8917TIP3    H248167   1.766   5.142   1.358  0.7761  0.1786  0.3547
 8918TIP3   OH248168   4.688   1.720   3.637  0.3978  0.8149  0.2526
 8918TIP3    H148169   4.729   1.775   3.569 -0.8271  0.5481 -0.7185
 8918TIP3    H248170   4.754   1.715   3.706  2.7026 -1.0027 -1.9957
 8919TIP3   OH248171   5.888   2.408   1.419  0.4378  0.4191  0.4122
 8919TIP3    H148172   5.848   2.492   1.396 -1.2475 -0.9497 -1.8582
 8919TIP3    H248173   5.852   2.346   1.355  1.0209 -2.2008  2.5543
 8920TIP3   OH248174   6.558   2.061  11.506  0.0948 -0.3243  0.0347
 8920TIP3    H148175   6.513   2.015  11.435 -1.5456  1.0881  0.1445
 8920TIP3    H248176   6.569   1.995  11.574 -0.9237 -0.9416 -0.3916
 8921TIP3   OH248177   5.253   1.510  10.765  0.0870  0.4256 -0.4224
 8921TIP3    H148178   5.342   1.538  10.742  0.6270 -1.2772 -0.4352
 8921TIP3    H248179   5.228   1.450  10.695 -1.3769  1.4873 -0.8177
 8922TIP3   OH248180   3.241   1.856   1.858  0.1435 -0.4996 -0.1004
 8922TIP3    H148181   3.210   1.766   1.854  0.1963 -0.4624 -1.6469
 8922TIP3    H248182   3.239   1.878   1.951 -0.2092 -1.9714  0.2519
 8923TIP3   OH248183   4.720   2.529  16.381  0.3528  0.3511  0.1364
 8923TIP3    H148184   4.739   2.455  16.438  0.4293  1.0041  0.9848
 8923TIP3    H248185   4.767   2.510  16.300  0.8231 -0.2564  0.5462
 8924TIP3   OH248186   0.300   2.378  14.167  0.3200 -0.9718 -0.0671
 8924TIP3    H148187   0.235   2.446  14.186  1.7820  0.8215 -1.2982
 8924TIP3    H248188   0.264   2.328  14.094  0.1671 -0.1930 -0.5232
 8925TIP3   OH248189   0.851   2.433   5.729  0.1497 -0.4115 -0.5064
 8925TIP3    H148190   0.857   2.522   5.694 -2.8448 -0.1785 -0.5257
 8925TIP3    H248191   0.866   2.443   5.823  1.6524 -0.1644 -0.7588
 8926TIP3   OH248192   1.398   3.296   3.058 -0.2161 -0.1351 -0.0734
 8926TIP3    H148193   1.479   3.347   3.059 -0.6502  0.5508  0.6880
 8926TIP3    H248194   1.400   3.250   2.974  0.7097  0.2809 -0.2882
 8927TIP3   OH248195   4.961   4.905  16.764  0.6870  0.2054 -0.1666
 8927TIP3    H148196   4.925   4.822  16.794  0.4716  0.0464 -0.8545
 8927TIP3    H248197   4.975   4.956  16.844  1.4438 -0.7470  0.3119
 8928TIP3   OH248198   1.387   3.457  16.794  0.2541 -0.8245  0.0615
 8928TIP3    H148199   1.396   3.524  16.726  0.3714  0.2804  1.1494
 8928TIP3    H248200   1.435   3.382  16.760 -1.7704 -1.1497 -2.1847
 8929TIP3   OH248201   0.865   5.172  12.419 -0.2618 -0.7202  1.0108
 8929TIP3    H148202   0.786   5.152  12.368 -0.5271 -1.1433  1.5830
 8929TIP3    H248203   0.841   5.150  12.509 -0.7260  2.6413  1.7642
 8930TIP3   OH248204   2.584   3.119   5.753  0.3305  0.6247  0.4598
 8930TIP3    H148205   2.624   3.036   5.727  0.0498 -0.5570  3.5519
 8930TIP3    H248206   2.655   3.183   5.751  1.8020 -0.8322  3.0359
 8931TIP3   OH248207   5.917   5.552  11.653  0.0445 -0.3433 -0.4343
 8931TIP3    H148208   5.965   5.492  11.709 -2.0609 -0.4868  1.2514
 8931TIP3    H248209   5.941   5.639  11.685 -1.7290 -0.4397  1.2021
 8932TIP3   OH248210   3.741   1.935   1.637 -0.1857  0.4607 -0.2930
 8932TIP3    H148211   3.743   1.999   1.708  0.8274  1.1265 -0.8954
 8932TIP3    H248212   3.777   1.855   1.675 -0.6546  0.5043  0.2352
 8933TIP3   OH248213   5.388   3.388  11.883 -0.0039  0.3229  0.3091
 8933TIP3    H148214   5.381   3.478  11.915  1.9415  0.1718  1.1880
 8933TIP3    H248215   5.299   3.366  11.855 -0.3465  2.8055 -0.7067
 8934TIP3   OH248216   1.409   5.262  12.820 -0.3871  0.1534 -0.9332
 8934TIP3    H148217   1.403   5.214  12.903  0.9790  1.6117  0.0324
 8934TIP3    H248218   1.407   5.194  12.753 -0.6673 -1.1054  0.3240
 8935TIP3   OH248219   3.556   1.613  16.204  0.4028 -0.3841 -0.4596
 8935TIP3    H148220   3.560   1.609  16.299  1.5971  0.8306 -0.4475
 8935TIP3    H248221   3.463   1.622  16.184  0.3028  1.5680  0.7074
 8936TIP3   OH248222   4.339   0.340  15.346  0.0001  0.1264  1.0318
 8936TIP3    H148223   4.291   0.257  15.344 -2.1258  1.3016  1.8612
 8936TIP3    H248224   4.305   0.386  15.422  1.5284  1.5655  0.8809
 8937TIP3   OH248225   0.560   1.257  15.028 -0.0790  0.0631  0.6265
 8937TIP3    H148226   0.573   1.333  14.971 -0.0662 -0.4609 -0.0757
 8937TIP3    H248227   0.637   1.257  15.086  0.1582  0.3031  0.3137
 8938TIP3   OH248228   3.333   4.552  12.420 -0.1654 -0.0715  0.0479
 8938TIP3    H148229   3.320   4.605  12.342 -2.0580 -1.2587 -0.4902
 8938TIP3    H248230   3.338   4.462  12.388 -1.1308 -0.5871  1.2871
 8939TIP3   OH248231   1.086   2.064  16.210 -0.2657 -0.1804 -0.0479
 8939TIP3    H148232   1.146   2.060  16.285  0.0825 -0.7142 -0.3542
 8939TIP3    H248233   1.107   2.147  16.167 -2.0343  1.2409  1.7472
 8940TIP3   OH248234   0.051   5.800  15.891  0.0362 -0.0579  0.0679
 8940TIP3    H148235   0.033   5.723  15.944  0.2053  0.3439  0.7188
 8940TIP3    H248236   0.015   5.779  15.805 -4.1378  0.9566  1.4751
 8941TIP3   OH248237   5.544   1.535  14.377  0.1219 -0.1928 -0.2543
 8941TIP3    H148238   5.543   1.441  14.396 -0.2899  0.0921  1.1775
 8941TIP3    H248239   5.634   1.562  14.394  0.3946 -0.4249 -1.2506
 8942TIP3   OH248240   3.980   3.549  11.061 -0.1411  0.0122  0.0534
 8942TIP3    H148241   3.887   3.532  11.047 -0.2327  0.9663 -0.5024
 8942TIP3    H248242   3.984   3.636  11.100  0.4369 -0.6160  1.4272
 8943TIP3   OH248243   1.714   5.184  15.462  0.1621  0.5353 -0.0350
 8943TIP3    H148244   1.785   5.177  15.398 -1.2217 -0.1251 -1.5431
 8943TIP3    H248245   1.751   5.235  15.534  2.0806  0.3987 -0.8947
 8944TIP3   OH248246   5.579   0.403   3.688  0.2144  0.3750 -0.8276
 8944TIP3    H148247   5.499   0.388   3.638 -0.0113  0.3526 -0.4631
 8944TIP3    H248248   5.621   0.317   3.692  1.0329  0.6872 -2.3319
 8945TIP3   OH248249   2.957   3.798  12.770  0.2639  0.4438 -0.4061
 8945TIP3    H148250   2.982   3.829  12.683 -0.3015 -0.8866 -1.0485
 8945TIP3    H248251   2.868   3.831  12.782 -0.1248 -0.4411 -0.8520
 8946TIP3   OH248252   6.755   3.346  14.467 -0.1138 -0.3342  0.4726
 8946TIP3    H148253   6.827   3.407  14.458 -0.0952 -0.5153 -0.5836
 8946TIP3    H248254   6.676   3.401  14.461 -0.1047 -0.4438 -0.8089
 8947TIP3   OH248255   0.772   3.267  16.524  0.2455 -0.0944  0.0778
 8947TIP3    H148256   0.846   3.213  16.497 -0.9470 -2.5495  1.5149
 8947TIP3    H248257   0.797   3.300  16.610  0.3445  0.4300 -0.1515
 8948TIP3   OH248258   4.465   2.501  13.332 -0.2932 -0.0107 -0.3217
 8948TIP3    H148259   4.556   2.495  13.304  0.0043 -1.3225  0.9210
 8948TIP3    H248260   4.469   2.501  13.427 -1.5292  1.0507 -0.2566
 8949TIP3   OH248261   4.902   6.406  13.184 -0.1805 -0.3724  0.2147
 8949TIP3    H148262   4.845   6.401  13.261 -0.3445  0.1100  0.1247
 8949TIP3    H248263   4.975   6.348  13.205  0.3442  0.6339  1.2295
 8950TIP3   OH248264   5.718   3.789  13.220 -0.5220  0.0470  0.4580
 8950TIP3    H148265   5.809   3.814  13.236 -0.3214 -0.5117  0.1869
 8950TIP3    H248266   5.691   3.844  13.146  0.1214 -0.9754 -0.5605
 8951TIP3   OH248267   5.964   1.697  10.537 -0.9244  0.4455  0.5680
 8951TIP3    H148268   5.928   1.728  10.454 -2.3431 -0.6991  0.7313
 8951TIP3    H248269   5.889   1.660  10.583  0.3122 -1.2790  1.2615
 8952TIP3   OH248270   3.723   4.106  13.867 -0.3048 -0.0599 -0.3702
 8952TIP3    H148271   3.727   4.020  13.825 -0.5903  0.1652 -0.8696
 8952TIP3    H248272   3.790   4.158  13.823  0.1858 -0.1656  0.2547
 8953TIP3   OH248273   6.650   3.926  14.512  0.1222  0.5397 -0.1924
 8953TIP3    H148274   6.714   3.984  14.552  0.7629  0.3785 -0.9809
 8953TIP3    H248275   6.570   3.978  14.505  0.3180  0.9031  0.2997
 8954TIP3   OH248276   5.385   1.025   2.557  0.0310  0.3253 -0.0313
 8954TIP3    H148277   5.381   0.991   2.468 -1.4757 -0.5067  0.3238
 8954TIP3    H248278   5.473   1.061   2.566  0.3352  0.0169 -1.7066
 8955TIP3   OH248279   0.525   4.109   1.574  0.0787  0.6217 -0.3181
 8955TIP3    H148280   0.602   4.163   1.586  1.0679 -0.6427 -0.8003
 8955TIP3    H248281   0.469   4.129   1.649  1.4028  0.6738  0.6702
 8956TIP3   OH248282   2.366   0.434   5.445  0.5737 -0.0578 -0.0760
 8956TIP3    H148283   2.400   0.357   5.399 -1.0190 -0.3246 -0.8129
 8956TIP3    H248284   2.284   0.404   5.484  0.1207  1.1917 -0.0729
 8957TIP3   OH248285   1.007   2.348   3.879  0.5038 -0.3029 -0.1808
 8957TIP3    H148286   0.999   2.320   3.971 -3.1882 -2.0936 -0.9365
 8957TIP3    H248287   0.986   2.270   3.828 -1.1012  1.5768 -2.5067
 8958TIP3   OH248288   6.474   1.674   5.414  1.0377  0.7140 -0.8634
 8958TIP3    H148289   6.404   1.720   5.368 -2.2847 -0.9792  2.3072
 8958TIP3    H248290   6.486   1.592   5.366 -0.7086  0.0405 -0.1707
 8959TIP3   OH248291   2.240   3.106  15.366 -0.1489  0.3507 -0.0118
 8959TIP3    H148292   2.288   3.139  15.290 -0.1291 -0.4498 -0.3498
 8959TIP3    H248293   2.173   3.173  15.383 -0.9936 -0.0865 -1.5424
 8960TIP3   OH248294   6.583   3.523  12.455  0.3045  0.4731  0.0993
 8960TIP3    H148295   6.513   3.478  12.408  0.7841 -0.8319  0.6056
 8960TIP3    H248296   6.561   3.513  12.548  0.9948  0.3035  0.2533
 8961TIP3   OH248297   1.147   2.579  13.403  0.8324  0.1824 -0.2308
 8961TIP3    H148298   1.153   2.672  13.380  0.1053  0.1423 -0.6049
 8961TIP3    H248299   1.095   2.577  13.483  0.6712  0.0827 -0.3377
 8962TIP3   OH248300   6.722   3.347  15.215 -0.3837  0.1314  0.5241
 8962TIP3    H148301   6.705   3.283  15.284 -0.1934 -1.0508 -0.5121
 8962TIP3    H248302   6.743   3.428  15.262 -2.4596 -0.0439  1.8549
 8963TIP3   OH248303   0.199   5.925  11.955  0.3986  0.0857  0.8483
 8963TIP3    H148304   0.198   5.971  12.039 -0.4849  1.1927  0.2520
 8963TIP3    H248305   0.153   5.984  11.895  0.6674 -0.8733 -0.3172
 8964TIP3   OH248306   1.122   4.829  16.261  0.0407  0.4221 -0.1172
 8964TIP3    H148307   1.050   4.891  16.270 -1.1709 -0.9769  0.0332
 8964TIP3    H248308   1.115   4.798  16.171 -0.8055 -1.2149  0.4960
 8965TIP3   OH248309   5.240   6.334  12.643 -0.1207 -0.1681 -0.0722
 8965TIP3    H148310   5.225   6.417  12.598  0.6757  0.3194  0.5532
 8965TIP3    H248311   5.172   6.276  12.609 -0.8664  0.8228 -0.2906
 8966TIP3   OH248312   5.893   6.352  15.384 -0.8262  0.2724 -0.0143
 8966TIP3    H148313   5.960   6.337  15.452  0.9471  1.4704 -1.4430
 8966TIP3    H248314   5.838   6.421  15.420 -0.9079 -0.2653  0.9108
 8967TIP3   OH248315   6.419   2.085  13.003  0.3201 -0.4157 -0.3984
 8967TIP3    H148316   6.445   1.993  13.005 -0.5742 -0.6459  1.0815
 8967TIP3    H248317   6.324   2.084  13.018  0.4836  0.8061  0.8793
 8968TIP3   OH248318   4.915   0.719  10.156 -0.2688  0.2131 -0.0646
 8968TIP3    H148319   4.932   0.740  10.064  0.7356  0.2563  0.1224
 8968TIP3    H248320   4.969   0.781  10.205  0.6200 -1.0011  0.5246
 8969TIP3   OH248321   2.717   2.072  15.106 -0.1209 -0.5197  0.1604
 8969TIP3    H148322   2.702   2.023  15.026  2.2436 -0.3112 -0.4433
 8969TIP3    H248323   2.630   2.083  15.144 -1.1590 -1.4369 -1.8785
 8970TIP3   OH248324   0.501   2.805   5.252  0.1256  0.4619  0.4981
 8970TIP3    H148325   0.543   2.871   5.307 -0.2506  1.1303  0.0033
 8970TIP3    H248326   0.422   2.780   5.301  0.6795 -0.2060  1.0541
 8971TIP3   OH248327   2.965   0.913  15.043  0.1573  0.5237  0.4731
 8971TIP3    H148328   3.041   0.906  15.101 -0.0272  0.7603  0.7493
 8971TIP3    H248329   2.892   0.878  15.095  0.2472 -0.5586 -0.1230
 8972TIP3   OH248330   1.093   4.897   3.186 -0.6081 -0.6713  0.1667
 8972TIP3    H148331   1.110   4.944   3.268 -1.4160 -1.3436  0.7398
 8972TIP3    H248332   1.178   4.890   3.143 -0.1846 -0.2840  0.9354
 8973TIP3   OH248333   6.405   6.200   5.354 -0.2347  0.0213 -0.2143
 8973TIP3    H148334   6.344   6.201   5.428  1.2901 -3.0008  1.1857
 8973TIP3    H248335   6.478   6.254   5.382 -0.7770  0.9396 -0.5533
 8974TIP3   OH248336   4.096   3.365   4.266 -0.1690  0.2333 -0.4020
 8974TIP3    H148337   4.114   3.441   4.210 -2.6248 -0.3297 -2.0022
 8974TIP3    H248338   4.001   3.367   4.279  0.0082 -1.3824  1.2929
 8975TIP3   OH248339   0.798   3.759  11.323  0.4674 -0.3894  0.1653
 8975TIP3    H148340   0.805   3.821  11.250 -1.9390 -0.3130 -0.0131
 8975TIP3    H248341   0.710   3.723  11.317  0.8880 -1.8015  1.9258
 8976TIP3   OH248342   2.831   1.531  14.497  0.2952 -0.2921 -0.6102
 8976TIP3    H148343   2.795   1.579  14.422 -0.7141 -0.3198 -0.1399
 8976TIP3    H248344   2.809   1.439  14.480 -1.5969 -0.0955  0.6362
 8977TIP3   OH248345   0.760   1.757   3.989  0.1182 -0.3964 -0.4983
 8977TIP3    H148346   0.853   1.738   3.976 -0.3702 -2.1943 -1.6045
 8977TIP3    H248347   0.746   1.745   4.083  1.3512  1.5779 -0.0459
 8978TIP3   OH248348   4.229   0.620   2.875 -1.0445 -0.6326 -0.2740
 8978TIP3    H148349   4.324   0.624   2.863 -0.9350  0.3188  0.8081
 8978TIP3    H248350   4.217   0.609   2.970 -1.9424 -4.4999 -0.7860
 8979TIP3   OH248351   0.571   4.290  14.060  0.0895  0.8085  0.6812
 8979TIP3    H148352   0.626   4.248  14.126  2.0259  2.3292  0.0683
 8979TIP3    H248353   0.621   4.284  13.979 -2.3594 -1.2187 -0.7243
 8980TIP3   OH248354   3.221   0.111   1.029 -0.0429 -1.1178 -0.2635
 8980TIP3    H148355   3.177   0.048   1.086 -2.8841  0.2145 -0.8926
 8980TIP3    H248356   3.180   0.098   0.943  2.0896 -1.0529 -1.3401
 8981TIP3   OH248357   3.217   1.726  16.929  0.5229  0.2572 -0.2824
 8981TIP3    H148358   3.154   1.683  16.872  1.7211 -1.4741 -0.3240
 8981TIP3    H248359   3.281   1.658  16.951  1.1831  1.4159  1.5085
 8982TIP3   OH248360   6.143   1.658   4.632 -0.5808  0.4366 -0.4926
 8982TIP3    H148361   6.182   1.742   4.606  0.1295  0.0435 -0.7053
 8982TIP3    H248362   6.097   1.628   4.554 -1.4982  0.9990 -0.1788
 8983TIP3   OH248363   2.888   5.461  16.285  0.8878  0.3471  0.3134
 8983TIP3    H148364   2.973   5.433  16.316  0.7395  1.1697  1.4904
 8983TIP3    H248365   2.844   5.497  16.362  1.1293  3.9317 -1.0940
 8984TIP3   OH248366   3.174   5.493  15.969  0.1884 -0.2378  0.3864
 8984TIP3    H148367   3.212   5.503  16.056 -0.9818  0.4794  0.8232
 8984TIP3    H248368   3.109   5.424  15.979 -3.2798  3.0032  1.2393
 8985TIP3   OH248369   4.041   4.134  11.846 -0.4059  0.0376  0.4403
 8985TIP3    H148370   4.133   4.111  11.855  0.1533  2.7591  2.7736
 8985TIP3    H248371   3.994   4.051  11.855  1.8019 -1.3564 -0.5954
 8986TIP3   OH248372   4.473   0.972   3.756 -1.4176  1.3828 -0.1606
 8986TIP3    H148373   4.565   0.961   3.777 -1.0402  1.9896 -1.4265
 8986TIP3    H248374   4.462   0.930   3.670 -2.6248  0.0687  0.6126
 8987TIP3   OH248375   3.752   2.403   1.536 -0.8601 -0.2221 -0.1103
 8987TIP3    H148376   3.785   2.315   1.550  2.1595  0.9986  1.0432
 8987TIP3    H248377   3.693   2.396   1.461 -2.2157 -3.5167  1.2024
 8988TIP3   OH248378   1.270   4.892  12.192  0.0749  0.7174  0.0578
 8988TIP3    H148379   1.245   4.857  12.107 -1.7535  3.7282 -0.7074
 8988TIP3    H248380   1.338   4.957  12.173 -0.9079  1.9889  0.7687
 8989TIP3   OH248381   5.324   2.447  11.204 -0.3262 -0.0584  0.4334
 8989TIP3    H148382   5.325   2.365  11.253 -0.4222  0.8895  2.0401
 8989TIP3    H248383   5.398   2.440  11.144  1.7336  0.0522  2.8784
 8990TIP3   OH248384   6.719   3.269   6.564  0.3410  0.2518 -0.2890
 8990TIP3    H148385   6.808   3.245   6.537  0.6511 -1.1349  1.8040
 8990TIP3    H248386   6.702   3.353   6.522  1.7738 -0.5409 -2.5437
 8991TIP3   OH248387   3.701   4.717  13.108 -0.3448 -0.6290 -0.4916
 8991TIP3    H148388   3.681   4.662  13.184  4.3786  0.1193  1.4489
 8991TIP3    H248389   3.789   4.749  13.124 -0.5237  2.3628 -4.7094
 8992TIP3   OH248390   0.867   3.965   5.303 -0.0954 -0.1486  0.6246
 8992TIP3    H148391   0.938   4.027   5.288 -0.4328  0.1378  0.1833
 8992TIP3    H248392   0.812   4.008   5.368 -1.5306  1.0406 -1.3040
 8993TIP3   OH248393   0.809   4.680   0.562 -0.1591 -0.0347  0.5043
 8993TIP3    H148394   0.870   4.627   0.511 -1.2079 -2.0214  1.2435
 8993TIP3    H248395   0.730   4.626   0.570 -0.2155  0.4028  3.7963
 8994TIP3   OH248396   3.931   6.030  15.035  0.0335  0.0934 -0.3187
 8994TIP3    H148397   3.925   5.979  15.117  0.5166  1.1264  0.3630
 8994TIP3    H248398   4.006   6.088  15.049  1.2624 -0.9794 -2.2142
 8995TIP3   OH248399   1.563   5.334   0.746 -0.0876  0.0772  0.1479
 8995TIP3    H148400   1.533   5.281   0.819 -0.3662  0.7408  0.5186
 8995TIP3    H248401   1.557   5.424   0.777  0.1385  0.3446 -0.5610
 8996TIP3   OH248402   2.239   5.978  12.372 -0.0538 -0.3966  0.3491
 8996TIP3    H148403   2.229   6.072  12.387  1.9050 -0.1621  0.3105
 8996TIP3    H248404   2.150   5.943  12.375 -0.9494  1.7030 -1.3111
 8997TIP3   OH248405   1.145   1.038   5.008  0.1679  0.5452 -0.0251
 8997TIP3    H148406   1.129   1.117   4.958 -0.7990  0.8953  0.8221
 8997TIP3    H248407   1.073   1.034   5.071 -1.1896 -2.3292 -1.6640
 8998TIP3   OH248408   1.059   0.093   1.608 -0.1978  0.3096 -0.5004
 8998TIP3    H148409   1.087   0.181   1.583  1.0317 -0.3633 -1.5698
 8998TIP3    H248410   1.009   0.062   1.532 -2.5045  0.8870  0.7421
 8999TIP3   OH248411   3.329   3.689  14.163 -0.2047  0.2353  0.6417
 8999TIP3    H148412   3.238   3.688  14.134  0.2331 -2.3552 -0.7796
 8999TIP3    H248413   3.325   3.670  14.256 -1.1307  0.2349  0.6029
 9000TIP3   OH248414   5.079   0.453  15.166  0.7036  0.2826  0.1715
 9000TIP3    H148415   5.062   0.493  15.081  0.9236 -0.9823 -0.4902
 9000TIP3    H248416   5.142   0.383  15.147 -1.3801 -1.8577  0.8922
 9001TIP3   OH248417   2.576   6.591  16.853  0.2367  0.1528  0.6192
 9001TIP3    H148418   2.594   6.514  16.907 -0.7301 -0.8386 -0.4384
 9001TIP3    H248419   2.578   6.558  16.763  1.4067  1.6958  0.0536
 9002TIP3   OH248420   1.420   0.552   4.099  0.0855 -0.0802 -0.3138
 9002TIP3    H148421   1.366   0.538   4.021  1.9876  1.4587 -1.9814
 9002TIP3    H248422   1.474   0.473   4.104  0.4682  0.1275 -1.0092
 9003TIP3   OH248423   0.370   1.380  14.481 -0.1026 -0.0853  0.3299
 9003TIP3    H148424   0.393   1.338  14.399  0.8669  0.2403  0.4306
 9003TIP3    H248425   0.327   1.462  14.456 -1.8669 -1.0470  0.1376
 9004TIP3   OH248426   2.167   1.640   4.524 -0.2212 -0.1758  0.0345
 9004TIP3    H148427   2.209   1.726   4.527  0.4618 -0.5127  0.3479
 9004TIP3    H248428   2.240   1.578   4.516 -0.6801 -0.7487  0.2352
 9005TIP3   OH248429   6.493   5.780   3.788 -0.0616  0.4382 -0.1406
 9005TIP3    H148430   6.400   5.760   3.779  0.4291 -2.6690  1.2092
 9005TIP3    H248431   6.538   5.707   3.745  1.7670  0.7500  1.1897
 9006TIP3   OH248432   5.554   5.411  13.634  0.0097  0.9198  0.5713
 9006TIP3    H148433   5.621   5.343  13.624  0.9512  1.8278  0.6274
 9006TIP3    H248434   5.483   5.384  13.577  2.5102  2.5320 -3.4967
 9007TIP3   OH248435   6.519   0.361   2.033 -0.7003 -0.4778  0.7420
 9007TIP3    H148436   6.588   0.342   1.969  1.8554  1.6924  2.7385
 9007TIP3    H248437   6.504   0.278   2.078  1.1566 -0.7997  0.7751
 9008TIP3   OH248438   0.789   5.477  16.596  0.0467  0.3117 -0.1212
 9008TIP3    H148439   0.706   5.428  16.598  0.5769 -0.6334 -0.6918
 9008TIP3    H248440   0.796   5.508  16.505  1.2197 -1.2211 -0.5808
 9009TIP3   OH248441   3.312   4.437   6.169 -0.0226  0.4154  0.4650
 9009TIP3    H148442   3.284   4.347   6.153  1.0309 -0.0380  1.1232
 9009TIP3    H248443   3.407   4.430   6.184  0.4689  1.8948 -1.6718
 9010TIP3   OH248444   2.254   2.825   2.732  0.1352 -0.0729 -0.4150
 9010TIP3    H148445   2.338   2.784   2.710  0.1945 -0.4762  0.5498
 9010TIP3    H248446   2.274   2.878   2.809  0.0109  1.6097 -1.5085
 9011TIP3   OH248447   4.654   4.565  15.566 -0.4498  0.2876  0.4353
 9011TIP3    H148448   4.645   4.495  15.631 -0.4059  0.9326  1.1450
 9011TIP3    H248449   4.564   4.587  15.542 -0.4429 -0.5099 -0.3316
 9012TIP3   OH248450   4.874   6.463  15.335  0.6452 -0.1283  0.2896
 9012TIP3    H148451   4.838   6.549  15.312  1.3762 -0.0950 -0.8176
 9012TIP3    H248452   4.967   6.471  15.314  0.8318 -0.9924  0.7894
 9013TIP3   OH248453   5.289   5.570  16.459  0.0028 -0.0424  0.3377
 9013TIP3    H148454   5.375   5.577  16.418  0.4274  0.4958  1.2962
 9013TIP3    H248455   5.268   5.477  16.455  0.5342 -0.1466 -0.0946
 9014TIP3   OH248456   5.391   0.637  15.112  0.0494 -0.3513  0.0864
 9014TIP3    H148457   5.313   0.588  15.084 -1.1109  1.0965  0.7042
 9014TIP3    H248458   5.361   0.687  15.188  1.2817  1.0970 -0.3694
 9015TIP3   OH248459   6.239   6.126  11.481  0.3686  0.3104  0.0203
 9015TIP3    H148460   6.161   6.097  11.529  1.0906  1.8886  2.2630
 9015TIP3    H248461   6.253   6.059  11.414 -0.5856 -2.1517  2.1830
 9016TIP3   OH248462   5.991   1.479  11.131  0.6623 -0.3643 -0.6586
 9016TIP3    H148463   5.950   1.480  11.045 -0.6336  0.7040 -0.0457
 9016TIP3    H248464   6.002   1.571  11.154 -0.2530 -0.6235  0.8991
 9017TIP3   OH248465   6.109   2.441   4.172 -0.3850  0.5171 -0.1669
 9017TIP3    H148466   6.169   2.451   4.098 -1.2548  0.8269 -0.8402
 9017TIP3    H248467   6.024   2.421   4.131 -0.4437 -1.3945  0.8252
 9018TIP3   OH248468   5.069   0.466  15.442 -0.6609 -0.1373 -0.3142
 9018TIP3    H148469   4.981   0.502  15.453 -0.7769 -1.2416  3.2676
 9018TIP3    H248470   5.075   0.444  15.349 -4.6035 -1.1240 -0.4345
 9019TIP3   OH248471   1.445   3.067  12.982  0.7683 -0.3131  0.2272
 9019TIP3    H148472   1.475   3.028  12.900 -1.2312 -0.0076 -0.6852
 9019TIP3    H248473   1.357   3.099  12.962  0.7348  0.8450  2.1664
 9020TIP3   OH248474   1.354   1.060  16.872  0.2068 -0.4008  0.1531
 9020TIP3    H148475   1.286   1.107  16.920  0.4950  0.8212 -0.6003
 9020TIP3    H248476   1.430   1.063  16.930  0.0600 -0.4015  0.3466
 9021TIP3   OH248477   2.697   3.846  11.542  0.3407 -0.1852  0.1362
 9021TIP3    H148478   2.647   3.927  11.530 -2.6112 -2.0858 -1.2130
 9021TIP3    H248479   2.770   3.853  11.481 -2.1918 -0.2183 -3.0171
 9022TIP3   OH248480   2.915   1.693  13.683  0.5880 -0.1141  0.2903
 9022TIP3    H148481   2.950   1.744  13.755 -0.8121  1.4038 -0.0813
 9022TIP3    H248482   2.824   1.720  13.676  0.6405 -0.4120 -1.9002
 9023TIP3   OH248483   5.147   2.635  16.741  0.2001 -0.1834  0.4405
 9023TIP3    H148484   5.140   2.663  16.833  1.0314 -1.5601  0.9559
 9023TIP3    H248485   5.102   2.550  16.739 -1.5654  0.7465 -0.8863
 9024TIP3   OH248486   3.881   4.996   2.969  0.0438  0.2527 -0.3355
 9024TIP3    H148487   3.879   4.905   2.939  0.2902  0.5158 -1.1511
 9024TIP3    H248488   3.853   4.991   3.060 -0.9152 -0.5302 -0.6547
 9025TIP3   OH248489   4.675   3.757   0.157 -0.5818 -0.0198 -0.0711
 9025TIP3    H148490   4.644   3.743   0.246 -0.1273 -1.5414 -0.1293
 9025TIP3    H248491   4.763   3.719   0.155 -0.8505 -0.6287 -1.3326
 9026TIP3   OH248492   3.238   1.462  14.711  0.1621 -0.2307  0.8133
 9026TIP3    H148493   3.248   1.555  14.693 -0.2925 -0.2989  0.1591
 9026TIP3    H248494   3.192   1.428  14.634 -0.4335 -0.8353  1.4257
 9027TIP3   OH248495   5.851   0.758  15.123 -0.2465  0.4667  0.1467
 9027TIP3    H148496   5.850   0.768  15.218 -0.9920  0.7299  0.1160
 9027TIP3    H248497   5.802   0.834  15.091  0.0643  0.4150 -0.4524
 9028TIP3   OH248498   4.119   3.890  15.214 -0.3094  0.6565 -0.0308
 9028TIP3    H148499   4.101   3.797  15.198 -0.8309  0.8750 -0.7315
 9028TIP3    H248500   4.205   3.905  15.173  0.1444  0.2999  0.7774
 9029TIP3   OH248501   6.352   2.094   0.691  0.3223  0.2839  0.4231
 9029TIP3    H148502   6.289   2.051   0.634 -0.9411  0.9578  1.2978
 9029TIP3    H248503   6.426   2.033   0.695 -0.6655 -0.9466  0.1588
 9030TIP3   OH248504   4.198   1.387   3.725  0.2135 -0.3081  0.2648
 9030TIP3    H148505   4.152   1.393   3.641  0.4539  1.5053  0.2394
 9030TIP3    H248506   4.281   1.433   3.710  0.4651 -0.3852  1.3604
 9031TIP3   OH248507   4.233   0.362  17.071 -0.1918  0.3365  0.2883
 9031TIP3    H148508   4.296   0.407  17.014  0.9650 -1.7438 -0.1375
 9031TIP3    H248509   4.257   0.389  17.159  3.0393 -2.4139  0.3487
 9032TIP3   OH248510   6.244   0.512  10.829 -0.3986  0.3901  0.8628
 9032TIP3    H148511   6.264   0.428  10.788  1.9439  0.7395  1.2150
 9032TIP3    H248512   6.161   0.539  10.789  0.2099 -0.7830 -1.3066
 9033TIP3   OH248513   1.341   1.543   2.369  0.4595 -0.6239  0.5435
 9033TIP3    H148514   1.258   1.556   2.416 -1.6931 -1.6686 -2.8055
 9033TIP3    H248515   1.381   1.630   2.366 -1.8823  0.4782 -0.2166
 9034TIP3   OH248516   4.940   4.678   2.460  0.4163  0.4064  0.0344
 9034TIP3    H148517   4.969   4.649   2.546 -0.7137  1.7678  0.8900
 9034TIP3    H248518   4.996   4.752   2.439 -0.6390  1.3497  0.5075
 9035TIP3   OH248519   2.495   5.886  14.721  0.0041  0.6103 -0.4969
 9035TIP3    H148520   2.480   5.800  14.762  0.0951  0.3862 -0.9247
 9035TIP3    H248521   2.458   5.877  14.633 -0.8532  1.3305 -0.2095
 9036TIP3   OH248522   0.890   4.160  12.304 -0.2763 -1.2712  0.2027
 9036TIP3    H148523   0.929   4.077  12.332 -0.3530 -0.8102  1.7301
 9036TIP3    H248524   0.865   4.145  12.213  2.6768 -1.8506 -0.5541
 9037TIP3   OH248525   1.244   1.240  17.059  0.0003 -0.6884  0.0093
 9037TIP3    H148526   1.180   1.287  17.112 -0.7986  0.2708 -1.7715
 9037TIP3    H248527   1.311   1.305  17.039 -1.0893 -0.2708 -2.4370
 9038TIP3   OH248528   3.335   1.057   3.181  0.4740  0.0653  0.0175
 9038TIP3    H148529   3.294   1.005   3.111  2.4917 -1.3219 -0.1561
 9038TIP3    H248530   3.284   1.035   3.259 -0.6351  0.2228 -0.6357
 9039TIP3   OH248531   2.471   2.114  14.541 -0.2286 -0.4901  0.2992
 9039TIP3    H148532   2.552   2.069  14.561 -0.1842 -1.2156 -1.3968
 9039TIP3    H248533   2.483   2.203  14.574  1.4082 -0.4804 -0.2895
 9040TIP3   OH248534   0.212   2.306   0.878  0.5683  0.5664  0.2830
 9040TIP3    H148535   0.253   2.305   0.964 -0.1848  0.4410  0.6446
 9040TIP3    H248536   0.246   2.385   0.837 -1.2800  2.2047  1.7992
 9041TIP3   OH248537   5.792   1.717  16.065 -0.8455  0.3477 -0.0417
 9041TIP3    H148538   5.859   1.686  16.127 -2.0028 -0.7951  0.6863
 9041TIP3    H248539   5.827   1.798  16.029  1.8541 -1.2911 -1.2266
 9042TIP3   OH248540   6.679   6.694   1.631  0.7116  0.6719  0.6009
 9042TIP3    H148541   6.727   6.776   1.640  3.2340 -0.3261 -2.6024
 9042TIP3    H248542   6.732   6.630   1.678  0.8327  0.1603 -0.2204
 9043TIP3   OH248543   0.267   5.322  12.175  0.0085 -0.4123  0.3929
 9043TIP3    H148544   0.292   5.301  12.265  1.1885  1.5900  0.5583
 9043TIP3    H248545   0.257   5.417  12.174  2.9913 -0.0367 -2.3131
 9044TIP3   OH248546   5.525   3.310  12.670 -0.6091  0.3173 -0.2068
 9044TIP3    H148547   5.446   3.264  12.641  1.0053 -0.4227 -3.6929
 9044TIP3    H248548   5.567   3.249  12.730 -0.5640 -1.0921 -1.6343
 9045TIP3   OH248549   1.063   1.025  14.112  0.2182 -0.0482  0.1609
 9045TIP3    H148550   1.142   1.066  14.079 -0.3219 -0.6580 -1.9952
 9045TIP3    H248551   1.081   1.008  14.204  1.8879  1.4792  0.1350
 9046TIP3   OH248552   5.562   2.388  10.648  0.2819  0.3154  0.0031
 9046TIP3    H148553   5.564   2.340  10.565  1.1345  1.1123 -0.4466
 9046TIP3    H248554   5.654   2.397  10.672 -0.0080 -1.2202  1.8208
 9047TIP3   OH248555   2.845   4.797  16.216  0.7220  0.1975 -0.1923
 9047TIP3    H148556   2.831   4.704  16.234 -1.3192  0.4024 -0.6002
 9047TIP3    H248557   2.876   4.833  16.299 -0.4600 -0.4587  0.5340
 9048TIP3   OH248558   5.552   6.321   3.179  0.0801  0.3930  0.5887
 9048TIP3    H148559   5.491   6.255   3.149 -1.8106  2.0564  0.6908
 9048TIP3    H248560   5.632   6.305   3.129 -0.5140 -1.6311  0.2619
 9049TIP3   OH248561   1.952   1.256   1.464  0.0122  0.1820  0.0824
 9049TIP3    H148562   2.015   1.203   1.415  2.7007  2.9939  0.3923
 9049TIP3    H248563   1.896   1.294   1.397  0.1307 -0.4411 -0.3795
 9050TIP3   OH248564   2.128   4.791  13.130 -0.0017 -0.3462  0.5444
 9050TIP3    H148565   2.050   4.844  13.149 -1.0856 -2.3527  1.8328
 9050TIP3    H248566   2.178   4.794  13.211  0.7382  0.0268  0.0768
 9051TIP3   OH248567   5.003   3.550   3.604  0.1743  0.1901 -0.1095
 9051TIP3    H148568   4.962   3.592   3.680 -0.0312 -0.9651  0.4196
 9051TIP3    H248569   5.044   3.471   3.638  1.5888  0.5580 -0.8990
 9052TIP3   OH248570   6.225   0.897   5.298  0.6601  0.1729  0.1462
 9052TIP3    H148571   6.137   0.899   5.260  0.8231  1.0822 -0.1907
 9052TIP3    H248572   6.225   0.818   5.352 -0.4886  0.3735  0.4548
 9053TIP3   OH248573   3.944   6.513   2.476 -0.2563 -0.8438  0.0588
 9053TIP3    H148574   3.909   6.543   2.392  0.9834  1.9403  0.5009
 9053TIP3    H248575   4.033   6.483   2.456  0.3432  0.6133  0.5144
 9054TIP3   OH248576   1.745   1.090   5.973  0.7624 -0.0395 -0.4940
 9054TIP3    H148577   1.792   1.013   6.004 -0.6665 -0.3231  1.0952
 9054TIP3    H248578   1.660   1.056   5.944 -0.1845  0.9885  0.9611
 9055TIP3   OH248579   5.188   3.309   0.124  0.3122 -0.4986  0.0483
 9055TIP3    H148580   5.264   3.367   0.133  0.3972 -0.4112 -1.1278
 9055TIP3    H248581   5.150   3.333   0.039 -0.7879 -0.8300  0.4464
 9056TIP3   OH248582   1.723   5.855  16.130  0.5962  0.4259  0.3826
 9056TIP3    H148583   1.804   5.864  16.181  0.6709  1.1556  0.1333
 9056TIP3    H248584   1.653   5.877  16.192  0.4890 -1.4873  0.9790
 9057TIP3   OH248585   5.887   0.111   3.344 -0.6305  0.0345 -0.1596
 9057TIP3    H148586   5.895   0.087   3.437  0.3635 -0.8043 -0.4569
 9057TIP3    H248587   5.795   0.095   3.323 -0.8370  0.1288  0.6605
 9058TIP3   OH248588   4.524   1.299  13.401 -0.0265  0.1514  0.2816
 9058TIP3    H148589   4.446   1.350  13.423 -1.4110 -1.9281  0.3659
 9058TIP3    H248590   4.502   1.255  13.319  2.0490  1.5258 -1.0717
 9059TIP3   OH248591   0.641   4.124   0.137  0.6002 -0.0082 -0.5746
 9059TIP3    H148592   0.688   4.132   0.054 -3.2530  0.4321 -2.8410
 9059TIP3    H248593   0.641   4.030   0.156 -0.7016 -0.3949 -2.4419
 9060TIP3   OH248594   5.587   5.036  15.839 -0.0945 -0.1989 -0.4560
 9060TIP3    H148595   5.655   4.970  15.824 -0.4109  0.0386 -3.1171
 9060TIP3    H248596   5.634   5.119  15.844  0.1514 -0.4212  1.4468
 9061TIP3   OH248597   3.889   3.917  15.700  0.3036 -0.4542  0.1782
 9061TIP3    H148598   3.838   3.985  15.657  0.7164 -0.4146 -0.2523
 9061TIP3    H248599   3.979   3.932  15.670  0.3867 -1.2255  0.0373
 9062TIP3   OH248600   0.907   2.453   5.339 -0.3225  0.4545  0.5580
 9062TIP3    H148601   0.852   2.411   5.406 -1.5967 -1.4545 -1.6184
 9062TIP3    H248602   0.845   2.493   5.279  0.6745 -0.6286 -1.2360
 9063TIP3   OH248603   5.949   1.023  11.846 -0.2875 -0.7092 -0.5562
 9063TIP3    H148604   5.858   1.034  11.873 -0.1664 -0.9197 -0.0521
 9063TIP3    H248605   5.998   1.020  11.928  0.0692 -1.5511 -0.7978
 9064TIP3   OH248606   1.414   3.980   5.595 -0.3621  0.2195 -0.0134
 9064TIP3    H148607   1.362   4.043   5.644 -2.4822 -1.1109 -0.4937
 9064TIP3    H248608   1.379   3.983   5.506  0.2541 -0.8260 -0.3073
 9065TIP3   OH248609   6.288   3.366  15.680  0.1996 -0.1934  0.1310
 9065TIP3    H148610   6.228   3.303  15.640  0.3904 -0.4818  0.2958
 9065TIP3    H248611   6.300   3.334  15.769  0.1759  0.1640  0.2640
 9066TIP3   OH248612   4.599   4.113   1.153 -0.4757  0.2182  0.4210
 9066TIP3    H148613   4.638   4.027   1.165 -0.8717  0.2434  1.9781
 9066TIP3    H248614   4.673   4.172   1.142 -0.2225 -0.4250 -1.5405
 9067TIP3   OH248615   1.248   1.333   5.122 -0.0091  0.0582 -0.2776
 9067TIP3    H148616   1.214   1.335   5.033  0.5781 -0.0127 -0.5100
 9067TIP3    H248617   1.325   1.389   5.119  0.9944 -1.2865 -0.2400
 9068TIP3   OH248618   2.536   0.753   1.214  0.2569  0.1032 -0.2534
 9068TIP3    H148619   2.604   0.694   1.245  0.9365  0.2697 -1.4037
 9068TIP3    H248620   2.570   0.841   1.232  0.5157  0.1940 -1.1780
 9069TIP3   OH248621   0.338   3.521  12.516 -0.1435 -0.5130  0.2055
 9069TIP3    H148622   0.305   3.510  12.427 -0.9084 -1.8261  0.6333
 9069TIP3    H248623   0.268   3.569  12.561 -0.8103 -1.9262  0.7051
 9070TIP3   OH248624   0.774   4.663  15.870  0.3342 -0.2834  0.8752
 9070TIP3    H148625   0.726   4.608  15.932  0.7862 -0.0736  1.4060
 9070TIP3    H248626   0.832   4.602  15.824 -0.4877 -0.5531  0.1707
 9071TIP3   OH248627   6.198   2.181  16.644  0.1188 -0.2947  0.4399
 9071TIP3    H148628   6.113   2.225  16.647  0.7554  0.9121  1.0731
 9071TIP3    H248629   6.244   2.212  16.721  1.1576 -0.9097  0.0743
 9072TIP3   OH248630   2.979   2.290  11.235 -0.6763  0.2135  0.1972
 9072TIP3    H148631   3.042   2.344  11.284 -1.6341  2.8522 -1.3438
 9072TIP3    H248632   2.917   2.260  11.301 -1.1126  2.4868  0.8675
 9073TIP3   OH248633   1.926   1.757   3.847 -0.1079 -0.0193  0.2585
 9073TIP3    H148634   1.970   1.825   3.899  0.4258  0.0760 -0.3134
 9073TIP3    H248635   1.904   1.799   3.765 -1.3997 -0.0378  0.5856
 9074TIP3   OH248636   3.642   2.112  13.499 -0.8272  0.4927  0.1781
 9074TIP3    H148637   3.658   2.187  13.442 -1.3694  0.1354 -0.4522
 9074TIP3    H248638   3.594   2.050  13.444  0.3315 -0.6575  0.4505
 9075TIP3   OH248639   4.493   5.804   1.060 -0.0338  0.1728  0.3457
 9075TIP3    H148640   4.509   5.742   0.989 -1.1824 -0.3623  0.5541
 9075TIP3    H248641   4.404   5.786   1.089 -0.0717  1.3374  0.9918
 9076TIP3   OH248642   2.123   0.506   1.477 -0.0109  0.1132 -0.1914
 9076TIP3    H148643   2.184   0.461   1.418  0.1037  1.5984 -1.2478
 9076TIP3    H248644   2.113   0.447   1.551 -0.4276 -1.9737 -1.8432
 9077TIP3   OH248645   6.757   6.580  15.877 -0.2924  0.0688 -0.1947
 9077TIP3    H148646   6.834   6.538  15.916  0.4116  1.9045  0.4856
 9077TIP3    H248647   6.697   6.593  15.951 -0.9463 -0.6711 -0.5874
 9078TIP3   OH248648   2.153   4.043   1.699 -0.0395  0.2081 -0.3530
 9078TIP3    H148649   2.093   4.030   1.772  1.8616  0.5276  1.2913
 9078TIP3    H248650   2.145   3.963   1.647 -1.3818 -0.0378  0.2072
 9079TIP3   OH248651   4.188   3.187  14.721 -0.1106 -0.0288 -0.0263
 9079TIP3    H148652   4.149   3.102  14.746  1.4652 -0.6250  0.4513
 9079TIP3    H248653   4.174   3.192  14.627 -2.1646  0.1961  0.2583
 9080TIP3   OH248654   0.344   5.589  15.868 -0.2620  0.2817 -0.2598
 9080TIP3    H148655   0.436   5.565  15.880 -0.5221 -0.1561  0.9670
 9080TIP3    H248656   0.297   5.506  15.866 -0.8198  0.5605  0.8902
 9081TIP3   OH248657   2.557   5.111  16.281 -0.5786  0.0769 -0.0818
 9081TIP3    H148658   2.594   5.079  16.363 -2.0771 -0.9442  0.2072
 9081TIP3    H248659   2.528   5.200  16.301 -0.8280 -0.1253  0.4757
 9082TIP3   OH248660   1.940   3.479  13.240 -0.0713  0.6274  0.3537
 9082TIP3    H148661   1.881   3.528  13.297 -0.7276 -1.3410  1.3883
 9082TIP3    H248662   1.885   3.415  13.197  0.8458  0.5530 -0.7284
 9083TIP3   OH248663   4.214   3.846  16.198  0.3742  0.1650  0.7435
 9083TIP3    H148664   4.180   3.776  16.254  1.9977 -0.1821  1.3554
 9083TIP3    H248665   4.187   3.822  16.110 -2.9659  1.1699  1.4305
 9084TIP3   OH248666   1.350   3.896  14.733 -0.4130  0.2471  0.1424
 9084TIP3    H148667   1.333   3.809  14.769 -2.5096  1.6461  2.6603
 9084TIP3    H248668   1.442   3.893  14.707 -0.6661 -2.9726 -0.5867
 9085TIP3   OH248669   4.789   2.056  16.448  0.7536  0.2213  0.3071
 9085TIP3    H148670   4.771   2.089  16.360  2.6002  1.2258  0.2739
 9085TIP3    H248671   4.837   1.975  16.434 -0.0140 -0.2598  0.4053
 9086TIP3   OH248672   4.256   3.097  15.315 -0.1834 -0.3754  0.4137
 9086TIP3    H148673   4.330   3.094  15.254 -0.5580  0.4928 -0.0807
 9086TIP3    H248674   4.216   3.182  15.301  0.3273  0.2621  2.5790
 9087TIP3   OH248675   3.059   5.017  12.308 -0.1456  0.5792 -0.5623
 9087TIP3    H148676   3.035   4.932  12.271 -1.0964  0.6950 -0.2309
 9087TIP3    H248677   2.979   5.047  12.352  1.1003  0.2138  2.0387
 9088TIP3   OH248678   1.386   5.258  15.697 -0.2469  0.1806 -0.3037
 9088TIP3    H148679   1.382   5.255  15.793  1.8860 -1.1699 -0.2268
 9088TIP3    H248680   1.417   5.346  15.677  0.5921  0.0422  0.3358
 9089TIP3   OH248681   3.412   1.873   0.418  0.2177 -0.3620 -0.5433
 9089TIP3    H148682   3.359   1.869   0.497 -0.0639  0.7512 -0.6682
 9089TIP3    H248683   3.367   1.816   0.355  0.2187 -0.9210 -0.0349
 9090TIP3   OH248684   5.129   0.809   0.256  0.4728 -0.1641 -0.2571
 9090TIP3    H148685   5.067   0.839   0.189  2.6020  1.8155 -1.3897
 9090TIP3    H248686   5.179   0.739   0.212  0.3248 -0.4606  0.0429
 9091TIP3   OH248687   1.701   4.522  12.051 -0.1458 -0.0314 -0.2070
 9091TIP3    H148688   1.788   4.551  12.080 -0.2486  4.5238 -3.7005
 9091TIP3    H248689   1.719   4.457  11.983  0.4064 -1.4980  1.3232
 9092TIP3   OH248690   4.327   4.154   1.197  0.1503 -0.0326 -0.6816
 9092TIP3    H148691   4.409   4.106   1.186 -0.3557 -1.0363 -0.1347
 9092TIP3    H248692   4.343   4.238   1.154  0.8694 -0.8772 -2.0995
 9093TIP3   OH248693   6.280   4.681  13.265  0.4723 -0.0164  0.3431
 9093TIP3    H148694   6.304   4.772  13.279 -0.0999  0.1821  0.0009
 9093TIP3    H248695   6.195   4.684  13.222 -0.2224 -0.7278  1.6386
 9094TIP3   OH248696   2.936   3.067  13.966 -0.4539  0.3851 -0.5874
 9094TIP3    H148697   2.930   3.163  13.961  0.4245  0.4372 -0.7173
 9094TIP3    H248698   2.945   3.039  13.875 -0.0015  0.2364 -0.5020
 9095TIP3   OH248699   5.058   6.396   1.628  0.0493  0.9840  0.0270
 9095TIP3    H148700   5.098   6.482   1.640 -0.2098  1.1279 -0.1253
 9095TIP3    H248701   5.114   6.353   1.564  0.2752  0.9783  0.2296
 9096TIP3   OH248702   0.605   2.134   5.834 -0.1345 -0.0703 -0.2704
 9096TIP3    H148703   0.569   2.050   5.862 -1.0555  0.6438  0.7270
 9096TIP3    H248704   0.528   2.183   5.803  0.0358  1.2737  1.3771
 9097TIP3   OH248705   2.399   1.487  11.537  0.0875 -0.0541  0.0119
 9097TIP3    H148706   2.376   1.569  11.494  0.4173  0.9717  1.7393
 9097TIP3    H248707   2.458   1.443  11.475  0.1214  1.1199 -0.8004
 9098TIP3   OH248708   0.922   1.142   1.676  0.3563 -0.1372  0.1459
 9098TIP3    H148709   0.853   1.207   1.664  0.2489 -0.7485 -2.9544
 9098TIP3    H248710   0.877   1.058   1.673  0.7300 -0.4661  2.4115
 9099TIP3   OH248711   6.185   1.908   3.305 -0.3573  0.3254  0.4477
 9099TIP3    H148712   6.234   1.973   3.356 -0.4303  0.5552  0.2280
 9099TIP3    H248713   6.154   1.957   3.229  0.5693 -0.2653 -0.3140
 9100TIP3   OH248714   0.298   1.830  12.126  0.4963  0.5246 -0.0668
 9100TIP3    H148715   0.287   1.744  12.167  0.4424  0.3272 -0.4868
 9100TIP3    H248716   0.305   1.891  12.199 -2.1611  0.5116  0.2646
 9101TIP3   OH248717   1.624   6.734   3.775  0.0039 -1.0673  0.1332
 9101TIP3    H148718   1.696   6.786   3.738 -0.7352 -0.9820 -1.2535
 9101TIP3    H248719   1.599   6.780   3.855 -1.0479  1.1148 -1.3869
 9102TIP3   OH248720   1.521   3.253  16.685 -0.0668  0.5024 -0.3704
 9102TIP3    H148721   1.558   3.198  16.616 -0.0771 -0.7155  0.5788
 9102TIP3    H248722   1.597   3.296  16.724  0.1666 -0.5249  0.3210
 9103TIP3   OH248723   5.854   4.765  11.655 -0.4846 -0.0643 -0.0128
 9103TIP3    H148724   5.918   4.739  11.722 -2.3338 -0.3914  1.6656
 9103TIP3    H248725   5.780   4.798  11.705 -1.8335 -0.1471 -1.9354
 9104TIP3   OH248726   4.029   2.889   1.404  0.0718  0.1128 -0.5394
 9104TIP3    H148727   3.993   2.859   1.321 -0.4956 -1.7585  0.3407
 9104TIP3    H248728   4.114   2.846   1.411 -0.9708 -1.8409  0.9724
 9105TIP3   OH248729   0.033   4.208   0.309  0.4621  0.3583  0.0511
 9105TIP3    H148730  -0.001   4.124   0.278  1.5406 -0.1463  0.2104
 9105TIP3    H248731   0.057   4.255   0.229 -2.2866  1.4662 -0.1688
 9106TIP3   OH248732   4.762   5.571  16.621  0.0522  0.0982 -0.3792
 9106TIP3    H148733   4.704   5.598  16.693  1.1801  0.5111  0.3816
 9106TIP3    H248734   4.731   5.484  16.598  1.3069 -1.1629  2.3950
 9107TIP3   OH248735   4.061   5.277  11.431 -0.4862  0.2551  0.0784
 9107TIP3    H148736   4.065   5.372  11.428 -0.3388  0.2139 -1.1252
 9107TIP3    H248737   4.124   5.248  11.365 -0.3956 -0.6774  0.5585
 9108TIP3   OH248738   2.333   5.228   3.318 -0.5985  0.3075  0.2095
 9108TIP3    H148739   2.314   5.161   3.252 -2.6325  0.8922  0.1743
 9108TIP3    H248740   2.247   5.252   3.353 -0.0824  3.8431 -0.7475
 9109TIP3   OH248741   4.977   1.469  13.124  0.1519  0.5375 -0.6794
 9109TIP3    H148742   4.967   1.495  13.215  0.2934 -0.8856 -0.2420
 9109TIP3    H248743   4.897   1.420  13.104  0.6339 -0.1530 -0.9533
 9110TIP3   OH248744   6.533   2.483   2.645 -0.0012 -0.3065 -0.3632
 9110TIP3    H148745   6.482   2.430   2.584 -1.9759  0.7736  0.3174
 9110TIP3    H248746   6.535   2.432   2.726 -0.7018 -0.0011 -0.1464
 9111TIP3   OH248747   5.167   1.928   5.782 -0.1893  0.1374  0.0702
 9111TIP3    H148748   5.207   1.855   5.736  1.7981  1.1465  0.1173
 9111TIP3    H248749   5.196   1.918   5.873 -0.3110  0.7146  0.1753
 9112TIP3   OH248750   3.378   4.246  16.076  0.0171  0.3692  0.3943
 9112TIP3    H148751   3.355   4.232  16.168 -1.0500  0.9984  0.2308
 9112TIP3    H248752   3.460   4.198  16.065  1.2824  1.9951  2.2229
 9113TIP3   OH248753   5.012   1.891   4.886 -0.0405  0.6017  0.3773
 9113TIP3    H148754   5.083   1.844   4.842  0.3526  1.0661  0.5228
 9113TIP3    H248755   4.939   1.829   4.884  0.2632  0.2495 -0.0671
 9114TIP3   OH248756   5.691   3.105  12.781  0.2981  0.7515  0.0310
 9114TIP3    H148757   5.607   3.065  12.804  0.6478  0.6678  1.1709
 9114TIP3    H248758   5.736   3.117  12.865  1.7239  0.1273 -0.6408
 9115TIP3   OH248759   2.010   4.336  14.235  0.3398  0.6020  0.2123
 9115TIP3    H148760   2.034   4.427  14.218  0.6910  0.3439 -0.7389
 9115TIP3    H248761   1.915   4.337  14.240  0.3705  1.0994  0.6573
 9116TIP3   OH248762   6.075   5.128   0.856 -0.5554 -0.0273 -0.1485
 9116TIP3    H148763   6.103   5.216   0.882 -0.0660  0.4720 -2.2514
 9116TIP3    H248764   5.984   5.139   0.829 -0.9752 -0.4853  1.0528
 9117TIP3   OH248765   2.369   4.166   0.398 -0.1160  0.4499  0.0768
 9117TIP3    H148766   2.380   4.109   0.321  2.4387  1.5949 -0.4521
 9117TIP3    H248767   2.286   4.138   0.436 -1.2768 -0.3956 -2.8873
 9118TIP3   OH248768   1.895   3.080  15.351 -0.5102 -0.1445  0.2760
 9118TIP3    H148769   1.943   3.053  15.429 -1.0903  1.6265  1.2692
 9118TIP3    H248770   1.942   3.157  15.320 -1.9645  0.8813  0.5574
 9119TIP3   OH248771   2.402   6.674   5.251 -0.2040  0.2626 -0.0913
 9119TIP3    H148772   2.413   6.606   5.317 -1.0293  0.8664  0.6776
 9119TIP3    H248773   2.466   6.652   5.183  1.6721  0.4344  1.5743
 9120TIP3   OH248774   2.538   3.811  14.692 -0.2218  0.0282 -0.0621
 9120TIP3    H148775   2.541   3.716  14.676 -0.4539  0.4776 -2.8551
 9120TIP3    H248776   2.477   3.845  14.627 -0.7210  2.0431  1.4058
 9121TIP3   OH248777   1.559   5.463  15.976  0.7179 -0.1660  0.1938
 9121TIP3    H148778   1.642   5.507  15.997 -0.5409  1.5411  1.7640
 9121TIP3    H248779   1.529   5.428  16.060 -0.3156 -0.4769 -0.3017
 9122TIP3   OH248780   3.282   0.891   5.351 -0.3760  0.4712  0.4897
 9122TIP3    H148781   3.282   0.819   5.289  0.3345  0.7761  0.1261
 9122TIP3    H248782   3.221   0.955   5.314  0.2432  0.7644 -0.0321
 9123TIP3   OH248783   2.259   1.277   3.941 -0.0578  1.0420 -0.8957
 9123TIP3    H148784   2.182   1.332   3.927  0.6682  2.6120  1.0891
 9123TIP3    H248785   2.230   1.189   3.919 -1.8572  1.8950 -2.0324
 9124TIP3   OH248786   5.947   6.067   4.535 -0.3655  0.0656  0.7846
 9124TIP3    H148787   5.871   6.053   4.593 -0.7909  0.5082  0.3416
 9124TIP3    H248788   5.924   6.020   4.455 -0.4598  0.7368  0.4137
 9125TIP3   OH248789   2.159   1.033  17.146 -0.1527 -0.7610  0.2181
 9125TIP3    H148790   2.077   1.000  17.183  0.1208  0.1038  1.6450
 9125TIP3    H248791   2.226   1.006  17.209  0.2641  1.0916  0.6110
 9126TIP3   OH248792   0.139   5.505  13.204 -0.2421  0.1637 -0.1203
 9126TIP3    H148793   0.151   5.410  13.214 -0.6617 -0.1156 -2.0748
 9126TIP3    H248794   0.223   5.542  13.233  0.6709 -0.9427 -1.2528
 9127TIP3   OH248795   6.051   6.699  10.186 -0.1943 -0.3000 -0.0137
 9127TIP3    H148796   6.127   6.691  10.244  0.8650  0.3153 -1.2816
 9127TIP3    H248797   6.045   6.615  10.142 -0.1930 -0.3147  0.0147
 9128TIP3   OH248798   3.103   5.409  14.417  0.1413  0.2809  0.1824
 9128TIP3    H148799   3.011   5.432  14.405  0.2761 -0.2730 -2.3187
 9128TIP3    H248800   3.151   5.488  14.395  0.2603  1.0160  2.9059
 9129TIP3   OH248801   6.594   3.132  14.606  1.1928  0.0802  0.1422
 9129TIP3    H148802   6.581   3.220  14.641 -0.3734 -0.4932  1.0742
 9129TIP3    H248803   6.600   3.145  14.511 -0.7637  1.0358  0.1169
 9130TIP3   OH248804   2.507   1.078  13.943  0.4391 -0.6540 -0.2553
 9130TIP3    H148805   2.539   1.010  14.003  0.3409 -1.0262 -0.6249
 9130TIP3    H248806   2.518   1.041  13.856 -2.4706 -1.4195 -0.3426
 9131TIP3   OH248807   1.658   5.848   2.720 -0.4335  0.4180 -0.0802
 9131TIP3    H148808   1.698   5.929   2.753 -0.0073  1.4432 -2.9761
 9131TIP3    H248809   1.569   5.873   2.697 -0.0125  0.3062 -1.8669
 9132TIP3   OH248810   1.510   2.997  11.071 -0.3546  0.2693  0.3830
 9132TIP3    H148811   1.588   2.962  11.029 -0.0710 -0.1270  1.2316
 9132TIP3    H248812   1.540   3.076  11.116 -0.4547  0.1700  0.6277
 9133TIP3   OH248813   3.696   6.562   5.219 -0.0631 -0.3274  0.0675
 9133TIP3    H148814   3.729   6.520   5.140  0.6324  1.3283 -0.5464
 9133TIP3    H248815   3.601   6.565   5.207 -0.1051 -1.6267  0.0758
 9134TIP3   OH248816   0.580   3.482  16.975 -0.1075  1.0285 -0.2060
 9134TIP3    H148817   0.539   3.423  17.038 -1.9477  1.0537 -1.3382
 9134TIP3    H248818   0.532   3.565  16.984  0.7106  1.5426 -0.4751
 9135TIP3   OH248819   0.995   4.129  11.416  0.6153  0.6424  0.2729
 9135TIP3    H148820   1.023   4.184  11.343 -0.7241  1.6027  0.4688
 9135TIP3    H248821   0.972   4.191  11.485  2.1063 -0.2575  1.6287
 9136TIP3   OH248822   2.513   5.852  12.013  0.0739  0.2227 -0.2121
 9136TIP3    H148823   2.466   5.925  12.053 -0.4000  0.5655 -1.3779
 9136TIP3    H248824   2.493   5.777  12.070  0.2823  0.9149  0.7889
 9137TIP3   OH248825   3.893   2.963   4.157  0.0598 -0.1259 -0.2916
 9137TIP3    H148826   3.835   3.037   4.177  0.0737 -0.2757  0.3213
 9137TIP3    H248827   3.902   2.964   4.062 -0.7246  0.0701 -0.3660
 9138TIP3   OH248828   1.859   2.493   3.027  0.0365  0.0551  0.3760
 9138TIP3    H148829   1.834   2.583   3.005  0.3869 -0.0479 -0.4382
 9138TIP3    H248830   1.856   2.491   3.123 -0.1159  0.8930  0.3986
 9139TIP3   OH248831   2.971   1.173  11.348 -0.1231 -0.4785  0.0412
 9139TIP3    H148832   3.027   1.222  11.287 -1.7862  1.5831  0.1001
 9139TIP3    H248833   2.903   1.135  11.292 -1.2611  0.8502  0.5004
 9140TIP3   OH248834   1.652   2.197  11.874 -0.4201  0.4022 -0.1413
 9140TIP3    H148835   1.631   2.249  11.951 -0.7664 -1.7730  1.2693
 9140TIP3    H248836   1.748   2.195  11.872 -0.4185 -0.2609  0.7198
 9141TIP3   OH248837   5.726   1.629  12.749 -0.2892 -0.1413  1.0064
 9141TIP3    H148838   5.738   1.643  12.655  0.1867 -3.0211  0.5922
 9141TIP3    H248839   5.634   1.606  12.759 -0.4389  0.5681  1.3228
 9142TIP3   OH248840   5.828   2.418  12.301 -0.2848  0.0951 -0.5711
 9142TIP3    H148841   5.812   2.511  12.287 -0.9587  0.2278  0.9659
 9142TIP3    H248842   5.749   2.375  12.268 -0.4670  0.1582 -0.2188
 9143TIP3   OH248843   3.035   3.765   5.799 -0.0232 -0.3087  0.2663
 9143TIP3    H148844   3.127   3.758   5.824  0.1494 -0.3556 -0.3740
 9143TIP3    H248845   3.028   3.852   5.760 -0.1969 -0.4088  0.0798
 9144TIP3   OH248846   1.946   5.590  12.225  0.3242 -0.6894 -0.6286
 9144TIP3    H148847   2.003   5.519  12.254  0.2944  0.0220  1.2143
 9144TIP3    H248848   1.858   5.563  12.250  0.2114 -0.4106 -0.7188
 9145TIP3   OH248849   0.618   2.706   2.953  0.4392  0.3144  0.2502
 9145TIP3    H148850   0.525   2.685   2.942  0.7412 -0.0416 -1.8910
 9145TIP3    H248851   0.640   2.675   3.040 -1.2943 -0.2005  0.5227
 9146TIP3   OH248852   1.186   0.409   5.007  0.1324 -0.5525 -0.3492
 9146TIP3    H148853   1.240   0.380   5.080  1.0601  1.0389 -0.4007
 9146TIP3    H248854   1.147   0.328   4.973  0.1010 -1.3708  1.5525
 9147TIP3   OH248855   0.421   1.670   5.138  0.1546 -0.8739 -0.4083
 9147TIP3    H148856   0.327   1.660   5.126  0.1695  1.5498 -2.9565
 9147TIP3    H248857   0.458   1.585   5.112 -1.2709 -1.6746  0.1545
 9148TIP3   OH248858   0.358   6.327   6.189  0.6904 -0.3510 -0.3125
 9148TIP3    H148859   0.427   6.276   6.230  0.8351  0.6779  0.7695
 9148TIP3    H248860   0.277   6.284   6.218  0.8456 -0.8230 -0.5777
 9149TIP3   OH248861   1.126   0.133   6.638 -0.4288  0.4067  0.1660
 9149TIP3    H148862   1.037   0.166   6.649  0.1033  1.5157  1.1581
 9149TIP3    H248863   1.176   0.208   6.606  0.5857  0.3299  1.5473
 9150TIP3   OH248864   2.860   6.674  11.161  0.3550  0.2463 -0.0287
 9150TIP3    H148865   2.932   6.699  11.102  0.6983 -1.2490 -0.2568
 9150TIP3    H248866   2.901   6.671  11.247 -0.0044  1.8058  0.2155
 9151TIP3   OH248867   3.337   3.149   5.733 -0.5573  0.3364  0.3267
 9151TIP3    H148868   3.282   3.178   5.806 -1.6948 -0.4631 -0.2034
 9151TIP3    H248869   3.418   3.120   5.774 -0.6152  1.2975  1.1422
 9152TIP3   OH248870   4.733   6.685   6.649  0.4698 -0.0063  0.0230
 9152TIP3    H148871   4.667   6.618   6.667 -0.1397  0.8955  1.1495
 9152TIP3    H248872   4.687   6.753   6.602  0.8032  0.2160  0.0160
 9153TIP3   OH248873   2.607   4.355   0.405 -0.1824  0.3453  0.4410
 9153TIP3    H148874   2.620   4.434   0.458  1.1344  0.7608 -0.4692
 9153TIP3    H248875   2.548   4.300   0.457 -0.3427  1.5157  1.5110
 9154TIP3   OH248876   5.825   1.323  14.030 -0.6283 -0.4438  0.4729
 9154TIP3    H148877   5.768   1.270  13.976 -0.3188  0.2433 -0.5390
 9154TIP3    H248878   5.855   1.394  13.972  1.0965 -0.6956  1.0241
 9155TIP3   OH248879   5.574   5.601   5.463 -0.2904 -0.1582 -1.4954
 9155TIP3    H148880   5.561   5.587   5.369 -1.0630 -0.4381 -1.3533
 9155TIP3    H248881   5.644   5.667   5.468 -0.5070  0.1374 -2.2763
 9156TIP3   OH248882   2.752   0.072  15.504  0.3267  0.3048 -0.2872
 9156TIP3    H148883   2.755  -0.024  15.503  0.3996  0.3078 -0.5467
 9156TIP3    H248884   2.731   0.096  15.414 -1.0880  0.4937  0.0787
 9157TIP3   OH248885   1.141   5.484  14.324  0.8207 -0.6224 -0.1354
 9157TIP3    H148886   1.155   5.517  14.235  1.9860 -0.0618  0.2340
 9157TIP3    H248887   1.158   5.390  14.318  2.1253 -0.3869 -0.2686
 9158TIP3   OH248888   5.771   6.124   4.161  0.4983 -0.3256  0.6964
 9158TIP3    H148889   5.743   6.155   4.075  0.4199 -0.2517  0.7480
 9158TIP3    H248890   5.726   6.181   4.223 -0.6365 -1.3333  0.8252
 9159TIP3   OH248891   1.550   0.394  12.364  0.0401  0.6544  0.4486
 9159TIP3    H148892   1.600   0.407  12.283 -1.1959  4.4761  0.2473
 9159TIP3    H248893   1.614   0.407  12.434 -0.2219  3.7822  0.1579
 9160TIP3   OH248894   6.393   5.451  14.541 -0.2860  0.1579  0.5240
 9160TIP3    H148895   6.477   5.448  14.585 -0.0534 -0.9028  0.0371
 9160TIP3    H248896   6.332   5.409  14.602 -0.3773  0.5489  0.7015
 9161TIP3   OH248897   5.607   1.095  12.267  0.3817  0.4456  0.0006
 9161TIP3    H148898   5.594   1.072  12.359 -1.1171 -0.3955 -0.4093
 9161TIP3    H248899   5.683   1.044  12.240 -1.0855 -1.7403 -0.0689
 9162TIP3   OH248900   1.234   5.501  13.223  0.0684  0.4880 -0.0087
 9162TIP3    H148901   1.313   5.551  13.201 -0.1225  1.0936  0.6425
 9162TIP3    H248902   1.167   5.534  13.164 -0.4280  2.0634  1.3993
 9163TIP3   OH248903   5.010   0.973   0.079 -0.7724  0.2530  0.6641
 9163TIP3    H148904   5.023   1.065   0.102 -1.2110  0.1643  1.2758
 9163TIP3    H248905   5.035   0.968  -0.013 -0.7038  0.9772  0.6374
 9164TIP3   OH248906   2.425   2.307  17.038 -0.2054 -0.1672  0.0305
 9164TIP3    H148907   2.493   2.373  17.022  0.1024  0.1514  2.4959
 9164TIP3    H248908   2.472   2.225  17.047 -0.0415  0.1448  2.3362
 9165TIP3   OH248909   4.313   2.652  11.680 -0.0222 -0.1285  0.3827
 9165TIP3    H148910   4.291   2.646  11.587  0.3600  3.1599 -0.0017
 9165TIP3    H248911   4.228   2.666  11.724 -0.1987 -1.6469  0.5279
 9166TIP3   OH248912   3.872   3.966   6.607 -0.0843 -0.1128  0.6146
 9166TIP3    H148913   3.900   3.974   6.698 -1.3807 -0.7077  1.0884
 9166TIP3    H248914   3.953   3.950   6.558  0.6710  0.6378  1.6024
 9167TIP3   OH248915   4.988   0.014  16.638  0.0877  0.4608  0.2145
 9167TIP3    H148916   5.001   0.107  16.659  3.8943 -0.0333  0.4088
 9167TIP3    H248917   4.937  -0.020  16.711  1.7668  1.6430  1.9851
 9168TIP3   OH248918   3.974   4.608  13.144  0.4486  0.2682  0.0236
 9168TIP3    H148919   4.021   4.686  13.176 -0.7857  0.9844  0.1225
 9168TIP3    H248920   4.041   4.558  13.097  1.7408  0.3651  1.6961
 9169TIP3   OH248921   2.450   0.107  14.487 -0.0527  0.0831 -0.1702
 9169TIP3    H148922   2.444   0.174  14.554 -1.4125  0.3260 -0.5155
 9169TIP3    H248923   2.373   0.120  14.433  0.1569 -1.1643 -0.7988
 9170TIP3   OH248924   3.765   4.255  12.488  0.1684  0.5764 -0.1433
 9170TIP3    H148925   3.682   4.264  12.442 -0.2249  0.9378  0.6195
 9170TIP3    H248926   3.831   4.290  12.427 -0.5559  2.7146  0.2414
 9171TIP3   OH248927   2.401   2.755  14.406 -0.1376  0.2518 -0.0720
 9171TIP3    H148928   2.319   2.709  14.423 -0.2376  1.1149  1.8800
 9171TIP3    H248929   2.462   2.720  14.471  0.8320  0.1734 -1.0114
 9172TIP3   OH248930   0.409   3.318   1.408  0.0481 -0.1968  0.2143
 9172TIP3    H148931   0.396   3.413   1.407  1.8210  0.0662  0.0516
 9172TIP3    H248932   0.439   3.300   1.498  0.8109 -0.4265 -0.0795
 9173TIP3   OH248933   2.989   4.260  16.233  0.9929  0.1915  0.4537
 9173TIP3    H148934   3.041   4.244  16.311  1.6359  0.6302  0.1220
 9173TIP3    H248935   3.025   4.341  16.197 -1.0517  1.4482  1.1610
 9174TIP3   OH248936   3.101   5.330  12.994 -0.4215 -0.4899 -0.1730
 9174TIP3    H148937   3.167   5.395  12.970 -2.4542  2.1028  1.0764
 9174TIP3    H248938   3.151   5.261  13.039  1.4369  1.4748  0.8685
 9175TIP3   OH248939   0.815   2.428  16.537 -0.2987  0.0538  0.0963
 9175TIP3    H148940   0.808   2.511  16.489 -1.8787  0.1098  0.3924
 9175TIP3    H248941   0.862   2.452  16.617 -0.3907  0.5819 -0.0015
 9176TIP3   OH248942   4.341   0.212   1.172 -0.1214  0.4082  0.1770
 9176TIP3    H148943   4.321   0.153   1.099 -2.6948  0.6904  0.5956
 9176TIP3    H248944   4.302   0.296   1.146  0.8811  1.1218  0.9215
 9177TIP3   OH248945   5.035   0.249   1.031 -0.5043 -0.2906  0.2092
 9177TIP3    H148946   5.093   0.326   1.028 -0.3912 -0.3331  1.3827
 9177TIP3    H248947   5.035   0.217   0.940 -0.0557  0.7216 -0.1666
 9178TIP3   OH248948   5.057   2.335  15.873  0.4892  0.6703  0.3246
 9178TIP3    H148949   5.029   2.340  15.781 -0.3784  1.1097  0.6018
 9178TIP3    H248950   4.999   2.270  15.912  2.1244 -0.9216  0.1270
 9179TIP3   OH248951   2.021   4.109   1.008  0.1098 -0.0927  0.3064
 9179TIP3    H148952   2.015   4.205   1.002  0.5025 -0.1627 -1.8531
 9179TIP3    H248953   2.110   4.089   0.978 -0.6808 -1.2502 -1.3438
 9180TIP3   OH248954   6.482   0.712   1.787  1.0640  0.1476  0.1501
 9180TIP3    H148955   6.412   0.774   1.764  0.8707  0.2156  0.9097
 9180TIP3    H248956   6.502   0.668   1.705 -0.3147 -0.3171  0.0439
 9181TIP3   OH248957   0.383   6.387  12.941 -0.6014 -0.2326  0.3504
 9181TIP3    H148958   0.345   6.390  12.853 -1.2953  0.9990  0.6879
 9181TIP3    H248959   0.385   6.478  12.970  0.3719 -0.5431  1.2998
 9182TIP3   OH248960   1.326   1.871   5.695  0.5008  0.2311 -0.1250
 9182TIP3    H148961   1.341   1.961   5.669 -2.0538  0.0516 -2.4844
 9182TIP3    H248962   1.376   1.819   5.633 -1.7904 -0.0685 -1.7732
 9183TIP3   OH248963   4.525   1.325  12.210 -0.0659  0.0745  0.5094
 9183TIP3    H148964   4.546   1.364  12.124  1.1158 -0.0134  0.7452
 9183TIP3    H248965   4.507   1.233  12.191  1.9669 -0.3545  0.5744
 9184TIP3   OH248966   6.260   1.640  14.319  0.3850  0.6680  0.6257
 9184TIP3    H148967   6.198   1.603  14.382 -0.4978  1.4440  0.2237
 9184TIP3    H248968   6.286   1.724  14.357 -0.2116  1.1757 -0.0801
 9185TIP3   OH248969   6.395   3.202   3.053  0.3461  0.4020  0.2044
 9185TIP3    H148970   6.475   3.218   3.004  1.1081 -0.4866  1.1473
 9185TIP3    H248971   6.416   3.228   3.143 -0.6233  0.7546  0.3385
 9186TIP3   OH248972   6.000   2.480   5.679 -0.2436  0.0593  0.4292
 9186TIP3    H148973   5.943   2.404   5.671 -0.7451  0.3846  0.8525
 9186TIP3    H248974   6.087   2.444   5.693 -0.2946 -0.4472 -0.4869
 9187TIP3   OH248975   2.731   6.009   0.477 -0.7819  0.4370 -0.7017
 9187TIP3    H148976   2.782   6.090   0.475 -1.1751  0.6877 -0.9338
 9187TIP3    H248977   2.677   6.017   0.555  3.3907 -2.2889  2.6230
 9188TIP3   OH248978   1.965   2.088  16.313 -0.2585  0.1447  0.1161
 9188TIP3    H148979   1.908   2.015  16.336  1.7321 -1.3881  0.2517
 9188TIP3    H248980   1.905   2.156  16.282 -2.2473 -0.9966  1.3811
 9189TIP3   OH248981   1.006   5.373   2.398 -0.0980 -0.1182  1.2403
 9189TIP3    H148982   1.054   5.386   2.480 -1.3711 -1.4834  2.2137
 9189TIP3    H248983   0.965   5.288   2.407 -0.8754  0.0527 -0.5199
 9190TIP3   OH248984   5.615   4.785  10.279  0.5945  0.0642 -0.3428
 9190TIP3    H148985   5.590   4.872  10.310 -0.6978 -0.1411 -0.7991
 9190TIP3    H248986   5.692   4.763  10.332  0.9933  1.5137 -0.2912
 9191TIP3   OH248987   4.201   5.469   0.528  0.5045  0.5384 -0.3536
 9191TIP3    H148988   4.164   5.520   0.457 -0.8082  0.0434 -0.0272
 9191TIP3    H248989   4.135   5.404   0.549  0.0302  1.8742  2.6102
 9192TIP3   OH248990   6.233   1.009  13.481 -0.5868  0.5900 -0.2187
 9192TIP3    H148991   6.147   0.989  13.443 -0.6740  0.5619 -0.0061
 9192TIP3    H248992   6.227   0.980  13.572  1.0477 -3.3761 -1.2417
 9193TIP3   OH248993   6.234   2.344  11.749 -0.4079 -0.0690 -0.1927
 9193TIP3    H148994   6.310   2.286  11.761 -1.0815 -0.7523  0.8253
 9193TIP3    H248995   6.189   2.341  11.833 -1.9793 -0.2427 -1.0392
 9194TIP3   OH248996   3.916   1.662   3.065 -0.4543  0.3353  0.2630
 9194TIP3    H148997   3.821   1.669   3.050 -0.5086 -0.5033  0.2262
 9194TIP3    H248998   3.954   1.727   3.005 -0.8770 -0.7161 -1.1744
 9195TIP3   OH248999   0.140   0.887  14.623  0.5275  0.4482 -0.5950
 9195TIP3    H149000   0.051   0.869  14.594  0.7263  0.6443 -1.3395
 9195TIP3    H249001   0.184   0.802  14.624  0.2344  0.3034  0.1149
 9196TIP3   OH249002   5.561   1.057  12.547 -0.1364  0.1534  0.2478
 9196TIP3    H149003   5.530   0.968  12.565 -0.8424  0.4803  0.6638
 9196TIP3    H249004   5.492   1.114  12.581  0.0571  0.8521 -0.5078
 9197TIP3   OH249005   1.690   1.220  15.089  0.2430  0.1577 -0.5868
 9197TIP3    H149006   1.615   1.220  15.030 -1.0880 -0.1633  1.0598
 9197TIP3    H249007   1.725   1.131  15.084 -0.2366 -0.0415 -0.4609
 9198TIP3   OH249008   5.096   1.599  14.794 -0.0468 -0.7682  0.5075
 9198TIP3    H149009   5.160   1.631  14.730 -0.7910 -1.0926 -0.4125
 9198TIP3    H249010   5.147   1.545  14.854  1.3010  2.2414  2.2217
 9199TIP3   OH249011   5.205   1.489  16.111 -0.4735  0.2630 -0.2626
 9199TIP3    H149012   5.158   1.472  16.029 -1.1439 -1.8423  0.5451
 9199TIP3    H249013   5.265   1.415  16.120  0.0200  0.7933  0.8484
 9200TIP3   OH249014   1.908   4.862  13.802  0.0823  0.2227 -0.4723
 9200TIP3    H149015   1.967   4.931  13.769  1.9176 -1.2994 -0.4437
 9200TIP3    H249016   1.938   4.846  13.891  0.3272 -1.3489 -0.8362
 9201TIP3   OH249017   5.384   6.520   5.989  0.3237  0.5361 -0.6559
 9201TIP3    H149018   5.405   6.434   6.025  1.5655  1.3163  0.5160
 9201TIP3    H249019   5.469   6.564   5.980 -0.3637  1.9289 -0.5088
 9202TIP3   OH249020   3.109   3.511  16.704  0.7455 -0.1922 -0.0155
 9202TIP3    H149021   3.113   3.462  16.621  1.6981 -0.5034  0.2115
 9202TIP3    H249022   3.200   3.535  16.722  0.8532 -2.0258  2.0712
 9203TIP3   OH249023   3.903   6.600   0.249  0.7001  0.1413  0.0898
 9203TIP3    H149024   3.857   6.534   0.199  2.4824 -1.1386  0.1006
 9203TIP3    H249025   3.872   6.589   0.339  0.1570  0.0772 -0.1064
 9204TIP3   OH249026   3.758   3.642  16.229  0.0753 -0.0405  0.5095
 9204TIP3    H149027   3.801   3.613  16.309  1.7430 -0.2687 -0.4434
 9204TIP3    H249028   3.771   3.570  16.167  1.1635  1.2423 -0.7917
 9205TIP3   OH249029   0.687   5.706   1.164  0.4828  0.4401  0.0105
 9205TIP3    H149030   0.628   5.755   1.108  0.8429  0.5767 -0.2546
 9205TIP3    H249031   0.631   5.666   1.230  0.1145  0.6755 -0.1611
 9206TIP3   OH249032   0.454   3.598   0.362  0.4805  0.5774  0.6812
 9206TIP3    H149033   0.513   3.610   0.436  1.3865  0.6369 -0.0326
 9206TIP3    H249034   0.403   3.520   0.384  0.3428  0.9329  1.6202
 9207TIP3   OH249035   5.269   3.350   3.316 -0.2095 -0.2675  0.0295
 9207TIP3    H149036   5.262   3.323   3.408  0.0992  2.6900  0.9563
 9207TIP3    H249037   5.363   3.366   3.303 -0.0856 -1.8738 -1.1801
 9208TIP3   OH249038   5.779   2.098  10.827  0.7875  0.0442 -0.4006
 9208TIP3    H149039   5.747   2.135  10.745 -1.4105 -0.5055  0.1616
 9208TIP3    H249040   5.844   2.161  10.858  1.1686  0.5780 -2.2269
 9209TIP3   OH249041   1.864   3.280  14.824  0.6859  0.3444 -0.3974
 9209TIP3    H149042   1.837   3.208  14.766  0.8059  0.3736 -0.4882
 9209TIP3    H249043   1.860   3.358  14.770  1.2975  0.3007 -0.5070
 9210TIP3   OH249044   0.907   6.384   5.514 -0.3737 -0.2394 -0.3378
 9210TIP3    H149045   0.873   6.296   5.497 -0.5993 -0.3259  0.5616
 9210TIP3    H249046   0.880   6.435   5.437 -0.1206 -0.9838 -0.9256
 9211TIP3   OH249047   2.927   4.390  12.666 -0.0890  0.1581 -0.1064
 9211TIP3    H149048   3.022   4.391  12.650  0.1378 -0.0703  1.1761
 9211TIP3    H249049   2.907   4.477  12.699  0.1030 -0.5055  1.8753
 9212TIP3   OH249050   5.178   6.176   4.735 -0.0656  0.2280 -0.1642
 9212TIP3    H149051   5.219   6.191   4.820 -2.1910  1.0244  0.7676
 9212TIP3    H249052   5.088   6.207   4.747 -0.4633  0.0652 -2.6198
 9213TIP3   OH249053   3.859   2.734  13.348  0.5291 -0.2204  0.5300
 9213TIP3    H149054   3.795   2.756  13.280 -0.8039 -1.7832  1.2624
 9213TIP3    H249055   3.944   2.752  13.306 -0.2543 -1.2553 -1.6018
 9214TIP3   OH249056   4.854   6.736  15.322  0.2251  0.2330 -0.6185
 9214TIP3    H149057   4.847   6.800  15.251 -0.5856  1.5651  0.6402
 9214TIP3    H249058   4.816   6.780  15.398  0.5034 -1.4100  0.4962
 9215TIP3   OH249059   3.133   3.251   0.710 -0.1693  0.3638  0.4893
 9215TIP3    H149060   3.130   3.321   0.776  0.0935  1.3176 -0.5073
 9215TIP3    H249061   3.041   3.231   0.694 -0.2230 -1.0099  2.3285
 9216TIP3   OH249062   1.921   3.764  15.606  0.9239  0.2351  0.2567
 9216TIP3    H149063   1.893   3.689  15.553  0.6091  1.1654 -0.9215
 9216TIP3    H249064   1.860   3.766  15.679  1.0594 -0.7825  0.4042
 9217TIP3   OH249065   0.566   4.075   1.894 -0.0606 -0.1370 -0.1665
 9217TIP3    H149066   0.474   4.047   1.901 -0.3353  0.6708 -0.4253
 9217TIP3    H249067   0.593   4.093   1.984  0.3362 -1.8881  0.0772
 9218TIP3   OH249068   4.047   2.405   0.698  0.1275  0.5130 -0.7811
 9218TIP3    H149069   4.139   2.390   0.679  0.1178 -0.2882 -0.2231
 9218TIP3    H249070   4.046   2.437   0.789 -0.1653  0.2726 -0.6993
 9219TIP3   OH249071   0.176   2.431  12.779  0.3819  0.2992  0.4036
 9219TIP3    H149072   0.107   2.434  12.714 -0.6655 -1.8011  1.3773
 9219TIP3    H249073   0.199   2.339  12.786  1.3202  0.6369  2.1055
 9220TIP3   OH249074   6.126   2.357   3.685  0.7659 -0.8339 -0.5539
 9220TIP3    H149075   6.054   2.309   3.726  1.5259 -1.1110  0.4705
 9220TIP3    H249076   6.143   2.309   3.604 -0.1953 -0.7654 -0.8093
 9221TIP3   OH249077   0.489   1.479   0.322  0.3616  0.2857  0.4525
 9221TIP3    H149078   0.500   1.519   0.235  0.4119 -1.6911 -0.4662
 9221TIP3    H249079   0.428   1.537   0.367 -2.3098 -0.4190 -2.0893
 9222TIP3   OH249080   2.779   5.204  14.521 -0.3985 -0.0234  0.3028
 9222TIP3    H149081   2.688   5.210  14.491 -0.1530 -0.7293 -0.5783
 9222TIP3    H249082   2.799   5.293  14.552 -0.6787  0.7105 -1.5559
 9223TIP3   OH249083   2.514   5.081  17.072  0.3699  0.1620 -0.2390
 9223TIP3    H149084   2.467   5.000  17.052 -0.1226  0.3204  0.2595
 9223TIP3    H249085   2.594   5.075  17.020 -0.1695 -0.1362 -1.0600
 9224TIP3   OH249086   4.273   1.092  14.521 -0.1334  0.1371  0.0759
 9224TIP3    H149087   4.255   1.124  14.432  0.0590  0.1234  0.0316
 9224TIP3    H249088   4.215   1.017  14.532  0.6646 -0.5667 -0.4581
 9225TIP3   OH249089   1.459   1.205   6.845  0.3023 -0.2940 -0.4962
 9225TIP3    H149090   1.534   1.238   6.797 -0.1169  1.7023  0.1590
 9225TIP3    H249091   1.431   1.279   6.899 -2.3832 -0.8592 -1.0450
 9226TIP3   OH249092   1.680   4.107   5.006 -0.5339 -0.3935 -0.1203
 9226TIP3    H149093   1.686   4.074   4.917 -2.2973 -0.7609 -0.1110
 9226TIP3    H249094   1.684   4.202   4.997  1.7189 -0.4904 -0.3748
 9227TIP3   OH249095   1.484   2.112  15.793 -0.5016 -0.2398  0.0332
 9227TIP3    H149096   1.529   2.139  15.713 -0.0709  0.0688  0.3765
 9227TIP3    H249097   1.400   2.078  15.763 -0.2652 -0.2971 -0.5657
 9228TIP3   OH249098   4.990   4.980   1.592 -0.0706  0.3275 -0.5953
 9228TIP3    H149099   4.945   5.054   1.552  2.3404  1.4766 -1.2829
 9228TIP3    H249100   4.966   4.984   1.685 -2.0984  0.3454 -1.0979
 9229TIP3   OH249101   1.924   4.079   5.124  0.0778 -0.1549  0.0023
 9229TIP3    H149102   1.912   4.110   5.214  1.4752  0.4816 -0.0150
 9229TIP3    H249103   1.841   4.099   5.080  0.0444  1.1923  0.6685
 9230TIP3   OH249104   2.465   1.739  16.699  0.0128 -0.0759 -0.1807
 9230TIP3    H149105   2.378   1.776  16.712  0.6876  1.5674 -0.1443
 9230TIP3    H249106   2.498   1.722  16.787  0.7326  1.7612 -0.0780
 9231TIP3   OH249107   3.415   6.070  13.947 -0.1543  0.2842  0.3432
 9231TIP3    H149108   3.472   6.145  13.960  1.2182 -0.7990  0.7649
 9231TIP3    H249109   3.456   6.020  13.876 -0.7416 -0.3416  0.4317
 9232TIP3   OH249110   1.128   2.822  13.310  0.4056  0.4766 -0.1315
 9232TIP3    H149111   1.035   2.814  13.289 -0.1154  2.4296  1.2601
 9232TIP3    H249112   1.149   2.914  13.292  2.3474 -0.1834 -1.4425
 9233TIP3   OH249113   4.265   0.197   5.728  0.0625  0.5969 -0.4845
 9233TIP3    H149114   4.191   0.192   5.667 -1.1105  1.4681  0.8175
 9233TIP3    H249115   4.325   0.129   5.699 -1.6348 -0.6959 -1.0787
 9234TIP3   OH249116   2.395   0.826  10.853 -0.1008 -0.4730 -0.4511
 9234TIP3    H149117   2.452   0.860  10.922  0.0617  0.6881 -1.1499
 9234TIP3    H249118   2.390   0.732  10.870  0.6228 -0.3153  0.6405
 9235TIP3   OH249119   4.799   0.916   1.851  0.7560  0.1033 -1.0205
 9235TIP3    H149120   4.883   0.907   1.807  1.3063  1.3786 -0.2526
 9235TIP3    H249121   4.818   0.966   1.930 -0.9585  1.7896 -1.6125
 9236TIP3   OH249122   0.896   3.782  12.059  0.1417  0.2556  0.8473
 9236TIP3    H149123   0.956   3.742  11.996  0.5039  1.3548  0.4840
 9236TIP3    H249124   0.812   3.739  12.043 -0.3770  2.2002 -2.0559
 9237TIP3   OH249125   6.698   6.297  15.239  0.0473 -1.2971  0.0055
 9237TIP3    H149126   6.615   6.343  15.257  1.2252  0.4839  1.0716
 9237TIP3    H249127   6.752   6.315  15.316  1.5221 -2.2111 -0.8034
 9238TIP3   OH249128   5.055   1.197   5.578 -0.2754 -0.0543 -1.1971
 9238TIP3    H149129   5.095   1.168   5.660 -0.8847  0.1459 -0.8246
 9238TIP3    H249130   5.095   1.143   5.510  0.6721  0.1894 -0.8344
 9239TIP3   OH249131   0.996   0.839   1.272 -0.5208  0.1171 -0.4782
 9239TIP3    H149132   0.914   0.843   1.321 -0.5492 -3.5437 -0.0702
 9239TIP3    H249133   1.064   0.835   1.339 -0.0402  2.4193 -0.8125
 9240TIP3   OH249134   4.414   4.412  11.619 -0.5770 -0.2415  0.0197
 9240TIP3    H149135   4.504   4.442  11.615 -0.7231  0.3504  0.9426
 9240TIP3    H249136   4.362   4.486  11.585 -0.7296 -0.5332 -0.3981
 9241TIP3   OH249137   6.332   0.724   1.263 -0.1535  0.1415 -0.3843
 9241TIP3    H149138   6.311   0.639   1.303 -0.4812  0.8381  0.9536
 9241TIP3    H249139   6.316   0.788   1.333  0.6876  1.2494 -1.1890
 9242TIP3   OH249140   0.899   0.665  11.484 -0.4686  0.5725 -0.5617
 9242TIP3    H149141   0.840   0.622  11.546  0.0443  1.2887  0.4252
 9242TIP3    H249142   0.979   0.612  11.488 -0.2990  0.8482 -0.3241
 9243TIP3   OH249143   3.911   1.551  16.459  0.3715  0.6070 -0.1650
 9243TIP3    H149144   3.915   1.604  16.538  1.4819  1.5629 -0.8436
 9243TIP3    H249145   3.892   1.613  16.389  1.0474  0.0217 -0.8859
 9244TIP3   OH249146   6.015   0.087  16.307  0.7074 -0.0910  0.1974
 9244TIP3    H149147   5.953   0.109  16.238  0.3406 -1.8929 -0.0741
 9244TIP3    H249148   6.082   0.155  16.301 -0.2136  0.7481 -0.8031
 9245TIP3   OH249149   5.206   4.621   0.363 -0.1130  0.3793 -0.5361
 9245TIP3    H149150   5.261   4.623   0.285 -0.0548  0.5403 -0.4896
 9245TIP3    H249151   5.238   4.545   0.413 -0.4304  0.0188 -0.8740
 9246TIP3   OH249152   4.119   4.605  16.517 -0.1826 -0.0247  0.2402
 9246TIP3    H149153   4.204   4.613  16.474  0.4121  1.2539  1.6036
 9246TIP3    H249154   4.096   4.512  16.508  0.7828 -0.1466 -1.1778
 9247TIP3   OH249155   6.724   2.682   0.629 -0.2554 -0.5645 -0.2750
 9247TIP3    H149156   6.688   2.666   0.542  0.6010  0.3989 -0.8235
 9247TIP3    H249157   6.766   2.768   0.622  0.4916 -0.8199  0.8714
 9248TIP3   OH249158   4.868   3.607  12.189 -0.1530 -0.1958 -0.3631
 9248TIP3    H149159   4.887   3.522  12.228  0.0440 -0.0375 -0.1201
 9248TIP3    H249160   4.887   3.595  12.096 -2.7006 -1.2213 -0.8019
 9249TIP3   OH249161   1.972   6.267   1.564 -0.5373  0.2660 -0.2358
 9249TIP3    H149162   2.033   6.222   1.622 -0.3274  0.6664 -0.1462
 9249TIP3    H249163   2.014   6.350   1.545 -0.4054 -0.0429 -1.3127
 9250TIP3   OH249164   2.322   4.935   5.819  0.1788  0.0374 -0.3755
 9250TIP3    H149165   2.273   4.886   5.885 -0.0123  1.3119  0.4682
 9250TIP3    H249166   2.414   4.918   5.840  0.1227  0.5193  0.3177
 9251TIP3   OH249167   0.165   0.064   3.845 -0.2961 -0.0406  0.0416
 9251TIP3    H149168   0.106   0.006   3.892 -0.4413  0.8786  1.0057
 9251TIP3    H249169   0.124   0.076   3.760 -1.9811  1.3247  1.0192
 9252TIP3   OH249170   4.719   3.697   5.648  0.0104  0.3872  0.6363
 9252TIP3    H149171   4.800   3.668   5.690  1.6924  0.2367 -2.5076
 9252TIP3    H249172   4.691   3.622   5.595  0.6470  2.0833 -2.2162
 9253TIP3   OH249173   0.006   0.780   2.185 -0.2254 -0.5868  0.0158
 9253TIP3    H149174  -0.080   0.822   2.179 -0.5085 -1.0978  0.4404
 9253TIP3    H249175   0.017   0.734   2.102 -0.9099 -1.5526  0.4540
 9254TIP3   OH249176   3.374   4.604   1.887 -0.4342  0.1314 -0.5471
 9254TIP3    H149177   3.378   4.541   1.815 -0.0382  0.2285 -0.6098
 9254TIP3    H249178   3.386   4.689   1.845 -0.4133  0.2042 -0.3925
 9255TIP3   OH249179   1.281   4.593  14.733  0.2278 -0.5067 -0.1162
 9255TIP3    H149180   1.282   4.579  14.639 -0.5900 -0.7846 -0.0931
 9255TIP3    H249181   1.359   4.549  14.765 -0.4957 -2.0920 -0.4473
 9256TIP3   OH249182   5.880   2.057   5.581 -0.0272 -0.5627  0.3642
 9256TIP3    H149183   5.973   2.068   5.562 -1.0673  2.3614 -3.6975
 9256TIP3    H249184   5.862   2.121   5.650  0.5618  0.4155 -0.3805
 9257TIP3   OH249185   2.269   2.414   1.489  0.8230  1.1054  0.2241
 9257TIP3    H149186   2.336   2.363   1.443  0.5636  0.5029  0.5238
 9257TIP3    H249187   2.189   2.398   1.440  0.4990  0.2859  1.0206
 9258TIP3   OH249188   5.325   2.361  12.964  0.4311 -0.7767 -0.2509
 9258TIP3    H149189   5.314   2.392  13.054 -0.6133 -0.9735 -0.3067
 9258TIP3    H249190   5.325   2.265  12.971  1.0257 -0.7860 -0.3812
 9259TIP3   OH249191   4.665   0.709  16.666  0.2660  0.0035 -0.4467
 9259TIP3    H149192   4.575   0.743  16.668  0.3019  0.0627  0.8580
 9259TIP3    H249193   4.700   0.730  16.753  1.9838  1.1548 -1.3984
 9260TIP3   OH249194   0.878   6.738  13.327  0.3840  0.3714 -0.2148
 9260TIP3    H149195   0.877   6.832  13.307  0.0266  0.0905 -1.5486
 9260TIP3    H249196   0.932   6.731  13.406 -2.3286  2.0724  1.8665
 9261TIP3   OH249197   0.181   0.880   6.225 -0.6402  0.0184  0.3280
 9261TIP3    H149198   0.102   0.905   6.177  0.1584  0.6936 -0.6563
 9261TIP3    H249199   0.247   0.944   6.199  0.6900 -1.4886 -0.1505
 9262TIP3   OH249200   3.386   0.009  13.313 -0.3604  0.1608 -0.0632
 9262TIP3    H149201   3.436  -0.063  13.350 -0.6814 -0.9970 -1.8183
 9262TIP3    H249202   3.344  -0.028  13.235  0.6611  2.6231 -1.8527
 9263TIP3   OH249203   0.940   0.999  10.922  0.4181 -0.6712 -0.3220
 9263TIP3    H149204   1.034   0.982  10.928  0.0505 -3.1435 -1.0218
 9263TIP3    H249205   0.899   0.912  10.926 -1.8252  0.3374 -0.3546
 9264TIP3   OH249206   1.896   2.563  11.557 -0.5086  0.1399  0.0521
 9264TIP3    H149207   1.890   2.507  11.634  1.0203 -0.0391  0.0558
 9264TIP3    H249208   1.957   2.632  11.583 -0.2145  0.2382 -0.8952
 9265TIP3   OH249209   5.183   2.624  12.509  0.1420  0.3326 -0.6706
 9265TIP3    H149210   5.238   2.572  12.568  1.6474  1.3008 -1.1963
 9265TIP3    H249211   5.107   2.648  12.563  0.2203 -1.0094  0.0630
 9266TIP3   OH249212   1.602   0.457   2.056 -0.5740  0.0295 -0.1351
 9266TIP3    H149213   1.581   0.402   2.132  0.1704 -0.9111 -0.5942
 9266TIP3    H249214   1.615   0.394   1.985  2.0180  0.7128 -0.2815
 9267TIP3   OH249215   1.619   3.591  12.635 -0.5568  0.7602 -0.0101
 9267TIP3    H149216   1.707   3.600  12.599 -0.4012 -0.5842  0.0045
 9267TIP3    H249217   1.563   3.572  12.559 -0.6647  0.5521  0.1215
 9268TIP3   OH249218   2.968   2.338  12.131 -0.4995 -0.3693  0.1628
 9268TIP3    H149219   3.029   2.328  12.058 -1.1304 -0.4841 -0.3596
 9268TIP3    H249220   2.896   2.389  12.095 -0.0456  1.0236  1.1799
 9269TIP3   OH249221   3.778   4.231   2.175 -0.1702  0.1874 -0.6809
 9269TIP3    H149222   3.838   4.157   2.182  1.2000  1.3221 -0.1016
 9269TIP3    H249223   3.771   4.248   2.081  1.5729  0.9346 -0.6991
 9270TIP3   OH249224   0.335   5.743  16.584  0.2664  0.1101  0.1150
 9270TIP3    H149225   0.405   5.722  16.523  0.6556 -0.6894  0.8240
 9270TIP3    H249226   0.259   5.761  16.529  0.4215 -1.3187 -0.5748
 9271TIP3   OH249227   1.287   4.851   0.425  0.6183  0.3021  0.7722
 9271TIP3    H149228   1.210   4.903   0.400  0.7180  0.0614 -0.0634
 9271TIP3    H249229   1.360   4.893   0.378  0.5679 -1.0858 -0.5937
 9272TIP3   OH249230   5.317   0.064  15.386 -0.2890  0.1202 -0.3386
 9272TIP3    H149231   5.228   0.091  15.411 -1.1887 -1.7689 -1.3883
 9272TIP3    H249232   5.357   0.036  15.468 -1.0554 -0.0876 -0.0309
 9273TIP3   OH249233   2.005   5.738   1.999 -0.4426 -0.2681 -0.1387
 9273TIP3    H149234   2.100   5.744   2.005 -0.3996 -1.9696  1.4926
 9273TIP3    H249235   1.975   5.742   2.090 -2.0971  2.2454 -0.7493
 9274TIP3   OH249236   3.877   1.409   2.203 -0.1595 -0.4205 -0.1997
 9274TIP3    H149237   3.909   1.498   2.189 -1.1491 -0.0280 -0.0450
 9274TIP3    H249238   3.808   1.398   2.137 -0.3054 -0.9326  0.0360
 9275TIP3   OH249239   5.813   6.352   0.116  0.1990  0.5435  0.0449
 9275TIP3    H149240   5.896   6.366   0.161  0.6439  0.5730 -0.7808
 9275TIP3    H249241   5.834   6.292   0.045 -0.2295  1.5614 -0.9500
 9276TIP3   OH249242   3.182   0.677   4.675  0.2153 -0.1960 -0.1269
 9276TIP3    H149243   3.277   0.672   4.688  0.1897 -1.1787 -0.3140
 9276TIP3    H249244   3.170   0.657   4.582 -0.0309  1.7036 -0.5206
 9277TIP3   OH249245   3.350   2.322  12.467 -0.4121 -0.5687  0.7148
 9277TIP3    H149246   3.401   2.299  12.389 -1.0190  1.1999 -0.2329
 9277TIP3    H249247   3.320   2.237  12.502  1.9445 -1.5232  0.4702
 9278TIP3   OH249248   6.570   6.312  14.072 -0.0901  0.2887  0.0625
 9278TIP3    H149249   6.596   6.349  14.157 -0.8045  0.4589  0.2138
 9278TIP3    H249250   6.499   6.369  14.042  1.1765  1.1420 -1.3753
 9279TIP3   OH249251   5.784   6.311   5.301 -0.1732  0.3561  1.0820
 9279TIP3    H149252   5.813   6.386   5.354 -0.5543  0.3354  1.3206
 9279TIP3    H249253   5.832   6.237   5.337 -0.2210  0.3898  1.2180
 9280TIP3   OH249254   4.469   3.759   3.939  0.1233 -0.3294  0.1135
 9280TIP3    H149255   4.391   3.752   3.993 -0.7373  0.0594 -1.0623
 9280TIP3    H249256   4.521   3.828   3.981 -0.2814 -0.3991  0.7367
 9281TIP3   OH249257   3.631   6.009  13.402 -0.3915  0.7932 -0.3661
 9281TIP3    H149258   3.599   5.920  13.387  0.9710  0.7780 -3.4255
 9281TIP3    H249259   3.726   6.000  13.408 -0.1170  2.2142 -2.2451
 9282TIP3   OH249260   4.160   6.421   4.515 -0.4774 -0.1484 -0.5825
 9282TIP3    H149261   4.170   6.466   4.431  0.7336  0.9987  0.1637
 9282TIP3    H249262   4.225   6.351   4.514 -0.3945 -0.0714 -0.5565
 9283TIP3   OH249263   2.464   5.363  16.396  0.5262  0.2937  0.0624
 9283TIP3    H149264   2.377   5.331  16.423  0.7308  0.1878  0.6087
 9283TIP3    H249265   2.499   5.405  16.475  0.4732  1.4090 -0.5118
 9284TIP3   OH249266   1.265   3.010  11.712  0.3067 -0.4349  0.2812
 9284TIP3    H149267   1.184   2.993  11.664  0.7321 -0.3107 -0.4954
 9284TIP3    H249268   1.269   3.105  11.721 -0.5718 -0.5465  1.9804
 9285TIP3   OH249269   6.323   1.592   5.633  0.3604 -0.2997 -0.3947
 9285TIP3    H149270   6.374   1.653   5.579 -2.0147  0.6067 -1.6954
 9285TIP3    H249271   6.250   1.645   5.666 -0.6335 -1.9319  0.0926
 9286TIP3   OH249272   4.202   0.526  16.273  0.2732  0.2770  0.4576
 9286TIP3    H149273   4.196   0.494  16.183 -0.7630  0.3856  0.4767
 9286TIP3    H249274   4.291   0.558  16.282 -0.4163  2.8559 -1.4282
 9287TIP3   OH249275   0.361   0.844  16.042 -0.3182 -0.1863  0.6524
 9287TIP3    H149276   0.403   0.849  15.956 -1.8473 -0.8164 -0.1501
 9287TIP3    H249277   0.370   0.932  16.078 -0.3206  0.2865 -0.4701
 9288TIP3   OH249278   2.493   3.079  13.363 -0.2963 -0.5498  0.2045
 9288TIP3    H149279   2.560   3.015  13.337  1.0244  0.6483  0.6102
 9288TIP3    H249280   2.539   3.163  13.364 -1.9870  0.3945 -0.1668
 9289TIP3   OH249281   2.651   0.608   0.147 -0.0652  0.2600 -0.0104
 9289TIP3    H149282   2.667   0.531   0.093 -1.3567  0.3313 -0.5334
 9289TIP3    H249283   2.737   0.645   0.164  0.4968 -0.8374 -0.4457
 9290TIP3   OH249284   6.336   5.024  11.446 -0.1782  0.5779 -0.0424
 9290TIP3    H149285   6.271   5.028  11.376 -0.6170 -1.1740  0.2377
 9290TIP3    H249286   6.285   5.036  11.526 -0.0505  0.0363  0.1226
 9291TIP3   OH249287   3.670   5.606  11.135 -0.4103  0.0658 -0.0130
 9291TIP3    H149288   3.692   5.517  11.110  1.8444  0.8597 -0.9395
 9291TIP3    H249289   3.706   5.661  11.065  0.6845  1.8983  1.9244
 9292TIP3   OH249290   4.074   5.055  12.048 -0.5938  0.0856  0.1261
 9292TIP3    H149291   4.106   5.144  12.066 -1.2696  0.4968 -0.7063
 9292TIP3    H249292   4.107   5.003  12.122  1.1200  0.7056 -0.1870
 9293TIP3   OH249293   5.012   6.589  16.450 -0.6397  0.7086  0.9379
 9293TIP3    H149294   5.013   6.669  16.501 -5.9817  0.7774  1.2529
 9293TIP3    H249295   5.009   6.518  16.515  2.4423  0.2337  0.6470
 9294TIP3   OH249296   4.358   5.118   2.460 -0.0647 -0.1801  0.2510
 9294TIP3    H149297   4.446   5.127   2.422 -0.0963 -1.0067 -0.0413
 9294TIP3    H249298   4.371   5.134   2.554  0.5166 -0.9482  0.3073
 9295TIP3   OH249299   1.206   6.661  16.332 -0.0751  0.2274  0.1515
 9295TIP3    H149300   1.140   6.600  16.365  0.3153  0.6289  1.6935
 9295TIP3    H249301   1.279   6.654  16.393 -0.0741  2.3322  0.4167
 9296TIP3   OH249302   5.354   2.309   4.423 -0.4951  0.0547 -0.3937
 9296TIP3    H149303   5.390   2.242   4.364 -1.0784  0.6755 -1.4580
 9296TIP3    H249304   5.305   2.368   4.366  0.5557  1.7847  0.4325
 9297TIP3   OH249305   3.153   3.978   2.548  0.8200  0.2398 -0.2370
 9297TIP3    H149306   3.090   3.950   2.482  1.3192 -1.5438 -0.0005
 9297TIP3    H249307   3.136   4.071   2.560 -0.4854  0.1920 -1.5561
 9298TIP3   OH249308   4.291   1.604   3.029 -0.6356  0.0897 -0.0864
 9298TIP3    H149309   4.252   1.619   2.942  0.7841  0.6123 -0.6392
 9298TIP3    H249310   4.258   1.676   3.083 -0.9808  0.1456 -0.3716
 9299TIP3   OH249311   5.418   2.533  15.655 -0.0536 -0.1263  0.1870
 9299TIP3    H149312   5.410   2.452  15.606 -0.6147  0.1295 -0.1463
 9299TIP3    H249313   5.513   2.547  15.664  0.0423 -0.9239  0.4362
 9300TIP3   OH249314   0.776   1.507   1.870  0.5400  1.0500  0.3301
 9300TIP3    H149315   0.839   1.572   1.842  0.5217  0.5650 -0.8479
 9300TIP3    H249316   0.697   1.558   1.891  0.9202  1.5228  0.6331
 9301TIP3   OH249317   0.605   4.525  14.736 -0.0943  0.1466 -0.2920
 9301TIP3    H149318   0.580   4.500  14.825  1.1613  2.9353  0.9105
 9301TIP3    H249319   0.682   4.471  14.717  1.1511  1.2614  1.3445
 9302TIP3   OH249320   4.594   5.041  15.559  0.2341  0.1878  0.2657
 9302TIP3    H149321   4.627   4.990  15.485 -0.0596  0.4837 -0.0710
 9302TIP3    H249322   4.668   5.046  15.619  0.5978  0.2750 -0.1833
 9303TIP3   OH249323   4.576   1.130   4.953  0.1363 -0.9642  0.0691
 9303TIP3    H149324   4.498   1.178   4.979  0.8964  0.0215  0.5969
 9303TIP3    H249325   4.575   1.132   4.857 -0.3285 -0.6941  0.0797
 9304TIP3   OH249326   3.930   3.193   3.696 -0.0378  0.2260  0.2815
 9304TIP3    H149327   3.866   3.167   3.630 -1.3092  0.4357  1.4029
 9304TIP3    H249328   3.908   3.285   3.715  0.1712  0.0974  1.1452
 9305TIP3   OH249329   3.630   0.717   1.072 -0.0918  0.2218  0.3139
 9305TIP3    H149330   3.663   0.807   1.075  1.3720 -0.3015  0.2507
 9305TIP3    H249331   3.642   0.684   1.161 -0.1041 -0.1036  0.1964
 9306TIP3   OH249332   2.253   6.356  16.946 -0.5954 -0.1434 -0.6665
 9306TIP3    H149333   2.267   6.437  16.897  1.0533  0.1601  0.2828
 9306TIP3    H249334   2.210   6.298  16.883 -1.9254  1.5100 -1.2991
 9307TIP3   OH249335   1.270   5.773   1.293  0.0655  0.2529 -0.1622
 9307TIP3    H149336   1.208   5.845   1.300  0.9163  0.8907  0.8473
 9307TIP3    H249337   1.255   5.737   1.205 -1.3518  0.7346 -0.1347
 9308TIP3   OH249338   0.383   5.570  16.164  0.5016  0.8092 -0.1868
 9308TIP3    H149339   0.367   5.629  16.090  0.1403  3.6905  2.0892
 9308TIP3    H249340   0.297   5.534  16.185  0.2465  1.5606  0.0806
 9309TIP3   OH249341   1.646   2.967  15.142 -0.2481  0.5793  1.0951
 9309TIP3    H149342   1.711   3.038  15.142  1.0594 -0.5893  1.1961
 9309TIP3    H249343   1.562   3.012  15.142  0.5502  2.1315  0.0525
 9310TIP3   OH249344   4.414   1.075  16.518 -0.2414 -0.2942 -0.0461
 9310TIP3    H149345   4.334   1.024  16.509  0.1902 -1.0863  0.5761
 9310TIP3    H249346   4.438   1.097  16.428 -1.0562 -0.1922 -0.2449
 9311TIP3   OH249347   0.018   0.243  13.609  0.0320  0.0193 -0.3609
 9311TIP3    H149348   0.070   0.316  13.640  1.3440 -1.6777  1.5446
 9311TIP3    H249349  -0.063   0.283  13.576  1.7914  2.5318 -1.8100
 9312TIP3   OH249350   0.716   0.898  14.089  0.4649 -0.4476 -0.0441
 9312TIP3    H149351   0.723   0.926  13.998  1.9516  1.5578  0.6448
 9312TIP3    H249352   0.778   0.955  14.136 -0.6805 -1.0793  2.2862
 9313TIP3   OH249353   0.332   0.607   3.696  0.5002 -0.0942 -0.1556
 9313TIP3    H149354   0.282   0.659   3.758 -1.7365  1.2078 -2.9312
 9313TIP3    H249355   0.405   0.663   3.671  1.0946 -0.4079  0.8424
 9314TIP3   OH249356   0.158   3.442   3.594 -0.5131 -0.0100  0.6225
 9314TIP3    H149357   0.201   3.491   3.665 -2.0489 -1.8790  2.9019
 9314TIP3    H249358   0.218   3.370   3.576 -0.3740  0.1688  0.3607
 9315TIP3   OH249359   1.083   0.221  13.728  0.1157 -0.1059  0.3148
 9315TIP3    H149360   1.136   0.150  13.765 -2.9677 -1.1114  3.0118
 9315TIP3    H249361   0.994   0.185  13.724 -0.9878  2.6176 -1.1225
 9316TIP3   OH249362   0.275   3.878  14.308  0.5812  0.0795  0.0941
 9316TIP3    H149363   0.280   3.927  14.390  0.5697 -2.2273  1.5445
 9316TIP3    H249364   0.366   3.862  14.283  0.6000 -0.7652  0.6625
 9317TIP3   OH249365   4.582   5.168  12.298 -0.2697 -0.2393 -0.3040
 9317TIP3    H149366   4.498   5.189  12.258 -0.6505 -0.6047  0.2801
 9317TIP3    H249367   4.628   5.116  12.232  0.7510  2.5113 -1.8211
 9318TIP3   OH249368   1.361   2.603   4.725 -0.0477  0.5836 -0.5872
 9318TIP3    H149369   1.353   2.697   4.742 -1.6948  0.5052 -0.7848
 9318TIP3    H249370   1.398   2.567   4.805 -1.2446  1.1517  0.2433
 9319TIP3   OH249371   3.997   3.185   0.640 -0.1960  0.1152 -0.2889
 9319TIP3    H149372   3.990   3.280   0.627  0.0231  0.0411 -0.9600
 9319TIP3    H249373   4.090   3.166   0.627 -0.2001 -0.1559  0.0879
 9320TIP3   OH249374   1.388   5.543   3.751  0.4967 -0.0707  0.0891
 9320TIP3    H149375   1.312   5.490   3.775  1.0229 -1.6346 -1.5555
 9320TIP3    H249376   1.456   5.518   3.815  0.0536  0.3207  0.7164
 9321TIP3   OH249377   0.657   1.482  12.851  0.1111 -0.1360  0.5023
 9321TIP3    H149378   0.737   1.430  12.861  0.0199 -0.8349 -1.9519
 9321TIP3    H249379   0.596   1.422  12.808 -1.0285  1.0491  0.4647
 9322TIP3   OH249380   4.434   0.447  12.813  0.4807  0.1814 -0.2120
 9322TIP3    H149381   4.493   0.479  12.744  2.3442 -0.6123  0.9781
 9322TIP3    H249382   4.490   0.396  12.871 -1.7192 -2.0939  0.0048
 9323TIP3   OH249383   6.045   1.339   4.793 -0.6703  0.1626  0.1306
 9323TIP3    H149384   6.019   1.247   4.790 -0.1148  0.0140 -0.3883
 9323TIP3    H249385   6.140   1.337   4.779 -0.7706  0.8703 -0.6938
 9324TIP3   OH249386   0.743   1.780  12.111 -0.1488  0.6466 -0.3368
 9324TIP3    H149387   0.700   1.696  12.095  0.0986  0.4967 -0.2278
 9324TIP3    H249388   0.825   1.774  12.061 -0.9781  1.5575 -1.8428
 9325TIP3   OH249389   1.882   5.982   1.728  0.1767  0.1715 -0.0473
 9325TIP3    H149390   1.838   5.942   1.653 -1.2641 -0.2462  0.9859
 9325TIP3    H249391   1.842   5.939   1.804  1.5004  0.7004  0.9611
 9326TIP3   OH249392   3.846   2.478  15.630  0.0929  0.4864 -0.3667
 9326TIP3    H149393   3.896   2.405  15.667  0.1655  0.6891 -0.0635
 9326TIP3    H249394   3.897   2.505  15.554 -0.1477 -0.0436 -0.7188
 9327TIP3   OH249395   3.843   4.479   5.317  0.0417 -0.4906  0.2425
 9327TIP3    H149396   3.777   4.503   5.253  0.7950  1.1781  0.0526
 9327TIP3    H249397   3.924   4.471   5.267  0.5476  0.3809  0.8984
 9328TIP3   OH249398   6.052   5.890  10.489  0.6950  0.2057 -0.5148
 9328TIP3    H149399   6.060   5.804  10.531  0.4850  0.2827 -0.3196
 9328TIP3    H249400   6.140   5.927  10.494  0.5518  0.4260  0.3103
 9329TIP3   OH249401   4.619   5.078   0.641 -0.1857  0.6246 -0.4904
 9329TIP3    H149402   4.645   5.167   0.618  1.0137  0.0693 -1.3803
 9329TIP3    H249403   4.694   5.044   0.691 -1.6879  0.9497  2.0715
 9330TIP3   OH249404   5.580   5.689   4.229 -0.7625 -0.3511 -0.1195
 9330TIP3    H149405   5.567   5.703   4.135  0.4973 -0.5290 -0.3338
 9330TIP3    H249406   5.523   5.616   4.251  0.0437 -1.2851 -1.0686
 9331TIP3   OH249407   3.062   5.055   3.648  0.1126 -0.0868 -0.1301
 9331TIP3    H149408   3.048   4.991   3.717 -0.2952  1.1530  0.9557
 9331TIP3    H249409   3.131   5.016   3.593  0.1158 -1.2853  0.7058
 9332TIP3   OH249410   0.609   1.054   1.992 -0.1685  0.0443  0.2015
 9332TIP3    H149411   0.539   1.015   2.044  0.1570  0.9581  1.3398
 9332TIP3    H249412   0.587   1.030   1.902 -1.7933  0.0835  0.5601
 9333TIP3   OH249413   5.038   3.573  16.521 -0.0853  0.2038 -0.0593
 9333TIP3    H149414   4.988   3.543  16.445 -0.2130 -1.2264  0.5668
 9333TIP3    H249415   5.005   3.521  16.593  1.2383  0.3298  0.6581
 9334TIP3   OH249416   3.016   6.017   0.774  0.3326  0.1041  0.3708
 9334TIP3    H149417   2.976   5.939   0.811 -2.1667  0.1293 -2.1038
 9334TIP3    H249418   2.950   6.086   0.785  1.6561  1.3746  0.6185
 9335TIP3   OH249419   0.354   5.703  14.245  0.5075 -0.1728  0.2075
 9335TIP3    H149420   0.397   5.623  14.276  0.9430 -0.1158 -0.2443
 9335TIP3    H249421   0.320   5.680  14.159 -0.2095 -0.1591  0.4829
 9336TIP3   OH249422   2.780   3.676  14.861  0.1954  0.1273  0.1752
 9336TIP3    H149423   2.749   3.602  14.808  2.0453 -1.1195  0.7672
 9336TIP3    H249424   2.705   3.702  14.913 -1.5614  1.0830 -2.6857
 9337TIP3   OH249425   5.877   1.949  11.198  0.1610  0.7304  0.2582
 9337TIP3    H149426   5.832   2.018  11.149 -0.1366  0.6585  0.4296
 9337TIP3    H249427   5.864   1.973  11.290  1.2186  1.1890  0.3002
 9338TIP3   OH249428   6.274   4.988   1.157 -0.5586  0.6152  0.2076
 9338TIP3    H149429   6.302   5.033   1.237 -0.5889 -0.2398  0.6918
 9338TIP3    H249430   6.344   5.007   1.094 -0.1255  0.5902  0.6799
 9339TIP3   OH249431   3.004   0.753  14.528  0.1407  0.2624  0.1770
 9339TIP3    H149432   3.043   0.676  14.570  0.8858  1.0727  1.0000
 9339TIP3    H249433   2.972   0.806  14.600 -0.6130  0.6125 -0.4028
 9340TIP3   OH249434   6.280   1.913  15.640 -0.0990 -0.2759  0.1160
 9340TIP3    H149435   6.214   1.865  15.689  0.0400 -1.4390 -0.8243
 9340TIP3    H249436   6.361   1.901  15.689 -0.4027  0.3876  0.7748
 9341TIP3   OH249437   5.401   2.056   4.698 -0.2127  0.1455 -0.1427
 9341TIP3    H149438   5.369   1.967   4.679  0.9554 -0.0158 -1.5247
 9341TIP3    H249439   5.496   2.050   4.684 -0.0506  1.4633  0.3606
 9342TIP3   OH249440   2.285   1.178   5.445  0.3203  0.1744  0.4245
 9342TIP3    H149441   2.213   1.116   5.431 -0.1539 -0.0953  3.6071
 9342TIP3    H249442   2.364   1.124   5.446  0.5423  0.3673 -2.2249
 9343TIP3   OH249443   2.705   2.334   1.495 -0.2972 -0.1763 -0.0937
 9343TIP3    H149444   2.770   2.338   1.425 -1.2809  0.7879 -0.9918
 9343TIP3    H249445   2.733   2.399   1.559 -0.2316  0.0561 -0.3574
 9344TIP3   OH249446   4.529   0.242  15.111 -0.1488  0.3264 -0.3590
 9344TIP3    H149447   4.445   0.270  15.148  0.4437 -0.0389  1.3077
 9344TIP3    H249448   4.591   0.311  15.135  0.5884 -0.7100  0.7841
 9345TIP3   OH249449   1.445   1.047   6.140 -0.1724  0.0632 -0.5246
 9345TIP3    H149450   1.366   1.090   6.107 -0.0574  0.3311 -0.4446
 9345TIP3    H249451   1.425   1.029   6.233 -0.1698  0.0584 -0.5244
 9346TIP3   OH249452   1.399   3.957  14.407  0.0396 -0.0049 -0.4925
 9346TIP3    H149453   1.420   3.865  14.424 -2.3539 -0.8264 -1.8460
 9346TIP3    H249454   1.308   3.957  14.377  0.1847  2.7354 -1.1217
 9347TIP3   OH249455   4.115   2.652  14.564 -0.0150  0.0747 -0.6990
 9347TIP3    H149456   4.115   2.557  14.581  0.1477  0.3440  0.9060
 9347TIP3    H249457   4.184   2.664  14.498  2.0591 -0.5879  1.2591
 9348TIP3   OH249458   3.647   5.097  15.469  0.2924  1.1185 -0.3187
 9348TIP3    H149459   3.723   5.055  15.510  1.4480  1.9660 -1.5600
 9348TIP3    H249460   3.612   5.030  15.409  0.2778  0.8536 -0.0141
 9349TIP3   OH249461   4.452   2.873   3.737 -0.3137  0.2503  0.5167
 9349TIP3    H149462   4.409   2.958   3.725  1.0740  0.8179 -0.5110
 9349TIP3    H249463   4.429   2.824   3.658  1.3201  0.7396 -0.2814
 9350TIP3   OH249464   3.144   6.449  12.994 -0.6447 -0.1557 -0.0779
 9350TIP3    H149465   3.088   6.384  13.037  0.5764  0.2924  2.2992
 9350TIP3    H249466   3.205   6.397  12.942 -0.0476 -0.9266  1.3494
 9351TIP3   OH249467   1.868   6.039  14.525 -0.8511  0.3048  0.2172
 9351TIP3    H149468   1.869   6.048  14.430 -0.6853  0.7421  0.2603
 9351TIP3    H249469   1.849   5.946  14.540 -0.6741  0.1941 -0.2432
 9352TIP3   OH249470   3.273   1.942   3.749 -0.2362 -0.9754  0.1791
 9352TIP3    H149471   3.338   1.970   3.685 -0.2418  0.7301  0.9137
 9352TIP3    H249472   3.208   2.011   3.749 -0.2682 -0.9904  2.0019
 9353TIP3   OH249473   3.125   3.160  14.767 -0.1225  0.0979 -0.1384
 9353TIP3    H149474   3.066   3.137  14.695  1.7562  0.0821 -1.6937
 9353TIP3    H249475   3.111   3.090  14.831 -0.5739 -0.8087 -1.2026
 9354TIP3   OH249476   6.403   4.740   5.427  0.0438  1.0952 -0.5331
 9354TIP3    H149477   6.354   4.744   5.509 -0.7848  2.8120 -1.0918
 9354TIP3    H249478   6.469   4.672   5.443  0.8747  2.4290  2.0945
 9355TIP3   OH249479   0.037   2.174  10.968  0.4567 -0.1147 -0.0883
 9355TIP3    H149480  -0.003   2.235  10.906 -0.3372  0.7895  1.2835
 9355TIP3    H249481   0.120   2.214  10.991  0.4730 -0.1409 -0.1016
 9356TIP3   OH249482   3.663   4.739   3.561  0.5715  0.0994 -0.2454
 9356TIP3    H149483   3.594   4.800   3.587 -1.8585 -2.0833 -1.3267
 9356TIP3    H249484   3.667   4.676   3.633 -0.9684 -1.6796 -1.6507
 9357TIP3   OH249485   0.047   2.802   3.979  0.2757  0.1194 -0.1839
 9357TIP3    H149486   0.023   2.894   3.987  1.9809  0.6093 -0.4996
 9357TIP3    H249487   0.023   2.778   3.890  0.0699  0.3365 -0.1843
 9358TIP3   OH249488   3.324   6.661   3.221  0.2771 -0.2773  0.2403
 9358TIP3    H149489   3.368   6.711   3.153  2.3604 -1.4035  0.7202
 9358TIP3    H249490   3.318   6.721   3.296 -1.4508  0.7508 -0.6987
 9359TIP3   OH249491   3.600   1.478   2.398 -0.6566  0.2235  0.2791
 9359TIP3    H149492   3.666   1.414   2.371 -2.3084 -0.1672 -3.0838
 9359TIP3    H249493   3.625   1.559   2.353 -0.1833  1.2162  2.2660
 9360TIP3   OH249494   0.959   3.071  13.078  0.2430  0.1724  0.6336
 9360TIP3    H149495   1.042   3.119  13.079 -0.4439  1.3674 -0.2717
 9360TIP3    H249496   0.975   2.998  13.017  0.3354  0.9119 -0.2312
 9361TIP3   OH249497   1.104   2.927   2.176 -0.5564  0.1253  0.2386
 9361TIP3    H149498   1.186   2.943   2.223 -0.2115  0.9919 -0.6455
 9361TIP3    H249499   1.036   2.955   2.237 -0.1856 -0.1477  0.7933
 9362TIP3   OH249500   2.286   4.543  15.783 -0.3127  0.1331  0.1413
 9362TIP3    H149501   2.379   4.540  15.763 -0.0639  0.0918  1.2624
 9362TIP3    H249502   2.243   4.501  15.708  0.4510  1.5155 -1.0844
 9363TIP3   OH249503   4.836   0.253  15.439 -0.1515  0.3824  0.4084
 9363TIP3    H149504   4.746   0.248  15.470 -1.5686  0.6734 -3.3105
 9363TIP3    H249505   4.864   0.342  15.461 -0.6602  0.1739  1.8905
 9364TIP3   OH249506   6.241   2.657   6.560 -0.0470 -0.5619 -0.2436
 9364TIP3    H149507   6.170   2.636   6.621  1.0213 -1.2445  0.7694
 9364TIP3    H249508   6.280   2.573   6.538 -1.0953 -0.4622 -2.7519
 9365TIP3   OH249509   4.566   1.279   1.241  0.0753 -0.4040 -1.2017
 9365TIP3    H149510   4.621   1.247   1.313  0.0782 -0.2970 -1.1556
 9365TIP3    H249511   4.607   1.362   1.215 -0.6481  0.1849 -0.4842
 9366TIP3   OH249512   1.725   4.460  15.351 -0.0118 -0.7297  0.1176
 9366TIP3    H149513   1.630   4.445  15.350 -0.1818  0.3470 -0.4370
 9366TIP3    H249514   1.755   4.427  15.267 -0.2589  1.1051 -0.7264
 9367TIP3   OH249515   3.325   1.956  15.544  0.0769 -0.6152 -0.1415
 9367TIP3    H149516   3.345   2.031  15.599 -1.6629  0.3694 -0.7848
 9367TIP3    H249517   3.284   1.892  15.603  0.2042 -0.4561  0.1180
 9368TIP3   OH249518   4.458   4.136  16.432  0.1229 -0.6750 -0.7463
 9368TIP3    H149519   4.438   4.178  16.348 -0.1934 -0.4535 -0.5630
 9368TIP3    H249520   4.468   4.043  16.410 -1.1665 -0.8000 -0.8402
 9369TIP3   OH249521   6.573   2.490  13.794  0.8032 -0.1309  0.2285
 9369TIP3    H149522   6.480   2.476  13.779  0.6825  0.4577  0.4337
 9369TIP3    H249523   6.615   2.414  13.755  0.2328 -0.4209  0.1804
 9370TIP3   OH249524   1.088   1.981   1.405 -0.5754  0.3219  0.3686
 9370TIP3    H149525   1.109   1.903   1.457 -1.0416  0.4788  0.7987
 9370TIP3    H249526   0.994   1.992   1.417 -0.9864 -0.5823 -1.8101
 9371TIP3   OH249527   4.995   5.593   0.913  0.4521 -1.1384  0.5533
 9371TIP3    H149528   4.939   5.667   0.936  0.9867 -1.4900  3.0657
 9371TIP3    H249529   4.937   5.533   0.866 -0.4609 -0.0415  0.2475
 9372TIP3   OH249530   3.693   2.890  13.592 -0.1483 -0.0415  0.3150
 9372TIP3    H149531   3.709   2.953  13.522 -0.2677 -0.3096  0.0488
 9372TIP3    H249532   3.678   2.945  13.670  1.0741  0.2316  0.3738
 9373TIP3   OH249533   2.482   2.799   0.612 -0.3737  0.1863  0.0122
 9373TIP3    H149534   2.396   2.840   0.600 -0.3550  0.2586  0.1237
 9373TIP3    H249535   2.508   2.824   0.700 -0.1905  0.2509 -0.0608
 9374TIP3   OH249536   6.506   3.687   2.323 -0.1984 -0.5379 -0.9308
 9374TIP3    H149537   6.488   3.639   2.404 -1.7844 -1.2207 -1.6628
 9374TIP3    H249538   6.555   3.626   2.268  1.5419  0.1890 -0.2030
 9375TIP3   OH249539   0.337   2.644   2.917  0.5153  0.2601 -0.4337
 9375TIP3    H149540   0.330   2.573   2.853 -0.9890 -0.6361  0.7007
 9375TIP3    H249541   0.302   2.721   2.871  1.9364  0.2352 -1.5875
 9376TIP3   OH249542   1.645   2.802   0.672 -0.4823  0.1714  0.1132
 9376TIP3    H149543   1.611   2.716   0.650 -1.2050  0.4713  0.0392
 9376TIP3    H249544   1.663   2.798   0.766  0.1943 -0.2957 -0.0353
 9377TIP3   OH249545   3.664   4.706  15.778 -0.4870  0.2421 -0.1651
 9377TIP3    H149546   3.604   4.780  15.772  0.5437  1.1991  1.2675
 9377TIP3    H249547   3.748   4.744  15.803 -0.3008 -1.5257  2.0909
 9378TIP3   OH249548   5.218   1.083   3.284 -0.2391  0.4501  0.3191
 9378TIP3    H149549   5.159   1.050   3.216 -0.8355 -0.1180  1.1003
 9378TIP3    H249550   5.286   1.130   3.236  0.1991 -1.2509 -0.7661
 9379TIP3   OH249551   6.341   1.061   4.399  0.6112  0.5734  0.1824
 9379TIP3    H149552   6.306   1.150   4.408 -1.1212 -0.1296  0.5276
 9379TIP3    H249553   6.298   1.011   4.468 -1.2141 -1.3819 -2.2877
 9380TIP3   OH249554   0.153   0.461   4.425 -0.6084  0.7995 -0.3341
 9380TIP3    H149555   0.230   0.404   4.424 -1.3320 -0.2262  1.1684
 9380TIP3    H249556   0.137   0.482   4.333 -1.3071 -2.7668 -1.0884
 9381TIP3   OH249557   3.482   6.412   3.187  0.2254 -0.2452 -0.4452
 9381TIP3    H149558   3.526   6.468   3.122 -0.1004 -0.2604 -0.6784
 9381TIP3    H249559   3.396   6.452   3.199  0.1813 -0.4055 -0.2301
 9382TIP3   OH249560   1.521   2.105   2.226  0.2442  0.1530  0.2079
 9382TIP3    H149561   1.609   2.077   2.201  1.5341  2.0456  2.4699
 9382TIP3    H249562   1.496   2.044   2.295 -0.1433 -0.2283 -0.2628
 9383TIP3   OH249563   1.971   3.396   5.419 -0.1134  0.6343 -0.6014
 9383TIP3    H149564   1.919   3.464   5.377  1.0244  2.6043  1.0802
 9383TIP3    H249565   2.061   3.417   5.394  0.3546  0.4727  0.9436
 9384TIP3   OH249566   5.724   3.114  16.084 -0.1188  0.1297  0.3916
 9384TIP3    H149567   5.700   3.192  16.034  0.6089  0.5843  0.7398
 9384TIP3    H249568   5.668   3.117  16.162 -0.3368  0.1232  0.2351
 9385TIP3   OH249569   5.281   3.168   5.083 -0.5232  0.1766 -0.3625
 9385TIP3    H149570   5.263   3.241   5.023  0.6350  1.1647  0.4584
 9385TIP3    H249571   5.367   3.189   5.119 -1.5544 -0.0021  2.2482
 9386TIP3   OH249572   3.421   1.407  11.582 -0.6060  0.0154  0.2220
 9386TIP3    H149573   3.423   1.376  11.673 -0.5590 -0.7220 -0.0286
 9386TIP3    H249574   3.500   1.370  11.542  0.2678  1.7395  0.3337
 9387TIP3   OH249575   0.558   6.385   5.972  0.5591  0.3187 -0.1395
 9387TIP3    H149576   0.545   6.302   5.925  0.5522  1.5129 -2.2996
 9387TIP3    H249577   0.507   6.374   6.053 -1.1179 -1.0250 -1.3214
 9388TIP3   OH249578   4.612   5.443  16.349  0.1090 -0.1306 -0.2929
 9388TIP3    H149579   4.680   5.385  16.314  1.4492  0.7663  0.7737
 9388TIP3    H249580   4.613   5.428  16.443  0.6247  1.7681  0.0324
 9389TIP3   OH249581   5.533   3.904   0.577  0.4178  0.1803  0.0939
 9389TIP3    H149582   5.443   3.914   0.605  0.2208 -1.0989 -0.0736
 9389TIP3    H249583   5.585   3.913   0.657 -0.0669 -2.2438  0.7255
 9390TIP3   OH249584   1.199   3.435   2.253  0.0145  0.4097  0.0999
 9390TIP3    H149585   1.133   3.450   2.186  1.2656  1.7538 -0.8509
 9390TIP3    H249586   1.258   3.369   2.216 -0.3176 -0.1829  0.6147
 9391TIP3   OH249587   6.213   6.608   4.780 -0.3206 -0.2816 -0.5052
 9391TIP3    H149588   6.178   6.523   4.807 -0.3939 -0.2742 -0.5759
 9391TIP3    H249589   6.245   6.592   4.691 -0.6259 -0.1545 -0.6387
 9392TIP3   OH249590   0.713   1.756  14.058 -0.2904 -0.0607 -0.2033
 9392TIP3    H149591   0.696   1.690  14.125  2.0830 -0.0516  0.4502
 9392TIP3    H249592   0.679   1.718  13.977 -1.6062 -0.8112  0.6932
 9393TIP3   OH249593   5.944   6.588   1.975  0.4079 -0.3422  0.2079
 9393TIP3    H149594   5.986   6.671   1.998  0.1103  0.0968 -0.7949
 9393TIP3    H249595   5.874   6.613   1.914 -1.1748 -1.0622  1.6734
 9394TIP3   OH249596   5.846   6.062   2.628 -0.4456  0.2054  0.1538
 9394TIP3    H149597   5.756   6.044   2.603 -0.0002  0.5099 -1.7134
 9394TIP3    H249598   5.881   6.116   2.557  1.1868  0.1536  0.8916
 9395TIP3   OH249599   3.395   6.191  16.231 -0.8289  0.3520  0.0053
 9395TIP3    H149600   3.467   6.201  16.293 -2.0489  0.8044  1.3744
 9395TIP3    H249601   3.416   6.250  16.159  0.8517 -0.5513 -0.2793
 9396TIP3   OH249602   4.207   5.472   1.415 -0.1884 -0.3268  0.4648
 9396TIP3    H149603   4.239   5.414   1.485 -0.1366 -1.7839 -0.7503
 9396TIP3    H249604   4.156   5.539   1.461 -0.6673 -1.6233  1.8595
 9397TIP3   OH249605   6.530   2.184  15.479 -0.3231 -0.5127 -0.4150
 9397TIP3    H149606   6.597   2.144  15.423 -0.6034 -0.4368 -0.8106
 9397TIP3    H249607   6.452   2.188  15.423 -1.6681 -3.8265  1.1560
 9398TIP3   OH249608   6.557   4.850  11.241 -0.4479  0.2379 -0.0074
 9398TIP3    H149609   6.514   4.811  11.317 -0.8546 -0.9962 -0.8350
 9398TIP3    H249610   6.603   4.926  11.275  0.4025 -1.0076  1.6932
 9399TIP3   OH249611   0.365   2.012  12.350 -0.0527 -0.6273  0.5069
 9399TIP3    H149612   0.365   2.106  12.367  0.7215 -0.2182 -1.6265
 9399TIP3    H249613   0.455   1.992  12.324 -0.6106 -1.6177 -0.7188
 9400TIP3   OH249614   2.161   4.040   0.526 -1.1385  0.2780  0.2183
 9400TIP3    H149615   2.188   4.060   0.615  0.4762 -0.7012 -0.0308
 9400TIP3    H249616   2.066   4.055   0.526 -0.8218  2.5740  1.4477
 9401TIP3   OH249617   0.415   4.512   6.041 -0.1986 -0.0130 -0.2343
 9401TIP3    H149618   0.379   4.594   6.007 -0.1817  0.6042  1.1922
 9401TIP3    H249619   0.359   4.492   6.116  1.9481  0.5654  1.5765
 9402TIP3   OH249620   6.022   2.570   2.896 -0.0178  0.2709  0.1837
 9402TIP3    H149621   6.096   2.513   2.874 -0.2486  0.1489 -0.2933
 9402TIP3    H249622   6.020   2.572   2.991 -0.5113 -1.1815  0.2103
 9403TIP3   OH249623   4.036   2.342  13.849 -0.8346 -0.0984 -0.1013
 9403TIP3    H149624   4.063   2.417  13.902 -1.6206  0.6087 -0.6858
 9403TIP3    H249625   3.949   2.320  13.880 -0.7449 -0.5548 -0.1643
 9404TIP3   OH249626   1.803   2.214  12.316 -0.1624 -0.0511  0.9582
 9404TIP3    H149627   1.766   2.179  12.397 -0.4868 -2.1373 -0.0518
 9404TIP3    H249628   1.897   2.198  12.324  0.0732  1.7096  1.8426
 9405TIP3   OH249629   0.844   5.887  11.041  0.4624 -0.1148 -0.4447
 9405TIP3    H149630   0.839   5.855  10.950 -0.0400 -0.6215 -0.2396
 9405TIP3    H249631   0.887   5.815  11.088  1.8175  0.6382 -0.5107
 9406TIP3   OH249632   2.560   5.265  14.249  0.2797  0.9082  0.0335
 9406TIP3    H149633   2.508   5.296  14.324  1.2114  0.8228  0.7229
 9406TIP3    H249634   2.584   5.176  14.273 -0.4823  0.4293 -0.9451
 9407TIP3   OH249635   3.854   0.576  15.962  0.7236  0.3968 -0.4292
 9407TIP3    H149636   3.859   0.488  15.925  0.4770  0.4930 -0.6926
 9407TIP3    H249637   3.795   0.623  15.904 -1.5288 -0.0931  1.3612
 9408TIP3   OH249638   0.808   1.172  13.223 -0.6635 -0.2439 -0.1181
 9408TIP3    H149639   0.818   1.080  13.248  0.8663  0.0456  0.3819
 9408TIP3    H249640   0.742   1.171  13.155 -0.2738 -1.7867 -0.4918
 9409TIP3   OH249641   2.497   1.226  12.037  0.1877 -0.0794  0.3925
 9409TIP3    H149642   2.584   1.191  12.054  0.1505  0.1857  1.1185
 9409TIP3    H249643   2.504   1.267  11.950  0.5442 -0.8406  0.0608
 9410TIP3   OH249644   0.330   1.694  11.599  0.1587  0.0067  0.4943
 9410TIP3    H149645   0.308   1.601  11.591  3.2006 -0.6915 -0.2148
 9410TIP3    H249646   0.333   1.709  11.694 -2.5606 -0.0185  0.6250
 9411TIP3   OH249647   4.160   0.729  10.756  0.0496  0.3696  0.8997
 9411TIP3    H149648   4.165   0.744  10.851  1.3407 -0.1987  0.9347
 9411TIP3    H249649   4.248   0.699  10.732 -0.4735 -0.1874 -0.3585
 9412TIP3   OH249650   2.667   5.713  13.867  0.0842  0.0117 -0.0648
 9412TIP3    H149651   2.599   5.655  13.836 -0.1434 -0.4372  1.2267
 9412TIP3    H249652   2.678   5.690  13.960  2.0072  0.0447 -0.2582
 9413TIP3   OH249653   4.269   3.597  15.685 -0.1681 -0.2504  0.1846
 9413TIP3    H149654   4.321   3.518  15.697  0.5392  0.1606 -0.1213
 9413TIP3    H249655   4.272   3.641  15.770  1.2845  0.5413 -0.2644
 9414TIP3   OH249656   3.002   5.518  11.643 -0.4228  0.1416  0.2384
 9414TIP3    H149657   2.992   5.509  11.738  1.7187  0.8055  0.5463
 9414TIP3    H249658   2.913   5.531  11.611 -1.3161 -1.4298  1.9981
 9415TIP3   OH249659   0.919   6.454   3.953  0.3964 -0.3127 -0.3715
 9415TIP3    H149660   0.833   6.460   3.912  1.2037  1.5409 -1.8783
 9415TIP3    H249661   0.920   6.367   3.994 -2.8092  0.2824  1.1600
 9416TIP3   OH249662   6.208   3.097  15.551  0.0120 -0.0948 -0.6176
 9416TIP3    H149663   6.234   3.014  15.510 -0.3488 -0.9018  0.7464
 9416TIP3    H249664   6.126   3.076  15.596 -1.6341  1.7586 -2.6974
 9417TIP3   OH249665   2.249   6.654   6.616  0.2197  0.0048 -0.0973
 9417TIP3    H149666   2.204   6.693   6.691  0.0841 -0.6433  0.1609
 9417TIP3    H249667   2.302   6.725   6.580  0.1943  0.3484  0.5386
 9418TIP3   OH249668   0.296   1.510   2.105  0.4850  0.1818 -0.5320
 9418TIP3    H149669   0.292   1.425   2.149 -0.8648  0.3247 -0.3575
 9418TIP3    H249670   0.232   1.503   2.034  0.6743  0.9126 -0.7782
 9419TIP3   OH249671   2.616   3.801  15.911  0.4369 -0.2654 -0.3265
 9419TIP3    H149672   2.609   3.887  15.951  0.8237 -0.0404 -0.7409
 9419TIP3    H249673   2.564   3.807  15.831 -0.4940 -0.7728  0.2389
 9420TIP3   OH249674   4.857   3.900   1.180 -0.1307  0.0988  0.0236
 9420TIP3    H149675   4.945   3.935   1.173 -0.8927  1.9978 -0.4804
 9420TIP3    H249676   4.850   3.837   1.109  0.6332  0.3346 -0.2639
 9421TIP3   OH249677   2.927   5.872  15.201 -0.0287  0.3582 -0.3732
 9421TIP3    H149678   2.940   5.794  15.255 -1.8186 -0.9112 -1.6988
 9421TIP3    H249679   3.008   5.922  15.211  0.3682 -0.6931  2.0748
 9422TIP3   OH249680   3.683   5.649  10.761  0.7020  0.5153 -0.1870
 9422TIP3    H149681   3.734   5.689  10.831 -0.5071  1.5080  0.1401
 9422TIP3    H249682   3.592   5.659  10.788  0.3473 -2.5130 -0.0828
 9423TIP3   OH249683   1.385   1.431   1.472  0.0422  0.0093  0.2102
 9423TIP3    H149684   1.387   1.401   1.381  2.6674  1.2693 -0.2056
 9423TIP3    H249685   1.404   1.353   1.524  1.6661 -0.1284 -0.5463
 9424TIP3   OH249686   1.273   5.879  15.026  0.1235 -1.1920 -0.4673
 9424TIP3    H149687   1.189   5.917  15.054  1.3729  0.1010  1.6407
 9424TIP3    H249688   1.317   5.855  15.108  1.3567 -2.9046 -1.5962
 9425TIP3   OH249689   1.328   3.080  15.858 -0.2298  0.2344 -0.1638
 9425TIP3    H149690   1.348   2.995  15.899 -1.4760  0.6141  1.2390
 9425TIP3    H249691   1.263   3.120  15.915 -0.8035  1.4786 -1.6657
 9426TIP3   OH249692   1.882   3.958   5.843 -0.1566  0.3342  0.4193
 9426TIP3    H149693   1.858   4.036   5.894 -1.7151  1.1800 -1.5333
 9426TIP3    H249694   1.975   3.969   5.826 -0.5695  2.3635 -0.7566
 9427TIP3   OH249695   4.691   4.308  11.128 -0.1044 -0.2526  0.1753
 9427TIP3    H149696   4.607   4.354  11.133 -0.8247 -1.5294  0.3158
 9427TIP3    H249697   4.720   4.319  11.038 -1.2877 -1.2290 -0.3468
 9428TIP3   OH249698   5.355   1.357   6.589 -0.3165  0.6363 -0.1297
 9428TIP3    H149699   5.434   1.314   6.620 -0.1094  0.4026 -0.9643
 9428TIP3    H249700   5.322   1.405   6.665  2.0215  2.8393 -0.3987
 9429TIP3   OH249701   0.213   4.279   4.811  0.0081 -0.0921  0.2454
 9429TIP3    H149702   0.220   4.366   4.849 -3.0227 -0.6218  2.2032
 9429TIP3    H249703   0.119   4.259   4.815  0.2952 -2.3492 -2.6765
 9430TIP3   OH249704   0.479   1.926   3.659 -0.0205  0.2249 -0.0526
 9430TIP3    H149705   0.403   1.919   3.716 -0.6953 -0.1514 -0.9768
 9430TIP3    H249706   0.493   1.837   3.626 -1.5889  0.9731 -2.9182
 9431TIP3   OH249707   0.677   3.075   1.727 -0.6004  0.1140 -0.3690
 9431TIP3    H149708   0.671   3.005   1.792 -1.8483  0.7034  0.1608
 9431TIP3    H249709   0.764   3.112   1.740 -0.3799 -0.5631  0.1368
 9432TIP3   OH249710   5.020   1.578   5.589  0.4664 -0.8976  0.0448
 9432TIP3    H149711   5.101   1.630   5.588  0.1244 -0.3521  0.3269
 9432TIP3    H249712   4.968   1.618   5.658 -0.4696 -0.6041 -0.8262
 9433TIP3   OH249713   3.464   1.351  15.633 -0.3105  0.9861 -0.4169
 9433TIP3    H149714   3.522   1.277  15.616 -0.4901  0.7204  0.1498
 9433TIP3    H249715   3.461   1.398  15.549 -1.0161 -0.2099 -1.0600
 9434TIP3   OH249716   3.756   6.351   0.197 -0.1032 -0.1404 -0.1245
 9434TIP3    H149717   3.684   6.358   0.260  0.1844  3.6346 -0.1123
 9434TIP3    H249718   3.834   6.337   0.252 -0.2321  0.2274  0.1531
 9435TIP3   OH249719   2.325   2.873   3.605  0.1300 -0.8636  0.1917
 9435TIP3    H149720   2.241   2.844   3.640  0.4371  0.3050  1.9472
 9435TIP3    H249721   2.322   2.969   3.611  0.9185 -0.7252 -1.3182
 9436TIP3   OH249722   6.283   3.176  12.904 -0.2780  0.5552  0.0789
 9436TIP3    H149723   6.298   3.102  12.845  0.3520  1.3788 -0.7991
 9436TIP3    H249724   6.264   3.135  12.989 -2.0975 -0.6621 -0.8718
 9437TIP3   OH249725   3.770   4.960  14.698 -0.4444  0.2830 -0.3446
 9437TIP3    H149726   3.740   4.918  14.618  1.4561 -0.1284 -0.8547
 9437TIP3    H249727   3.728   5.046  14.697 -0.0980  0.4428 -1.9846
 9438TIP3   OH249728   2.605   1.787   0.291 -0.5963  0.2900  0.0352
 9438TIP3    H149729   2.658   1.831   0.224  1.3923 -1.0574  0.7098
 9438TIP3    H249730   2.563   1.715   0.244 -1.3436  0.9505 -0.3401
 9439TIP3   OH249731   4.436   4.503   3.644  0.1006  0.1521 -0.3310
 9439TIP3    H149732   4.346   4.531   3.661  0.5463  0.5000  1.5322
 9439TIP3    H249733   4.451   4.527   3.552 -1.1757  1.5599 -0.2031
 9440TIP3   OH249734   0.203   4.637  16.106 -0.4223  0.5243 -0.3262
 9440TIP3    H149735   0.157   4.580  16.168  0.5769  1.9798  1.8045
 9440TIP3    H249736   0.176   4.605  16.020 -0.3137 -2.8193  0.8135
 9441TIP3   OH249737   5.474   4.460   3.660 -0.2608 -0.2570 -0.0785
 9441TIP3    H149738   5.452   4.378   3.705 -1.4100  0.3861  0.5334
 9441TIP3    H249739   5.494   4.521   3.730 -1.9402  0.7198 -0.4330
 9442TIP3   OH249740   2.279   4.394  16.410  0.2548  0.4080 -0.9235
 9442TIP3    H149741   2.283   4.366  16.319  0.7126  1.1482 -1.1353
 9442TIP3    H249742   2.357   4.448  16.422  0.2839  0.1819 -0.0494
 9443TIP3   OH249743   3.715   1.963  16.282  0.0199 -0.3394  0.2465
 9443TIP3    H149744   3.717   2.030  16.214 -0.7859 -0.7206 -0.1595
 9443TIP3    H249745   3.680   2.008  16.359 -2.6762 -0.8220 -0.6437
 9444TIP3   OH249746   4.343   2.471   1.552 -0.1767 -0.1112 -1.1388
 9444TIP3    H149747   4.436   2.481   1.532 -0.1337 -0.0354 -0.9103
 9444TIP3    H249748   4.328   2.533   1.624 -0.2919 -0.4929 -0.8366
 9445TIP3   OH249749   5.027   3.827  16.254 -0.7113  0.3130  0.1187
 9445TIP3    H149750   4.996   3.918  16.258  0.4419  0.7312 -0.1526
 9445TIP3    H249751   5.057   3.807  16.343 -1.8881 -0.1394  0.4153
 9446TIP3   OH249752   6.399   1.524  15.378 -0.6982 -0.3442  0.2338
 9446TIP3    H149753   6.304   1.518  15.390 -0.5823 -1.0586  0.8502
 9446TIP3    H249754   6.428   1.433  15.376 -0.2269 -0.1652 -1.7142
 9447TIP3   OH249755   6.753   2.458  15.371 -0.1557 -0.4704 -0.5498
 9447TIP3    H149756   6.767   2.404  15.448  1.4471  0.4400 -0.1887
 9447TIP3    H249757   6.841   2.478  15.339 -0.7926 -0.5887 -2.4437
 9448TIP3   OH249758   5.979   0.358   2.313 -0.6193 -0.3386  0.2420
 9448TIP3    H149759   5.892   0.385   2.341  0.1527  1.4932  0.9265
 9448TIP3    H249760   6.023   0.439   2.288  0.7358 -1.2989 -0.5353
 9449TIP3   OH249761   0.581   1.250   6.684  0.6078  0.0755 -0.3685
 9449TIP3    H149762   0.509   1.222   6.740  1.8104  0.3253  1.3724
 9449TIP3    H249763   0.567   1.343   6.671  1.1712  0.3392  0.8465
 9450TIP3   OH249764   2.128   3.435  10.502  0.1936  0.0098 -0.2689
 9450TIP3    H149765   2.050   3.469  10.459  0.1125  2.8106  1.9228
 9450TIP3    H249766   2.097   3.405  10.588  0.9588 -2.0895 -0.6957
 9451TIP3   OH249767   5.190   5.504   1.057  0.6390  0.5096 -0.2209
 9451TIP3    H149768   5.121   5.533   0.998  1.5184  3.1674 -0.0446
 9451TIP3    H249769   5.184   5.409   1.058 -0.9538  0.5633 -2.6657
 9452TIP3   OH249770   4.204   3.036  14.494 -0.0398  0.4459 -0.4766
 9452TIP3    H149771   4.151   2.990  14.559 -0.4282  0.8825 -0.4819
 9452TIP3    H249772   4.140   3.071  14.432  0.1828  1.8675  0.0881
 9453TIP3   OH249773   3.465   0.051   0.449 -0.4234 -0.3380 -0.1244
 9453TIP3    H149774   3.510   0.091   0.375  0.3348  1.7819  1.3898
 9453TIP3    H249775   3.496  -0.039   0.451 -0.2627 -0.3526 -2.2062
 9454TIP3   OH249776   5.521   4.428   0.615  0.0489  0.1661  0.3664
 9454TIP3    H149777   5.608   4.430   0.575  0.7197  0.0199  1.8086
 9454TIP3    H249778   5.463   4.407   0.542  1.3440 -0.8875 -0.3974
 9455TIP3   OH249779   2.898   6.575   5.307 -0.0153  0.0355  0.1824
 9455TIP3    H149780   2.833   6.511   5.336 -0.2200  0.5624  0.9192
 9455TIP3    H249781   2.941   6.604   5.387  1.2588 -0.4422 -0.3297
 9456TIP3   OH249782   1.460   3.380  14.552 -0.2555  0.2183  0.2980
 9456TIP3    H149783   1.506   3.298  14.572  1.0758  0.8360 -0.1356
 9456TIP3    H249784   1.384   3.379  14.609 -0.9092 -1.8825 -0.5536
 9457TIP3   OH249785   2.561   2.467   0.546 -0.2167  0.3763  0.2822
 9457TIP3    H149786   2.628   2.427   0.491 -2.6784 -0.0217 -2.5321
 9457TIP3    H249787   2.517   2.394   0.589 -1.5654  0.2921 -1.1663
 9458TIP3   OH249788   2.616   0.960   4.890 -0.1612  0.0182 -0.5329
 9458TIP3    H149789   2.642   1.049   4.914 -0.3969  0.3899 -1.6445
 9458TIP3    H249790   2.525   0.969   4.861  0.3337 -0.2961 -2.2300
 9459TIP3   OH249791   4.543   2.752   5.374 -0.0257 -1.2404 -0.5559
 9459TIP3    H149792   4.491   2.821   5.332 -1.6346 -1.7513  0.5370
 9459TIP3    H249793   4.492   2.727   5.451  1.6882 -2.0202  0.3640
 9460TIP3   OH249794   0.991   0.252   4.068 -0.2548 -0.3028  0.0323
 9460TIP3    H149795   0.928   0.262   3.997 -2.1379 -3.3156  1.1889
 9460TIP3    H249796   1.052   0.186   4.037 -0.9177 -1.4240  1.0609
 9461TIP3   OH249797   1.735   4.415  12.621 -0.5560 -0.2636  0.4542
 9461TIP3    H149798   1.741   4.510  12.632  0.2709 -0.2677  0.0439
 9461TIP3    H249799   1.663   4.404  12.558 -0.5178  0.0987  0.3440
 9462TIP3   OH249800   1.308   0.645  15.759  0.0643  0.0954 -0.1369
 9462TIP3    H149801   1.233   0.672  15.706 -0.0265  1.2646  0.5696
 9462TIP3    H249802   1.368   0.605  15.696 -0.6666  0.1631 -0.8912
 9463TIP3   OH249803   2.025   2.201  15.183  0.4773 -0.0422 -0.2041
 9463TIP3    H149804   1.993   2.119  15.222  0.7507  0.1037  0.3264
 9463TIP3    H249805   2.092   2.232  15.244  0.7064  0.3364 -0.6477
 9464TIP3   OH249806   3.018   2.145   5.336  0.1829 -0.1523 -0.4222
 9464TIP3    H149807   2.962   2.213   5.299 -1.0516 -0.9613 -0.0577
 9464TIP3    H249808   3.002   2.149   5.430  0.6396 -0.4786 -0.3276
 9465TIP3   OH249809   1.272   1.179  12.610  0.2720 -0.4295  0.3826
 9465TIP3    H149810   1.240   1.265  12.583 -0.9753 -0.2839  2.2170
 9465TIP3    H249811   1.354   1.198  12.657  0.5182 -0.3365 -0.0835
 9466TIP3   OH249812   6.520   3.799   4.659 -0.7351  0.3999  0.6656
 9466TIP3    H149813   6.442   3.843   4.692 -1.5155  0.2914 -0.9465
 9466TIP3    H249814   6.486   3.738   4.593  0.7143  0.4905 -0.1916
 9467TIP3   OH249815   2.058   5.267   4.408  0.1177 -0.1705 -0.4835
 9467TIP3    H149816   2.032   5.317   4.485  1.8877  1.4201 -0.9009
 9467TIP3    H249817   2.132   5.214   4.437 -0.7278 -1.3468 -0.4681
 9468TIP3   OH249818   5.850   3.132  11.232  0.1305  0.1561  0.0029
 9468TIP3    H149819   5.789   3.151  11.160 -0.8209  0.2461  0.8310
 9468TIP3    H249820   5.797   3.139  11.311  1.4292  1.1811  0.8070
 9469TIP3   OH249821   0.959   2.838   4.093 -0.2345 -0.4646 -0.2521
 9469TIP3    H149822   0.997   2.794   4.168  0.6382  0.9150  0.1314
 9469TIP3    H249823   1.033   2.882   4.050 -1.2782  1.8131  0.2001
 9470TIP3   OH249824   6.383   0.758   4.449  0.8705 -0.2521 -0.2673
 9470TIP3    H149825   6.449   0.779   4.515  0.2620 -1.9483  0.8740
 9470TIP3    H249826   6.430   0.767   4.366  2.0806  0.2441  0.4544
 9471TIP3   OH249827   1.023   0.514   2.273 -0.2842 -0.1826 -0.1801
 9471TIP3    H149828   1.054   0.520   2.182  2.7588 -0.3796  0.8122
 9471TIP3    H249829   0.996   0.603   2.295 -1.7994 -0.2843 -1.5015
 9472TIP3   OH249830   0.499   1.187  12.341 -0.6307  0.0347 -0.1262
 9472TIP3    H149831   0.418   1.138  12.328 -0.6157  0.1970 -0.8509
 9472TIP3    H249832   0.515   1.230  12.257  1.2458 -1.5389 -0.6159
 9473TIP3   OH249833   0.599   6.689  12.121 -0.1081  0.2060  0.2098
 9473TIP3    H149834   0.593   6.659  12.211 -0.6981 -1.2835 -0.3193
 9473TIP3    H249835   0.580   6.612  12.068 -1.0987  1.3610 -1.1744
 9474TIP3   OH249836   1.787   2.083  10.801  0.3888  0.4062  0.6230
 9474TIP3    H149837   1.758   2.160  10.850  0.7683  1.3051 -0.5182
 9474TIP3    H249838   1.847   2.038  10.860 -0.2130  0.7264  1.4879
 9475TIP3   OH249839   2.781   6.733  15.048  0.1658  0.5712  0.1866
 9475TIP3    H149840   2.737   6.648  15.048 -1.5085  1.4049  2.2476
 9475TIP3    H249841   2.818   6.740  14.960  0.3322 -2.2736 -0.0330
 9476TIP3   OH249842   5.703   1.011   6.251 -0.3420  0.2367  0.6730
 9476TIP3    H149843   5.752   1.050   6.178  0.7933 -2.0318  0.1798
 9476TIP3    H249844   5.709   1.076   6.321  2.1084  0.6442  0.1193
 9477TIP3   OH249845   6.488   6.082  12.881 -0.3488 -0.2217 -0.1724
 9477TIP3    H149846   6.553   6.013  12.869 -0.5372  0.1248 -3.3721
 9477TIP3    H249847   6.439   6.054  12.959 -1.3881 -4.4835 -2.2040
 9478TIP3   OH249848   1.555   2.555   3.974  0.5192 -0.3228  0.6005
 9478TIP3    H149849   1.521   2.601   4.050  1.2117  2.3249 -0.6068
 9478TIP3    H249850   1.478   2.530   3.924  0.1383 -0.0127  1.0345
 9479TIP3   OH249851   4.524   1.412  13.001  0.3247 -0.1234 -0.4760
 9479TIP3    H149852   4.485   1.481  12.948 -0.3319 -1.7148 -2.1034
 9479TIP3    H249853   4.479   1.332  12.974  0.2213 -1.0329  2.2435
 9480TIP3   OH249854   2.001   3.293   1.063  0.0267  0.6141  0.4773
 9480TIP3    H149855   2.058   3.221   1.093  0.3212  0.9697  0.7674
 9480TIP3    H249856   1.956   3.322   1.141 -0.4599  0.4232  0.2686
 9481TIP3   OH249857   1.342   4.978   2.755  0.0238 -0.3988 -0.4808
 9481TIP3    H149858   1.321   4.919   2.683  1.3740 -0.5853 -0.7305
 9481TIP3    H249859   1.352   5.064   2.714 -0.2209 -0.3103 -0.3607
 9482TIP3   OH249860   2.610   3.584  11.494 -0.3935  0.2477  0.0594
 9482TIP3    H149861   2.611   3.676  11.521  0.3524  0.1446  0.3818
 9482TIP3    H249862   2.693   3.549  11.525  0.2321 -0.0303 -1.8651
 9483TIP3   OH249863   6.014   0.366  15.472 -0.0445  0.3069  0.2575
 9483TIP3    H149864   5.924   0.357  15.440 -0.0439 -0.1357  0.3654
 9483TIP3    H249865   6.066   0.379  15.393 -0.2210  0.7117  0.2071
 9484TIP3   OH249866   5.430   1.923  11.044  0.7152 -0.2977  0.2962
 9484TIP3    H149867   5.348   1.966  11.021  0.9055  0.0506  0.2739
 9484TIP3    H249868   5.418   1.832  11.017  0.9121  0.0844 -1.1325
 9485TIP3   OH249869   0.165   1.596   1.386 -0.6459 -0.6716  0.1165
 9485TIP3    H149870   0.129   1.587   1.474 -2.0919  0.0152 -0.3837
 9485TIP3    H249871   0.099   1.646   1.338  2.0546  2.7434 -0.2001
 9486TIP3   OH249872   3.532   4.874   5.807  0.2156 -0.2040 -0.2033
 9486TIP3    H149873   3.581   4.826   5.740  1.1523  0.0788  0.2753
 9486TIP3    H249874   3.567   4.842   5.890  0.8240  1.2562  0.1232
 9487TIP3   OH249875   5.167   6.659  17.097  0.5912 -0.1699  0.4478
 9487TIP3    H149876   5.074   6.685  17.100  0.0896 -1.8685  0.0207
 9487TIP3    H249877   5.184   6.622  17.184  0.7632 -0.2040  0.3984
 9488TIP3   OH249878   3.208   2.535  13.563  0.3562 -0.4479 -0.3703
 9488TIP3    H149879   3.196   2.628  13.581 -0.3252 -0.7029  0.4991
 9488TIP3    H249880   3.149   2.518  13.490  0.4404 -0.2182 -0.4964
 9489TIP3   OH249881   6.206   6.749   5.091 -0.3874  0.0389 -0.6874
 9489TIP3    H149882   6.191   6.694   5.014 -1.2076  1.1602 -1.3588
 9489TIP3    H249883   6.239   6.689   5.158 -0.0125 -1.0231 -1.7975
 9490TIP3   OH249884   0.225   6.714   0.469 -0.2303  0.3342  0.5422
 9490TIP3    H149885   0.306   6.730   0.516  1.2442 -0.8347 -1.4855
 9490TIP3    H249886   0.214   6.791   0.413 -0.5085  0.4972  0.8251
 9491TIP3   OH249887   4.446   2.179   5.177 -0.5189 -0.5394  0.0683
 9491TIP3    H149888   4.512   2.110   5.188 -1.0530 -1.2821 -1.2528
 9491TIP3    H249889   4.487   2.258   5.212  2.2147 -0.3285 -3.4183
 9492TIP3   OH249890   5.938   1.134   3.141 -0.2290 -0.0313  0.0782
 9492TIP3    H149891   5.894   1.156   3.059 -1.6588 -1.0089  0.5519
 9492TIP3    H249892   6.011   1.078   3.115 -0.9731 -0.7470 -0.4924
 9493TIP3   OH249893   5.357   4.434  13.030 -0.1055 -0.1716 -0.4064
 9493TIP3    H149894   5.320   4.351  13.002 -1.5313  1.0527 -2.2720
 9493TIP3    H249895   5.305   4.460  13.106 -1.2085  0.1398 -1.2613
 9494TIP3   OH249896   1.911   2.442  13.199 -0.1424 -0.3309 -0.0587
 9494TIP3    H149897   1.927   2.458  13.291 -3.0892  3.9482 -0.1271
 9494TIP3    H249898   1.838   2.379  13.198 -0.1615 -0.3185  0.5480
 9495TIP3   OH249899   4.957   4.543   4.213 -0.1551  0.3163  0.4165
 9495TIP3    H149900   4.992   4.469   4.262 -0.2895 -0.8740 -1.2386
 9495TIP3    H249901   4.862   4.536   4.222 -0.3295 -1.5191 -2.2085
 9496TIP3   OH249902   0.740   3.114  15.549 -0.3286 -0.9835  0.4094
 9496TIP3    H149903   0.731   3.089  15.457 -0.9895 -1.9776  0.7335
 9496TIP3    H249904   0.830   3.147  15.556  0.2666 -2.4027 -0.2436
 9497TIP3   OH249905   6.704   2.451  12.652  0.3657  0.1502 -0.1179
 9497TIP3    H149906   6.696   2.517  12.721 -0.4057 -0.7494  0.6771
 9497TIP3    H249907   6.616   2.413  12.645  1.4065 -2.6979  1.4090
 9498TIP3   OH249908   3.456   4.233   0.476 -0.0540  0.6317  0.6373
 9498TIP3    H149909   3.436   4.184   0.397  0.3055 -1.0435  1.5526
 9498TIP3    H249910   3.418   4.181   0.547 -1.0730  2.4953  1.5221
 9499TIP3   OH249911   2.379   0.559  13.448 -0.2109 -0.1989  0.5094
 9499TIP3    H149912   2.394   0.652  13.434 -2.2258 -0.0933 -1.2939
 9499TIP3    H249913   2.291   0.555  13.487 -0.3783 -1.3518  0.0367
 9500TIP3   OH249914   5.205   2.739  15.369 -0.4824 -0.2135  0.3249
 9500TIP3    H149915   5.180   2.822  15.408 -2.2141 -0.5401 -0.0844
 9500TIP3    H249916   5.198   2.752  15.275  0.0025 -0.5881  0.2298
 9501TIP3   OH249917   6.734   4.934  16.240  0.5237  0.1281 -0.0682
 9501TIP3    H149918   6.823   4.962  16.264  0.3936  1.0078 -0.5960
 9501TIP3    H249919   6.725   4.848  16.280  0.7117  1.0865  2.1125
 9502TIP3   OH249920   5.769   6.366  14.637  0.5571  0.3523  0.1698
 9502TIP3    H149921   5.679   6.391  14.659  0.2669 -0.3926 -0.1564
 9502TIP3    H249922   5.819   6.384  14.717  0.1737  1.0598  0.2507
 9503TIP3   OH249923   5.658   6.555  11.904 -0.2043  0.1132 -0.4742
 9503TIP3    H149924   5.671   6.643  11.868 -1.5473  0.1333 -0.9244
 9503TIP3    H249925   5.736   6.507  11.877  0.1329  0.9307 -0.9702
 9504TIP3   OH249926   1.558   1.080  15.340 -0.2292  0.0946  0.0442
 9504TIP3    H149927   1.559   1.174  15.322  1.5849 -0.2777 -1.9836
 9504TIP3    H249928   1.647   1.051  15.323 -1.1842 -2.3191 -1.1504
 9505TIP3   OH249929   0.619   3.576   0.695 -0.3058  0.0660 -0.4410
 9505TIP3    H149930   0.581   3.497   0.656  0.0528  0.8482 -2.4371
 9505TIP3    H249931   0.713   3.568   0.678 -0.1845  0.5726 -0.0171
 9506TIP3   OH249932   0.784   3.172   0.159 -0.3214 -0.1251  0.6973
 9506TIP3    H149933   0.858   3.145   0.214  0.0575  1.0700  0.7800
 9506TIP3    H249934   0.710   3.120   0.191 -0.1304  0.6238  2.4171
 9507TIP3   OH249935   0.271   2.004   5.144  0.1409  0.3363  0.1319
 9507TIP3    H149936   0.245   2.068   5.210  0.4468  0.2395  0.3465
 9507TIP3    H249937   0.366   1.996   5.155 -0.1272 -1.5041  1.3057
 9508TIP3   OH249938   2.435   5.821  12.638  0.8742  0.6282 -0.2641
 9508TIP3    H149939   2.440   5.914  12.661 -3.1300  0.7196  0.5739
 9508TIP3    H249940   2.466   5.775  12.716  1.5771  1.2204 -0.1918
 9509TIP3   OH249941   3.878   1.176   4.841  0.0126  0.0362  0.4507
 9509TIP3    H149942   3.889   1.098   4.787  0.0369 -0.0019  0.5107
 9509TIP3    H249943   3.957   1.179   4.895  0.2221  0.3545  0.1268
 9510TIP3   OH249944   5.599   2.473  16.568  0.3220  0.0901 -0.0981
 9510TIP3    H149945   5.645   2.392  16.546 -0.2028 -0.0688 -0.6362
 9510TIP3    H249946   5.546   2.450  16.644  0.0705 -0.1172 -0.3324
 9511TIP3   OH249947   5.800   6.029   1.714 -0.1868 -0.1452  0.6151
 9511TIP3    H149948   5.759   6.052   1.631  1.7813 -0.4546 -0.4723
 9511TIP3    H249949   5.746   6.073   1.781 -0.6913  1.6291 -0.9265
 9512TIP3   OH249950   2.504   4.897  15.803  0.0222  0.1637  0.1910
 9512TIP3    H149951   2.597   4.917  15.796  0.2155 -0.9330 -0.5115
 9512TIP3    H249952   2.474   4.945  15.880  1.4721 -0.5934  1.2417
 9513TIP3   OH249953   6.001   1.879  14.598 -0.0465  0.4913  0.1969
 9513TIP3    H149954   5.981   1.793  14.635  2.8491  0.2188  1.2213
 9513TIP3    H249955   6.072   1.863  14.536  1.0800  2.2367  1.0000
 9514TIP3   OH249956   6.404   6.474  11.583  1.0114 -0.1088  0.1863
 9514TIP3    H149957   6.489   6.429  11.577  2.0681  1.7869  0.6283
 9514TIP3    H249958   6.414   6.551  11.527 -0.6319 -0.1578 -0.1878
 9515TIP3   OH249959   4.534   5.813   5.275 -0.1434 -0.0474 -0.1306
 9515TIP3    H149960   4.443   5.838   5.295 -0.2981 -0.7111  0.0057
 9515TIP3    H249961   4.587   5.871   5.329 -0.5254 -0.9338  1.2185
 9516TIP3   OH249962   5.002   5.855   3.859 -0.7899 -0.6278 -0.0449
 9516TIP3    H149963   4.921   5.855   3.908 -0.1948  2.1230  1.0106
 9516TIP3    H249964   5.067   5.891   3.919  0.6963 -0.5349 -1.6576
 9517TIP3   OH249965   2.237   5.255  14.022  0.2102  0.3169 -0.5204
 9517TIP3    H149966   2.250   5.212  14.106 -0.8977  2.4558  0.7916
 9517TIP3    H249967   2.228   5.183  13.959 -0.4822 -1.3457  1.4311
 9518TIP3   OH249968   0.048   3.597   5.112  0.4855  0.3541  0.0380
 9518TIP3    H149969   0.042   3.521   5.170  0.8384 -1.5709 -2.3378
 9518TIP3    H249970   0.129   3.641   5.138  1.5291 -1.4436 -0.1031
 9519TIP3   OH249971   2.734   4.545  12.415  0.0165 -0.4027  0.0006
 9519TIP3    H149972   2.700   4.559  12.503  0.4400  0.0037  0.1039
 9519TIP3    H249973   2.776   4.459  12.419 -2.9675 -1.9543 -0.7413
 9520TIP3   OH249974   3.803   2.631   0.985  0.8309  0.1538  0.3046
 9520TIP3    H149975   3.797   2.536   0.976  1.5032  0.0836  0.5782
 9520TIP3    H249976   3.893   2.652   0.959  1.5919  0.3830  3.0105
 9521TIP3   OH249977   5.737   3.086  12.502  0.3852  0.0652 -0.5160
 9521TIP3    H149978   5.691   3.051  12.579 -1.5524  2.8860 -0.2865
 9521TIP3    H249979   5.746   3.180  12.521  0.6551  0.6582 -3.3248
 9522TIP3   OH249980   0.934   5.213  14.375  0.3379 -0.7794  0.6400
 9522TIP3    H149981   0.970   5.188  14.460 -2.1951 -1.0867  1.6640
 9522TIP3    H249982   0.890   5.297  14.391 -0.5702 -1.0825 -0.2292
 9523TIP3   OH249983   4.463   3.843  13.458 -0.1096 -0.6802 -0.4419
 9523TIP3    H149984   4.436   3.755  13.482  0.6272 -0.8404 -0.1851
 9523TIP3    H249985   4.384   3.884  13.422 -0.2490 -1.7131 -1.3378
 9524TIP3   OH249986   5.495   2.979   6.751  0.1172  0.3322  0.0406
 9524TIP3    H149987   5.490   3.066   6.712  1.3636  0.4187  0.0408
 9524TIP3    H249988   5.582   2.946   6.725  0.1353 -0.4327  1.0336
 9525TIP3   OH249989   0.560   2.845  15.779 -0.0261  0.2822 -0.0537
 9525TIP3    H149990   0.629   2.807  15.724  0.7897  0.9953  0.4543
 9525TIP3    H249991   0.527   2.771  15.830  0.4801 -0.0417 -0.1854
 9526TIP3   OH249992   4.819   5.367  14.020 -0.2756  0.4203  0.5820
 9526TIP3    H149993   4.812   5.426  14.095  0.5369 -0.8864  1.7179
 9526TIP3    H249994   4.769   5.290  14.045  0.4347 -0.2425 -0.0098
 9527TIP3   OH249995   6.086   1.715  13.005  0.3403 -0.3251  0.0333
 9527TIP3    H149996   6.035   1.717  12.924  0.3940  1.3486  0.0416
 9527TIP3    H249997   6.055   1.637  13.050 -0.7755 -0.4290 -0.8916
 9528TIP3   OH249998   3.699   5.860   2.828  0.0841  0.0368 -0.4314
 9528TIP3    H149999   3.708   5.771   2.861  0.3048  0.8172  1.6985
 9528TIP3    H250000   3.629   5.899   2.881  1.1739  1.6595 -0.1512
 9529TIP3   OH250001   5.402   6.687  11.457  0.4299 -0.5689 -0.2290
 9529TIP3    H150002   5.458   6.609  11.454 -0.5511 -1.3343  0.7324
 9529TIP3    H250003   5.355   6.685  11.374  1.6153 -0.0730 -0.9250
 9530TIP3   OH250004   2.407   4.273  17.054  0.7853 -0.3824 -0.2820
 9530TIP3    H150005   2.477   4.312  17.105  0.5335 -0.2322 -0.0458
 9530TIP3    H250006   2.421   4.179  17.063  0.3088 -0.3737  0.6907
 9531TIP3   OH250007   1.390   1.068   5.777  0.2615  0.2887  0.4102
 9531TIP3    H150008   1.395   1.087   5.683  0.9548  0.2693  0.4446
 9531TIP3    H250009   1.406   1.152   5.820 -1.8191  0.6617  0.4965
 9532TIP3   OH250010   4.768   0.841   0.325 -0.1846  0.6179 -0.1987
 9532TIP3    H150011   4.825   0.862   0.398 -0.3468 -2.3876  0.8531
 9532TIP3    H250012   4.764   0.922   0.274  3.8861  1.3022  0.4147
 9533TIP3   OH250013   5.342   4.253  12.384 -0.4136  0.0635 -0.1206
 9533TIP3    H150014   5.369   4.244  12.293 -0.2264  0.0240 -0.0628
 9533TIP3    H250015   5.247   4.244  12.383 -0.2319 -2.2748 -0.0564
 9534TIP3   OH250016   0.214   2.885   2.797  0.2378 -0.0125  0.1455
 9534TIP3    H150017   0.156   2.845   2.861  1.1543 -0.8424  0.4494
 9534TIP3    H250018   0.159   2.895   2.718 -0.0051 -1.7920  0.0874
 9535TIP3   OH250019   6.406   3.381   3.527  0.0589  0.3213 -0.4886
 9535TIP3    H150020   6.479   3.320   3.523  1.6690  2.0478  1.4799
 9535TIP3    H250021   6.330   3.327   3.545  0.8599 -1.4815 -2.3335
 9536TIP3   OH250022   5.415   6.042   0.471  0.3441  0.3161  0.2927
 9536TIP3    H150023   5.343   6.025   0.410 -0.1401  0.3457  0.8440
 9536TIP3    H250024   5.384   6.116   0.524  0.1063 -0.6971  1.5896
 9537TIP3   OH250025   5.367   3.016   4.087  0.2044  0.0367 -0.3254
 9537TIP3    H150026   5.361   2.952   4.158 -0.0751  0.1912 -0.2073
 9537TIP3    H250027   5.312   2.981   4.017  0.2346  0.0338 -0.3469
 9538TIP3   OH250028   4.097   5.110   1.211 -0.2904 -0.0945  0.1547
 9538TIP3    H150029   4.183   5.069   1.223  0.1974  0.4602 -1.3448
 9538TIP3    H250030   4.117   5.203   1.199 -1.1525  0.1200  0.3772
 9539TIP3   OH250031   6.511   6.184  13.745  0.1695  0.5635  0.1286
 9539TIP3    H150032   6.470   6.259  13.788  0.7163  0.8856  0.0914
 9539TIP3    H250033   6.597   6.176  13.787  0.2221  0.1312 -0.0594
 9540TIP3   OH250034   0.357   3.116   3.796 -0.2108 -0.7821  0.3111
 9540TIP3    H150035   0.412   3.169   3.854 -0.5804 -0.6349  0.5339
 9540TIP3    H250036   0.287   3.083   3.854 -1.0022 -0.0240 -0.2096
 9541TIP3   OH250037   0.548   2.306  14.360 -0.4514  0.4098  0.3233
 9541TIP3    H150038   0.474   2.367  14.352  0.0889  0.7244 -2.9862
 9541TIP3    H250039   0.623   2.362  14.378 -0.5654  0.3674  0.9242
 9542TIP3   OH250040   2.806   0.858   4.527 -0.7508 -0.2331 -0.5891
 9542TIP3    H150041   2.843   0.888   4.610 -0.6837 -0.2692 -0.6065
 9542TIP3    H250042   2.730   0.916   4.513 -2.1227 -1.6928  0.6205
 9543TIP3   OH250043   5.740   2.147  13.807  0.6252 -0.5351 -0.3132
 9543TIP3    H150044   5.663   2.151  13.751 -0.0145 -2.0667  0.4107
 9543TIP3    H250045   5.814   2.167  13.749 -0.3013  0.8166 -1.0337
 9544TIP3   OH250046   3.013   6.065   2.817  0.6280  0.3436 -0.0409
 9544TIP3    H150047   2.918   6.057   2.812  0.6849 -0.8281  0.5205
 9544TIP3    H250048   3.037   6.019   2.897  1.9145 -1.6209 -1.5205
 9545TIP3   OH250049   3.402   5.841   4.576  0.0282  0.1142 -0.0514
 9545TIP3    H150050   3.414   5.843   4.671 -2.4084  0.0286  0.2839
 9545TIP3    H250051   3.472   5.895   4.541  0.1963  1.1626  1.8828
 9546TIP3   OH250052   3.139   6.051   5.643  0.0951 -0.8108 -0.3273
 9546TIP3    H150053   3.123   6.109   5.568 -1.5914  1.4807  1.7352
 9546TIP3    H250054   3.218   6.086   5.684  0.8352 -1.8675 -0.8265
 9547TIP3   OH250055   5.365   6.430   2.795  0.3013 -0.0744  0.1963
 9547TIP3    H150056   5.361   6.440   2.890 -1.4011  0.0555  0.1365
 9547TIP3    H250057   5.449   6.387   2.778  0.4643 -0.4051  1.7833
 9548TIP3   OH250058   6.231   1.342   1.142 -0.0080  0.1583  0.5525
 9548TIP3    H150059   6.312   1.347   1.093  0.0306  2.0012  0.7639
 9548TIP3    H250060   6.212   1.432   1.167 -0.1181 -0.6900  3.7719
 9549TIP3   OH250061   2.119   2.532   2.588 -0.0608  0.4324  0.0581
 9549TIP3    H150062   2.076   2.616   2.599  0.2373  0.4191  1.5008
 9549TIP3    H250063   2.212   2.554   2.579 -0.2080  0.3786 -1.6255
 9550TIP3   OH250064   6.530   1.320   2.475 -0.3353  0.1972  0.6323
 9550TIP3    H150065   6.494   1.284   2.556  1.4423  0.4974  1.5900
 9550TIP3    H250066   6.528   1.246   2.414 -2.6662  0.2587  0.5959
 9551TIP3   OH250067   1.255   2.060   3.299 -0.5941 -0.0404  0.4208
 9551TIP3    H150068   1.228   1.999   3.231 -2.3970 -0.8162  1.7891
 9551TIP3    H250069   1.342   2.089   3.272  0.5660 -3.6365  0.0263
 9552TIP3   OH250070   3.628   3.301   2.585  0.3023 -0.0328  0.3361
 9552TIP3    H150071   3.622   3.277   2.493  2.1767 -1.4096  0.5532
 9552TIP3    H250072   3.552   3.358   2.600 -0.0319  0.1850 -2.0314
 9553TIP3   OH250073   5.117   0.766  13.052 -0.4420 -0.3487  0.0797
 9553TIP3    H150074   5.211   0.781  13.068 -0.5785  0.9057 -0.2439
 9553TIP3    H250075   5.115   0.701  12.982  0.1886  0.1226 -0.3800
 9554TIP3   OH250076   3.109   3.456   2.570 -0.4709  0.6905  0.0712
 9554TIP3    H150077   3.066   3.400   2.505  0.4010  0.0366  0.0462
 9554TIP3    H250078   3.037   3.490   2.623 -1.0480 -0.1887 -0.1279
 9555TIP3   OH250079   5.645   2.487   4.506  0.0865 -0.5851 -0.2361
 9555TIP3    H150080   5.561   2.443   4.503 -0.6494  0.3401  3.7321
 9555TIP3    H250081   5.699   2.432   4.564  1.2871  0.3094 -0.4805
 9556TIP3   OH250082   5.497   2.254   0.060 -0.1703 -0.0390 -0.3281
 9556TIP3    H150083   5.410   2.293   0.058 -0.6389 -1.0724 -0.4693
 9556TIP3    H250084   5.527   2.266   0.151 -1.3091 -1.5076  0.2551
 9557TIP3   OH250085   2.155   0.096  11.316  0.0413  0.1218 -0.2801
 9557TIP3    H150086   2.203   0.136  11.243  0.1500  0.7117  0.1152
 9557TIP3    H250087   2.161   0.160  11.386 -1.5910  0.3212 -0.3220
 9558TIP3   OH250088   3.827   4.832   5.867 -0.8093  0.4046 -0.1609
 9558TIP3    H150089   3.873   4.764   5.817 -0.4893  0.2033  0.4065
 9558TIP3    H250090   3.770   4.783   5.927  1.2594  0.5664  2.0222
 9559TIP3   OH250091   2.444   1.934   2.786 -0.1522 -0.1314 -0.6128
 9559TIP3    H150092   2.468   2.027   2.790  1.2082 -0.5279  1.6544
 9559TIP3    H250093   2.523   1.890   2.755  0.2208 -0.8292  1.2417
 9560TIP3   OH250094   0.555   1.584   0.080  0.0711 -0.2178 -0.0746
 9560TIP3    H150095   0.536   1.527   0.006 -0.8689  1.2476 -0.9873
 9560TIP3    H250096   0.509   1.665   0.060  1.0714  0.7327  1.3868
 9561TIP3   OH250097   3.127   4.828  14.858  0.2818 -0.0985 -0.1031
 9561TIP3    H150098   3.162   4.878  14.931 -0.5605 -0.9109  0.8650
 9561TIP3    H250099   3.183   4.750  14.854 -0.7588 -0.8977  0.7899
 9562TIP3   OH250100   4.695   3.565   0.756 -0.2355  0.0394 -0.1727
 9562TIP3    H150101   4.716   3.494   0.816 -2.2224 -0.2789  0.1710
 9562TIP3    H250102   4.694   3.643   0.810  0.1284  0.0670 -0.2048
 9563TIP3   OH250103   4.696   5.363  12.755  0.0986 -0.1211  0.4974
 9563TIP3    H150104   4.767   5.427  12.759 -0.9187  1.1102 -0.7852
 9563TIP3    H250105   4.689   5.341  12.663 -2.0201  0.7307  0.4261
 9564TIP3   OH250106   5.432   3.432  12.992  0.0976 -0.3650 -0.6679
 9564TIP3    H150107   5.418   3.426  13.086  1.7221 -0.4134 -0.4102
 9564TIP3    H250108   5.453   3.343  12.965 -0.1194 -0.3056 -1.0333
 9565TIP3   OH250109   1.869   1.050   3.163 -0.1595 -0.5318  0.1493
 9565TIP3    H150110   1.843   1.074   3.252  2.5053 -0.1848  0.8984
 9565TIP3    H250111   1.904   1.131   3.126  0.2778 -1.0591 -0.6087
 9566TIP3   OH250112   1.083   4.133   5.263 -0.7507 -0.5616  0.6478
 9566TIP3    H150113   1.130   4.122   5.180 -0.2070 -1.1398  1.0257
 9566TIP3    H250114   1.102   4.223   5.290 -0.1943 -0.6547  0.5884
 9567TIP3   OH250115   1.368   2.909   3.755  0.2825 -0.6816  0.3397
 9567TIP3    H150116   1.378   2.990   3.705  0.3453 -0.5164  0.6196
 9567TIP3    H250117   1.434   2.916   3.824 -1.6349  0.3281  2.1040
 9568TIP3   OH250118   1.074   6.357   0.792 -0.1946  0.3743 -0.0497
 9568TIP3    H150119   1.129   6.378   0.868  1.3234 -1.7211 -0.5480
 9568TIP3    H250120   1.011   6.430   0.788  0.3464  1.0488  2.5844
 9569TIP3   OH250121   2.968   0.728   0.210  0.3876 -0.4889  0.4543
 9569TIP3    H150122   3.050   0.760   0.171  0.3517 -2.4478 -1.2836
 9569TIP3    H250123   2.963   0.774   0.294  2.7210  0.4889  0.1134
 9570TIP3   OH250124   3.890   2.950  10.803  0.7503  0.2340  0.1383
 9570TIP3    H150125   3.846   2.902  10.733  0.2951 -0.6198  0.9983
 9570TIP3    H250126   3.839   3.030  10.812  1.1529  0.6187 -0.8868
 9571TIP3   OH250127   5.922   2.289   5.258 -0.3922  0.4916 -0.1049
 9571TIP3    H150128   6.012   2.302   5.287 -0.6348 -0.8035  1.2344
 9571TIP3    H250129   5.905   2.196   5.271 -2.5163  1.0580  1.3777
 9572TIP3   OH250130   1.163   6.142  14.658  0.3729  0.0846  0.0649
 9572TIP3    H150131   1.154   6.123  14.751  0.3131  0.1935  0.0810
 9572TIP3    H250132   1.075   6.134  14.623  0.3439  0.3549  0.0764
 9573TIP3   OH250133   0.788   2.428   4.296 -0.2716 -0.3186 -0.2290
 9573TIP3    H150134   0.752   2.454   4.211  0.4603  1.3305 -0.0516
 9573TIP3    H250135   0.870   2.384   4.275  0.4505  1.0681 -0.3123
 9574TIP3   OH250136   1.895   0.061  10.835  0.4703 -0.1497 -0.2204
 9574TIP3    H150137   1.859   0.144  10.804  0.5217  0.2633  0.8037
 9574TIP3    H250138   1.986   0.079  10.856  0.6264 -0.5988 -0.4869
 9575TIP3   OH250139   0.140   2.015  14.753  0.5100  0.2862  0.3709
 9575TIP3    H150140   0.156   2.108  14.738 -1.9192  0.4978 -1.1071
 9575TIP3    H250141   0.168   2.000  14.843  2.0074  2.1686  0.2556
 9576TIP3   OH250142   1.327   3.817  13.035  0.1640  0.2446  0.5006
 9576TIP3    H150143   1.395   3.771  12.985  0.5093  0.8057  0.4439
 9576TIP3    H250144   1.254   3.824  12.974  0.2159  0.0277  0.4118
 9577TIP3   OH250145   0.547   5.763  10.547 -0.3388 -0.0693 -0.5218
 9577TIP3    H150146   0.534   5.789  10.456 -0.8648  3.6796  0.5592
 9577TIP3    H250147   0.617   5.819  10.579 -1.4371 -0.0221  1.9083
 9578TIP3   OH250148   0.245   1.112   3.194 -0.1809 -0.1019 -0.4069
 9578TIP3    H150149   0.230   1.196   3.152  0.0745  0.6433  0.9744
 9578TIP3    H250150   0.259   1.133   3.286 -0.4445 -1.6789  0.0139
 9579TIP3   OH250151   2.190   0.035   1.192  0.0495 -0.1466  0.3339
 9579TIP3    H150152   2.128   0.034   1.264  0.1382  1.9450  0.4665
 9579TIP3    H250153   2.260  -0.023   1.219 -0.4049 -0.1615  1.4787
 9580TIP3   OH250154   3.671   2.320   5.498 -0.3216 -0.5349 -0.7064
 9580TIP3    H150155   3.709   2.235   5.472 -2.4258 -1.6210 -0.2962
 9580TIP3    H250156   3.583   2.299   5.527 -1.2754  1.9719 -1.6473
 9581TIP3   OH250157   2.044   4.857   1.069 -0.2444  0.5602  0.1329
 9581TIP3    H150158   2.030   4.924   1.002  1.5066  0.8818  0.0721
 9581TIP3    H250159   2.044   4.906   1.151  1.1826  0.6678  0.0769
 9582TIP3   OH250160   5.629   0.612  14.723 -0.3435 -0.1572 -0.1018
 9582TIP3    H150161   5.572   0.557  14.669  0.1416  0.7705 -1.5764
 9582TIP3    H250162   5.670   0.551  14.784  0.8809 -1.5943 -2.3102
 9583TIP3   OH250163   3.806   2.057  15.904 -0.7883 -0.5492 -0.3451
 9583TIP3    H150164   3.880   2.049  15.964 -1.4547 -0.9979  0.4344
 9583TIP3    H250165   3.825   1.995  15.834 -0.0497 -0.0875 -0.5584
 9584TIP3   OH250166   5.815   1.558  17.202 -0.1186  0.0950  0.0765
 9584TIP3    H150167   5.813   1.487  17.266 -0.9135 -1.0932 -1.2612
 9584TIP3    H250168   5.730   1.555  17.159  0.7056  0.3875 -1.6003
 9585TIP3   OH250169   0.543   4.769  14.142  0.1365  0.0921 -0.4571
 9585TIP3    H150170   0.541   4.687  14.190  0.0635  0.9299  0.9890
 9585TIP3    H250171   0.523   4.745  14.051  0.1088 -1.4703 -0.0381
 9586TIP3   OH250172   6.293   6.190  13.211  0.1049 -0.0126 -1.0967
 9586TIP3    H150173   6.310   6.110  13.161 -1.4429 -2.1222  1.6436
 9586TIP3    H250174   6.198   6.198  13.213  0.1620  0.4414  0.8546
 9587TIP3   OH250175   1.660   4.291  14.310  0.7095  0.0438 -0.6756
 9587TIP3    H150176   1.689   4.204  14.282  0.2936 -0.4574  0.4050
 9587TIP3    H250177   1.616   4.276  14.394  1.0833  1.3661 -0.2232
 9588TIP3   OH250178   0.071   2.129  15.770 -0.3108 -0.1521 -0.0120
 9588TIP3    H150179   0.107   2.134  15.858 -0.3319 -1.5212  0.0808
 9588TIP3    H250180  -0.024   2.138  15.782 -0.2088  1.0868 -0.0398
 9589TIP3   OH250181   3.969   5.863   2.809  0.8988 -0.4620  0.0221
 9589TIP3    H150182   3.874   5.873   2.796  0.8088 -2.6779 -1.5234
 9589TIP3    H250183   4.007   5.886   2.724  1.7452  0.4447  0.6479
 9590TIP3   OH250184   1.539   5.961  14.368  0.4799 -0.1713 -0.1007
 9590TIP3    H150185   1.501   5.892  14.312 -0.0079  0.1834 -0.2060
 9590TIP3    H250186   1.588   6.016  14.307 -1.3037  1.0981 -0.4254
 9591TIP3   OH250187   1.805   1.899  12.433  0.0952  0.2188  0.0238
 9591TIP3    H150188   1.710   1.911  12.424  0.1111 -0.5771 -1.2549
 9591TIP3    H250189   1.828   1.837  12.364  1.3973 -0.3566  0.9674
 9592TIP3   OH250190   6.172   1.316  12.491  0.5661 -0.5974 -0.1681
 9592TIP3    H150191   6.173   1.354  12.579 -0.0729  0.6502 -0.6966
 9592TIP3    H250192   6.183   1.391  12.432  0.7639 -1.4018 -1.1659
 9593TIP3   OH250193   6.401   0.857   0.391  0.2681 -0.0374  0.7176
 9593TIP3    H150194   6.335   0.808   0.342  0.7565 -0.5236  0.5413
 9593TIP3    H250195   6.479   0.853   0.336 -0.3756  3.1115 -0.5253
 9594TIP3   OH250196   2.812   3.099  12.938  0.1735 -0.2697 -0.2734
 9594TIP3    H150197   2.775   3.118  12.852  1.4695 -0.4452 -0.8768
 9594TIP3    H250198   2.904   3.123  12.931  0.4348 -0.8878  0.8701
 9595TIP3   OH250199   2.783   2.859  14.055  0.2965  0.8045 -0.1244
 9595TIP3    H150200   2.731   2.877  14.132  1.9357  0.1091  1.1844
 9595TIP3    H250201   2.826   2.942  14.034 -0.1670  0.9980 -0.3143
 9596TIP3   OH250202   3.930   1.793  15.088  0.7743 -0.6911 -0.6080
 9596TIP3    H150203   3.846   1.831  15.111  1.0073 -0.5400  0.0199
 9596TIP3    H250204   3.934   1.797  14.993  1.0181  1.3204 -0.5293
 9597TIP3   OH250205   0.921   4.360  13.256  0.2634 -0.9090  0.1152
 9597TIP3    H150206   0.970   4.437  13.226 -0.6931 -0.5129 -0.4839
 9597TIP3    H250207   0.867   4.336  13.180  0.3802 -2.0248  0.3853
 9598TIP3   OH250208   3.615   2.957   2.489 -0.3057  0.1377 -0.1051
 9598TIP3    H150209   3.592   2.894   2.558  0.0461 -0.7019 -0.7429
 9598TIP3    H250210   3.690   3.004   2.525  1.2006 -1.7188 -0.7229
 9599TIP3   OH250211   3.671   4.290  13.197  0.2752  0.1196  0.3595
 9599TIP3    H150212   3.721   4.210  13.181  1.2363  0.7940 -0.0346
 9599TIP3    H250213   3.580   4.264  13.181  0.6212 -0.7676 -0.2314
 9600TIP3   OH250214   4.715   4.316  11.576 -0.2708 -0.1374  0.2256
 9600TIP3    H150215   4.785   4.252  11.585  1.1563  1.2494 -0.7475
 9600TIP3    H250216   4.646   4.270  11.529  0.8671 -0.8614 -0.7527
 9601TIP3   OH250217   1.757   3.901   6.173  0.0690 -0.5183 -0.1887
 9601TIP3    H150218   1.738   3.908   6.267  1.5897  0.8922  0.0543
 9601TIP3    H250219   1.688   3.952   6.131  0.3294  0.2721  0.3102
 9602TIP3   OH250220   1.025   3.120  14.492 -0.2741 -0.1319  0.3439
 9602TIP3    H150221   0.936   3.143  14.464  0.4786  2.4407 -0.0249
 9602TIP3    H250222   1.029   3.145  14.584  0.7008  1.7091 -0.1836
 9603TIP3   OH250223   6.013   4.353   5.611  0.4326 -0.7330 -0.4449
 9603TIP3    H150224   5.954   4.327   5.541 -1.6366 -2.1272  1.7658
 9603TIP3    H250225   6.096   4.311   5.588 -0.5541 -2.2061 -1.4111
 9604TIP3   OH250226   2.989   3.786   3.299 -0.2320  0.3631  0.1297
 9604TIP3    H150227   2.921   3.720   3.311  0.0411 -0.0528 -0.5858
 9604TIP3    H250228   2.954   3.844   3.231  1.0624 -1.1363 -1.8716
 9605TIP3   OH250229   3.325   4.431   0.152 -0.9231 -0.4066  0.2600
 9605TIP3    H150230   3.284   4.516   0.135  0.2330  0.3317  1.0414
 9605TIP3    H250231   3.253   4.374   0.177 -1.8866 -0.0253 -1.5638
 9606TIP3   OH250232   4.493   0.173   4.130 -0.0159 -0.2120  0.0119
 9606TIP3    H150233   4.467   0.092   4.173  0.6207 -1.1992 -1.4151
 9606TIP3    H250234   4.588   0.165   4.119 -0.2526 -0.3379 -2.2190
 9607TIP3   OH250235   0.403   3.129  15.202 -0.2537 -0.1317  0.3896
 9607TIP3    H150236   0.354   3.205  15.172 -0.3286  1.0836  3.4282
 9607TIP3    H250237   0.465   3.111  15.131  0.0523  3.0408 -0.2258
 9608TIP3   OH250238   1.437   5.224   2.150 -0.1883 -0.2191  0.0520
 9608TIP3    H150239   1.414   5.305   2.197 -0.0194 -1.0641  1.6488
 9608TIP3    H250240   1.530   5.233   2.131 -0.3340  0.2833 -0.4492
 9609TIP3   OH250241   1.496   1.495   3.123 -0.5067 -0.3790 -0.5959
 9609TIP3    H150242   1.414   1.460   3.087 -0.4408 -0.7613 -0.3816
 9609TIP3    H250243   1.471   1.579   3.162 -1.2155 -1.3892  1.2363
 9610TIP3   OH250244   6.378   6.554  10.741  0.4815 -0.0851 -0.0499
 9610TIP3    H150245   6.464   6.587  10.766  0.2905  0.1612  0.2836
 9610TIP3    H250246   6.351   6.609  10.668  1.1707 -0.9962 -0.9963
 9611TIP3   OH250247   4.064   6.715  10.701  0.4096  0.0002  0.4619
 9611TIP3    H150248   3.996   6.648  10.694 -1.5959  1.5951  3.8254
 9611TIP3    H250249   4.141   6.667  10.731 -0.6619 -1.0412  1.6473
 9612TIP3   OH250250   2.560   5.964   3.592 -0.3889  0.7405 -0.2214
 9612TIP3    H150251   2.593   5.875   3.580  2.1901  1.8360 -1.6045
 9612TIP3    H250252   2.465   5.956   3.585 -0.2924 -2.0984  1.1167
 9613TIP3   OH250253   6.507   3.639   3.454  0.2922  0.0360  0.1458
 9613TIP3    H150254   6.457   3.576   3.505 -0.7869  0.5725 -0.2493
 9613TIP3    H250255   6.447   3.668   3.385  0.8888  1.2290  0.1136
 9614TIP3   OH250256   2.737   1.375  15.652  0.4381  0.1151  0.0124
 9614TIP3    H150257   2.740   1.294  15.703 -0.5653  1.2323  1.9262
 9614TIP3    H250258   2.644   1.396  15.647  0.8292  2.6303  2.0477
 9615TIP3   OH250259   3.960   2.675   5.534  0.9168 -0.5136  0.2306
 9615TIP3    H150260   3.983   2.726   5.456  0.3576  4.8965  3.3271
 9615TIP3    H250261   3.871   2.645   5.517  1.0249  0.0191 -1.4214
 9616TIP3   OH250262   4.538   4.354  14.015 -0.5031 -0.0174 -0.2459
 9616TIP3    H150263   4.453   4.312  14.025 -1.1884  0.6841 -2.8142
 9616TIP3    H250264   4.531   4.404  13.934  2.2637  0.2699 -0.3650
 9617TIP3   OH250265   2.249   2.347  14.026  0.1100  0.1464 -0.2401
 9617TIP3    H150266   2.278   2.365  13.937 -1.2600 -1.9595 -1.1659
 9617TIP3    H250267   2.229   2.253  14.026  1.6244 -0.2517  2.7226
 9618TIP3   OH250268   3.668   6.267  12.944  0.2468  0.1047  0.2463
 9618TIP3    H150269   3.735   6.318  12.988  0.1720  0.4852 -0.0766
 9618TIP3    H250270   3.710   6.238  12.862  0.9152 -1.9067  1.2542
 9619TIP3   OH250271   1.203   0.442  13.841  0.4277  0.2019 -0.5183
 9619TIP3    H150272   1.136   0.393  13.794 -0.6538  0.0695  1.1295
 9619TIP3    H250273   1.285   0.395  13.823 -0.3726 -1.3715 -0.1340
 9620TIP3   OH250274   4.971   2.851  15.542  0.1202 -0.1972  0.4629
 9620TIP3    H150275   4.977   2.944  15.563  0.9213  0.0268 -0.7353
 9620TIP3    H250276   5.017   2.808  15.615  0.5791  0.4087  0.5369
 9621TIP3   OH250277   3.437   5.892   5.544 -0.4874 -0.8723 -0.4358
 9621TIP3    H150278   3.517   5.841   5.529  1.0991  1.2056  0.7709
 9621TIP3    H250279   3.423   5.888   5.638 -0.1005  1.2323 -0.2646
 9622TIP3   OH250280   5.075   3.264  13.129 -0.0617 -0.2543  0.6111
 9622TIP3    H150281   5.078   3.227  13.217  1.9217  0.4056  0.8448
 9622TIP3    H250282   5.038   3.195  13.075  0.3177 -1.2937  1.6654
 9623TIP3   OH250283   6.545   5.612  10.735  0.3354  0.4497  0.1490
 9623TIP3    H150284   6.463   5.659  10.716  1.0345  1.6004 -0.0539
 9623TIP3    H250285   6.613   5.680  10.732  1.0167 -0.0766  2.5956
 9624TIP3   OH250286   4.994   2.212  14.096 -0.0408  0.1870 -0.6058
 9624TIP3    H150287   4.954   2.158  14.027 -3.3060  3.1129 -1.1949
 9624TIP3    H250288   4.980   2.163  14.177 -2.7239 -0.0485 -1.1639
 9625TIP3   OH250289   1.682   5.013   3.998  0.0268 -0.4963 -0.1313
 9625TIP3    H150290   1.687   4.955   3.922  2.0656  0.3047 -0.6519
 9625TIP3    H250291   1.690   5.101   3.961  0.1216 -0.0453  0.9449
 9626TIP3   OH250292   5.685   6.121   0.539  0.2732 -0.9477  0.3904
 9626TIP3    H150293   5.606   6.085   0.500  0.7037 -0.3559 -1.0462
 9626TIP3    H250294   5.719   6.049   0.593 -0.1817 -1.8788 -0.5390
 9627TIP3   OH250295   3.248   4.406   3.375 -0.0268 -0.0243  0.1266
 9627TIP3    H150296   3.216   4.418   3.464 -1.7875 -0.2728 -0.4519
 9627TIP3    H250297   3.191   4.338   3.338 -0.9835  1.8667 -2.0015
 9628TIP3   OH250298   5.722   1.494  12.116  0.1859  0.3567 -0.5483
 9628TIP3    H150299   5.739   1.490  12.022 -0.1018 -1.4697 -0.5374
 9628TIP3    H250300   5.808   1.502  12.156  0.2245  2.6586 -1.0134
 9629TIP3   OH250301   6.208   5.548  15.199 -0.4198  1.0050 -0.2399
 9629TIP3    H150302   6.214   5.581  15.109 -1.4357  3.0754  0.4364
 9629TIP3    H250303   6.116   5.524  15.209  0.0632 -0.9601 -0.3332
 9630TIP3   OH250304   4.584   5.974  13.175  0.0521  0.1331  0.3510
 9630TIP3    H150305   4.653   6.034  13.151  0.9671 -0.5434  1.2235
 9630TIP3    H250306   4.625   5.887  13.173 -0.4041 -0.1525  2.1140
 9631TIP3   OH250307   4.745   0.365   3.883 -0.1797  0.2560  0.1064
 9631TIP3    H150308   4.800   0.315   3.943  1.1610  2.9364  1.2051
 9631TIP3    H250309   4.664   0.315   3.878  0.8151 -1.6092  1.7322
 9632TIP3   OH250310   3.167   1.047  11.736  0.4306 -0.1725 -0.3584
 9632TIP3    H150311   3.261   1.060  11.748  0.4575 -0.6411 -0.0242
 9632TIP3    H250312   3.159   0.955  11.708  0.0702 -0.1609 -0.2992
 9633TIP3   OH250313   2.141   3.520   4.415  0.4283  0.1736 -0.2619
 9633TIP3    H150314   2.069   3.559   4.365  0.3643 -1.9054 -1.8421
 9633TIP3    H250315   2.220   3.559   4.378  0.2052  1.2966  0.4287
 9634TIP3   OH250316   5.480   2.802  14.410 -0.0397 -0.1557 -0.3939
 9634TIP3    H150317   5.568   2.764  14.400  0.4722  0.5709  1.2070
 9634TIP3    H250318   5.434   2.776  14.330  0.9185 -2.4403 -0.2392
 9635TIP3   OH250319   2.505   2.020   6.113  0.9083 -0.2030  0.8011
 9635TIP3    H150320   2.465   1.990   6.031  0.3959  0.9597  0.6271
 9635TIP3    H250321   2.595   1.989   6.107 -0.0976 -3.5796  1.5477
 9636TIP3   OH250322   1.838   3.910  11.559 -0.3482  0.0519 -0.7269
 9636TIP3    H150323   1.933   3.909  11.563 -0.3888  1.2019  1.3175
 9636TIP3    H250324   1.812   3.818  11.564  0.5303 -0.0425  3.3305
 9637TIP3   OH250325   6.192   6.778   5.415  0.5549  0.1593 -0.2927
 9637TIP3    H150326   6.192   6.871   5.438 -0.7712 -0.2906  1.6717
 9637TIP3    H250327   6.228   6.734   5.492 -0.9111 -1.1250 -0.3098
 9638TIP3   OH250328   5.493   6.521  13.625  0.1379  0.2132  0.5542
 9638TIP3    H150329   5.451   6.553  13.704 -1.7000 -1.7322  0.4089
 9638TIP3    H250330   5.521   6.600  13.579  1.0007  1.3820  2.9811
 9639TIP3   OH250331   2.750   0.847  15.214  0.1659  0.4717 -0.1917
 9639TIP3    H150332   2.712   0.776  15.162  0.6948 -0.4125  0.6049
 9639TIP3    H250333   2.682   0.914  15.217  0.3894  0.8535 -2.6226
 9640TIP3   OH250334   5.870   0.373  11.313  0.0051  0.3676  0.5310
 9640TIP3    H150335   5.854   0.400  11.222 -0.8640  1.5991  1.0311
 9640TIP3    H250336   5.828   0.288  11.321  2.5078 -1.0754 -1.0015
 9641TIP3   OH250337   3.570   4.330  13.927  0.3660 -0.1704 -0.2835
 9641TIP3    H150338   3.628   4.260  13.896 -1.5792 -1.3543 -1.3532
 9641TIP3    H250339   3.506   4.340  13.857 -1.4239  0.2759  1.3878
 9642TIP3   OH250340   1.365   2.256  12.379 -0.0835  0.6812 -0.2844
 9642TIP3    H150341   1.438   2.225  12.325  1.1264 -0.1912  1.7663
 9642TIP3    H250342   1.362   2.350  12.364  0.3118  0.4660 -1.7621
 9643TIP3   OH250343   5.591   0.375   0.856  0.3652  0.2635  0.2983
 9643TIP3    H150344   5.513   0.358   0.803  0.8681 -2.3668  0.3348
 9643TIP3    H250345   5.660   0.393   0.793  0.2135  0.4268  0.1790
 9644TIP3   OH250346   2.611   5.991   4.031 -1.0292  0.5304 -0.0477
 9644TIP3    H150347   2.569   6.040   4.101 -0.6192  2.8243 -1.3691
 9644TIP3    H250348   2.539   5.964   3.973 -1.1728  0.1818  0.2889
 9645TIP3   OH250349   2.214   6.666   3.234 -0.0908 -0.6176  0.2039
 9645TIP3    H150350   2.232   6.602   3.302  0.2514 -0.8652 -0.1157
 9645TIP3    H250351   2.208   6.750   3.280  0.6470 -0.7148  0.4822
 9646TIP3   OH250352   2.172   4.745   1.781  0.5471  0.0695  0.0023
 9646TIP3    H150353   2.110   4.702   1.722  0.3266 -0.0886  0.3522
 9646TIP3    H250354   2.236   4.677   1.803 -1.7388 -1.1361  3.3635
 9647TIP3   OH250355   0.430   1.863  14.240  0.1958 -0.5187  0.2093
 9647TIP3    H150356   0.523   1.876  14.219  1.4338 -2.2089  4.1060
 9647TIP3    H250357   0.400   1.949  14.269  1.1880 -0.4318  1.0336
 9648TIP3   OH250358   3.631   5.855   3.267  0.6576  0.7211  0.0122
 9648TIP3    H150359   3.726   5.862   3.279  0.6353  1.8855 -0.4268
 9648TIP3    H250360   3.610   5.924   3.204 -0.3312 -0.2187 -0.6854
 9649TIP3   OH250361   0.592   3.000   0.173 -0.9061  0.3678 -0.6422
 9649TIP3    H150362   0.588   2.930   0.238 -0.5706  1.8133  0.9885
 9649TIP3    H250363   0.517   2.984   0.116 -1.6873 -0.4941  0.5888
 9650TIP3   OH250364   3.407   5.746   4.869  0.2217 -0.6493  0.1852
 9650TIP3    H150365   3.462   5.681   4.912  1.3098  0.3407  0.2950
 9650TIP3    H250366   3.353   5.695   4.809  1.6878 -1.5678 -0.3760
 9651TIP3   OH250367   6.633   6.083   2.816  0.1227  0.2479  0.8785
 9651TIP3    H150368   6.703   6.020   2.800  1.3517  1.9795 -0.7074
 9651TIP3    H250369   6.559   6.050   2.766  0.8779  0.2390 -0.2373
 9652TIP3   OH250370   4.915   5.397   4.065 -0.1157  0.5102 -0.3653
 9652TIP3    H150371   4.997   5.371   4.109 -0.6616  0.9737  0.9409
 9652TIP3    H250372   4.897   5.484   4.099 -1.3616  0.2542 -0.3750
 9653TIP3   OH250373   5.311   4.613   3.502  0.5828 -0.4694 -0.0735
 9653TIP3    H150374   5.226   4.604   3.547  0.1878  0.8120 -0.5427
 9653TIP3    H250375   5.372   4.562   3.556  0.2319  1.5103  2.3032
 9654TIP3   OH250376   0.213   0.946  13.627 -0.6044 -0.0711 -0.0177
 9654TIP3    H150377   0.121   0.932  13.603 -0.4831 -0.5228 -0.2125
 9654TIP3    H250378   0.209   0.981  13.716 -0.9407 -0.6503  0.1998
 9655TIP3   OH250379   4.288   1.341  16.070  0.0205 -0.2975  0.3693
 9655TIP3    H150380   4.317   1.401  16.002 -3.2987  0.3953 -0.5190
 9655TIP3    H250381   4.279   1.396  16.148 -0.8125 -0.0877  0.1309
 9656TIP3   OH250382   5.389   0.935  16.263  0.1415 -0.0096 -0.0600
 9656TIP3    H150383   5.367   0.910  16.353  1.6934  2.2488  0.9997
 9656TIP3    H250384   5.322   1.000  16.240 -0.6066 -1.0262 -0.7653
 9657TIP3   OH250385   3.461   3.641   1.434 -0.6863  0.3874  0.1483
 9657TIP3    H150386   3.496   3.559   1.469  0.5773  1.0530  0.4699
 9657TIP3    H250387   3.377   3.617   1.397 -0.8973 -0.8238  1.3654
 9658TIP3   OH250388   3.885   1.215  13.141  0.0677  0.7411 -0.8660
 9658TIP3    H150389   3.932   1.263  13.210 -0.0860 -1.8672  1.1680
 9658TIP3    H250390   3.951   1.200  13.074  1.1271  0.5324  0.1935
 9659TIP3   OH250391   0.195   2.048   4.613 -0.0834 -0.6434  0.0941
 9659TIP3    H150392   0.279   2.004   4.599 -0.6825 -1.7574 -0.0175
 9659TIP3    H250393   0.189   2.056   4.708  1.5005  2.1083  0.0150
 9660TIP3   OH250394   1.855   5.671   3.307  0.0340 -0.0451 -0.0460
 9660TIP3    H150395   1.899   5.756   3.320  1.9507 -0.5585 -2.5887
 9660TIP3    H250396   1.910   5.608   3.354  0.2917 -0.2435 -0.5972
 9661TIP3   OH250397   4.430   3.990   6.006 -0.4013 -0.0770 -0.4924
 9661TIP3    H150398   4.408   4.072   5.962  1.2317 -0.0387 -1.2387
 9661TIP3    H250399   4.514   3.964   5.969 -0.0001 -1.1168  1.1178
 9662TIP3   OH250400   5.041   5.218  12.522 -0.5627 -0.0437  0.2464
 9662TIP3    H150401   4.994   5.169  12.454 -0.2313 -0.3129  0.2119
 9662TIP3    H250402   5.128   5.178  12.524 -0.0140  1.1141 -0.3859
 9663TIP3   OH250403   4.400   2.931   0.495 -0.0366  0.2555  0.4288
 9663TIP3    H150404   4.476   2.912   0.551  0.6394  0.5598 -0.3721
 9663TIP3    H250405   4.416   2.881   0.416 -1.9007 -1.6113  1.2077
 9664TIP3   OH250406   1.161   3.388  15.750 -0.0180 -0.1741  0.3460
 9664TIP3    H150407   1.169   3.420  15.840  1.9519 -2.7802  1.1547
 9664TIP3    H250408   1.251   3.384  15.718 -0.2983 -3.1820 -0.2676
 9665TIP3   OH250409   1.631   4.570   0.222 -0.3348 -0.3202  0.2881
 9665TIP3    H150410   1.658   4.661   0.229 -3.3549  0.4742  2.0418
 9665TIP3    H250411   1.541   4.568   0.253 -0.6029 -3.7807 -0.4617
 9666TIP3   OH250412   1.385   5.337  11.559 -0.1465 -0.4119  0.0061
 9666TIP3    H150413   1.454   5.295  11.507 -1.4021 -0.3506 -1.7361
 9666TIP3    H250414   1.407   5.430  11.557 -0.5625 -0.3403 -0.9442
 9667TIP3   OH250415   6.778   2.924   1.167 -0.0105 -0.2128  0.3969
 9667TIP3    H150416   6.704   2.876   1.205 -0.3945  0.0543 -0.0040
 9667TIP3    H250417   6.754   3.016   1.178 -0.2700 -0.1316 -0.7567
 9668TIP3   OH250418   1.088   3.259   1.908  0.0445 -0.2358 -0.0790
 9668TIP3    H150419   1.070   3.338   1.958 -1.6814 -0.7914  0.2170
 9668TIP3    H250420   1.002   3.218   1.896  0.9630 -2.3405  0.2491
 9669TIP3   OH250421   4.191   6.492  17.016 -0.2241 -0.0565  0.0134
 9669TIP3    H150422   4.210   6.430  17.086 -0.1613  0.2254  0.2452
 9669TIP3    H250423   4.101   6.519  17.033 -0.1242  0.2021  0.1317
 9670TIP3   OH250424   1.240   3.505  12.264  0.2902 -0.6009  0.1069
 9670TIP3    H150425   1.153   3.503  12.305  0.2213  0.2093  0.0066
 9670TIP3    H250426   1.243   3.427  12.210 -0.2688 -0.7852  0.3375
 9671TIP3   OH250427   2.884   5.197  12.887  0.0440 -0.2944 -0.1642
 9671TIP3    H150428   2.955   5.261  12.881  0.5239 -0.5444  2.2119
 9671TIP3    H250429   2.924   5.122  12.932 -1.8640 -0.2023  1.7528
 9672TIP3   OH250430   4.809   3.106   6.217 -0.3108 -0.4321  0.9150
 9672TIP3    H150431   4.773   3.045   6.152  0.5643 -0.5187  0.4953
 9672TIP3    H250432   4.734   3.133   6.270 -0.9789 -0.6151  0.0686
 9673TIP3   OH250433   5.299   0.167  12.357  0.1322 -0.0859 -0.7759
 9673TIP3    H150434   5.241   0.141  12.285 -1.1924 -0.5703  0.4513
 9673TIP3    H250435   5.274   0.109  12.429  0.7576  1.0927  0.3848
 9674TIP3   OH250436   0.444   4.475  12.490  0.0926 -0.6687 -0.2063
 9674TIP3    H150437   0.506   4.510  12.555  0.8939 -0.5184 -1.0401
 9674TIP3    H250438   0.500   4.447  12.418 -0.9119  0.5836 -1.4855
 9675TIP3   OH250439   4.888   4.980  14.461 -0.2876  0.1457  0.4979
 9675TIP3    H150440   4.839   5.003  14.540  0.6728  0.7936  0.9102
 9675TIP3    H250441   4.851   4.895  14.435 -1.4020  0.4683  0.9806
 9676TIP3   OH250442   0.315   0.555   5.637 -0.2520 -0.5509  0.2156
 9676TIP3    H150443   0.348   0.573   5.550 -0.9492 -0.3738 -0.0166
 9676TIP3    H250444   0.289   0.463   5.634 -2.0262 -0.0542 -0.3465
 9677TIP3   OH250445   6.402   2.319   3.150  0.1532 -0.1143 -0.3397
 9677TIP3    H150446   6.422   2.279   3.065 -0.4368 -1.9546  0.3534
 9677TIP3    H250447   6.443   2.261   3.214  0.4365  1.1661  0.6501
 9678TIP3   OH250448   2.169   3.535  15.361  1.0640  0.0816  0.5419
 9678TIP3    H150449   2.157   3.619  15.318  0.5454  0.9730  2.3771
 9678TIP3    H250450   2.171   3.556  15.455 -1.6833 -2.2354  1.1785
 9679TIP3   OH250451   0.504   1.802   6.672 -0.3888 -0.3452  0.0379
 9679TIP3    H150452   0.599   1.817   6.668 -0.4220  0.0053  0.4713
 9679TIP3    H250453   0.494   1.719   6.719 -0.3243  0.0678  0.7944
 9680TIP3   OH250454   5.435   0.929   6.229 -0.4775  1.0168  0.0162
 9680TIP3    H150455   5.527   0.943   6.249 -0.7190  0.9976  1.1653
 9680TIP3    H250456   5.398   0.892   6.309 -1.0536 -0.9114 -1.1122
 9681TIP3   OH250457   5.230   2.776   1.023 -0.2424 -0.3870  0.4328
 9681TIP3    H150458   5.230   2.827   1.104 -0.5006  0.6042 -0.1853
 9681TIP3    H250459   5.165   2.819   0.968 -0.7723 -1.6481  0.0660
 9682TIP3   OH250460   6.560   5.018  16.557 -0.3615  0.4850 -0.0850
 9682TIP3    H150461   6.606   4.979  16.483 -0.8456  0.2555 -0.2647
 9682TIP3    H250462   6.497   4.951  16.584  0.1409  0.3794  0.8405
 9683TIP3   OH250463   5.899   1.200   4.197 -0.0272 -0.3396 -0.1117
 9683TIP3    H150464   5.969   1.152   4.152  0.3220 -1.1296  1.2695
 9683TIP3    H250465   5.828   1.136   4.207 -0.9356  0.4296 -1.4163
 9684TIP3   OH250466   5.922   3.663   4.601  0.1910  0.4377 -0.3838
 9684TIP3    H150467   5.961   3.659   4.688  3.8501 -0.6043 -1.9711
 9684TIP3    H250468   5.910   3.572   4.575  1.4584  0.6747 -1.9196
 9685TIP3   OH250469   0.599   5.356  12.730 -0.8683 -0.4384 -0.1393
 9685TIP3    H150470   0.594   5.338  12.824  2.4785  0.5051  0.3023
 9685TIP3    H250471   0.616   5.271  12.690 -0.6827 -0.6024  0.2853
 9686TIP3   OH250472   3.993   1.290  16.464  0.7257 -0.5072 -0.1041
 9686TIP3    H150473   4.013   1.281  16.371 -2.4519 -2.3615 -0.6771
 9686TIP3    H250474   3.973   1.383  16.476  0.8535 -0.3140 -1.3413
 9687TIP3   OH250475   0.665   0.490  16.420 -0.2207  0.2027  0.2289
 9687TIP3    H150476   0.618   0.565  16.457 -0.5475 -0.1087  0.4459
 9687TIP3    H250477   0.629   0.414  16.467 -0.3094 -0.1456 -0.4090
 9688TIP3   OH250478   1.358   4.813  17.000  0.9094  0.7324  0.2241
 9688TIP3    H150479   1.402   4.861  17.069  1.3259 -1.1305  1.3012
 9688TIP3    H250480   1.355   4.723  17.031 -0.1834  0.1085 -1.5548
 9689TIP3   OH250481   2.117   3.373   2.493  0.3536 -0.1860 -0.1507
 9689TIP3    H150482   2.070   3.454   2.511 -1.0004 -0.8006 -0.8117
 9689TIP3    H250483   2.165   3.391   2.413  0.5138  0.1471  0.0176
 9690TIP3   OH250484   1.092   1.333  16.661  0.0826 -0.0596  0.6707
 9690TIP3    H150485   1.034   1.366  16.593 -0.2286 -1.0315  0.4512
 9690TIP3    H250486   1.171   1.305  16.615 -0.1152 -0.6882  0.7082
 9691TIP3   OH250487   4.350   5.694   1.910  0.5483 -0.3111  0.6742
 9691TIP3    H150488   4.320   5.632   1.976 -0.6466  0.3007  0.7134
 9691TIP3    H250489   4.431   5.730   1.946  1.0393 -1.5495  0.8287
 9692TIP3   OH250490   5.594   4.799   5.050 -0.3603 -0.0088  0.0565
 9692TIP3    H150491   5.670   4.763   5.005 -0.2542  0.8072 -0.4339
 9692TIP3    H250492   5.528   4.729   5.047  0.2582 -0.5937  0.1932
 9693TIP3   OH250493   5.957   2.762   1.141 -0.6582 -0.6160  0.2044
 9693TIP3    H150494   5.963   2.827   1.071  0.4834 -1.3630 -0.3990
 9693TIP3    H250495   5.971   2.678   1.098 -0.0345 -1.0980  1.3076
 9694TIP3   OH250496   1.155   4.873   4.291 -0.2180  0.8360 -0.8686
 9694TIP3    H150497   1.096   4.904   4.360 -1.2727 -1.1778 -0.8321
 9694TIP3    H250498   1.191   4.791   4.325  0.6584  0.7536 -1.9552
 9695TIP3   OH250499   1.781   1.232  14.158  0.1564  0.7792  0.3416
 9695TIP3    H150500   1.822   1.228  14.244  1.0196  0.5094 -0.0743
 9695TIP3    H250501   1.795   1.144  14.121  0.8659  1.2666 -0.5567
 9696TIP3   OH250502   6.682   2.102  15.259 -0.1501 -0.4006 -0.0115
 9696TIP3    H150503   6.681   2.007  15.249  1.0231 -0.2911 -1.4311
 9696TIP3    H250504   6.736   2.133  15.186 -0.4551  1.3481  0.4789
 9697TIP3   OH250505   1.201   6.064  11.144 -0.1286 -0.1078  0.1882
 9697TIP3    H150506   1.159   6.002  11.204 -1.3006  0.8673  0.3938
 9697TIP3    H250507   1.290   6.072  11.176  0.5794 -3.0068 -0.8590
 9698TIP3   OH250508   5.506   1.074  15.416  0.5537 -0.5629  0.4271
 9698TIP3    H150509   5.489   1.111  15.329  0.2028 -1.3958  0.1434
 9698TIP3    H250510   5.510   1.151  15.474  1.1191  0.0224 -0.3701
 9699TIP3   OH250511   0.355   3.623   3.721  0.2167 -0.2556  0.1760
 9699TIP3    H150512   0.423   3.615   3.655  0.0057  1.6294 -0.2888
 9699TIP3    H250513   0.345   3.534   3.756  1.9708 -0.8034 -0.6654
 9700TIP3   OH250514   5.586   0.752  13.802  0.4918 -0.3431 -0.9417
 9700TIP3    H150515   5.593   0.676  13.860  1.0525 -0.0294 -0.5886
 9700TIP3    H250516   5.493   0.760  13.785  0.2885 -0.2847  0.1358
 9701TIP3   OH250517   1.441   3.602   0.626  0.1546  0.6545  0.3181
 9701TIP3    H150518   1.496   3.624   0.551 -0.4394  0.8452 -0.0618
 9701TIP3    H250519   1.497   3.548   0.681  1.0655  1.6771  0.4259
 9702TIP3   OH250520   1.371   0.885  11.590 -0.2737  0.5032  0.0729
 9702TIP3    H150521   1.427   0.868  11.514 -2.6170  2.0378 -2.1242
 9702TIP3    H250522   1.431   0.913  11.659  1.8460 -0.1183 -1.4621
 9703TIP3   OH250523   1.977   6.557   3.121  0.3503 -0.1481  0.0841
 9703TIP3    H150524   2.065   6.579   3.152  0.3512 -1.1882  0.8556
 9703TIP3    H250525   1.972   6.595   3.033  1.0770  1.0960  0.5631
 9704TIP3   OH250526   4.044   5.362  13.169  0.1393  1.0459  0.0975
 9704TIP3    H150527   4.022   5.292  13.230 -1.1670  2.3889  1.2063
 9704TIP3    H250528   3.983   5.350  13.096  1.4455 -0.3252 -0.8089
 9705TIP3   OH250529   5.057   3.984  14.475  0.4202  0.0834 -0.4598
 9705TIP3    H150530   5.037   3.905  14.526 -0.4521  0.7868  0.2955
 9705TIP3    H250531   5.141   4.014  14.509  1.4887 -1.3526 -1.7727
 9706TIP3   OH250532   6.695   2.942  17.139  0.3156  0.4719  0.0269
 9706TIP3    H150533   6.638   2.888  17.194  0.4294  0.5219  0.1959
 9706TIP3    H250534   6.656   2.938  17.052 -0.7870  1.6741  0.4490
 9707TIP3   OH250535   1.494   1.536  12.749  0.4941  0.1565  0.2246
 9707TIP3    H150536   1.405   1.545  12.716  0.0045 -0.6211  1.3058
 9707TIP3    H250537   1.523   1.625  12.764  0.7840  0.5519 -2.3904
 9708TIP3   OH250538   3.344   1.151  13.301  0.0951 -0.4282  0.2491
 9708TIP3    H150539   3.271   1.093  13.281  0.1151 -0.0786 -0.8366
 9708TIP3    H250540   3.339   1.220  13.235  0.1228  0.7601  1.4698
 9709TIP3   OH250541   4.777   5.838  16.553 -0.2534  0.4347 -0.6025
 9709TIP3    H150542   4.785   5.859  16.460 -0.4280  0.6209 -0.5754
 9709TIP3    H250543   4.786   5.743  16.557 -4.5626 -0.1023 -1.2870
 9710TIP3   OH250544   5.926   0.592   4.217 -0.3320 -0.7274  0.4381
 9710TIP3    H150545   5.838   0.575   4.185 -1.0655  0.7476  1.6393
 9710TIP3    H250546   5.914   0.615   4.309  1.2909 -0.2879  0.5526
 9711TIP3   OH250547   6.633   4.899   0.897 -0.2790 -0.6622  0.5531
 9711TIP3    H150548   6.687   4.940   0.964  0.2764  0.5535 -0.6052
 9711TIP3    H250549   6.651   4.950   0.818 -3.7770  0.2868  0.3288
 9712TIP3   OH250550   4.355   0.998   6.016  0.3624  0.5559 -0.0448
 9712TIP3    H150551   4.357   1.010   6.111 -0.3433  0.3747 -0.0082
 9712TIP3    H250552   4.268   0.962   5.998  1.6384 -2.4916 -0.4020
 9713TIP3   OH250553   6.744   1.203  16.670 -0.3067  0.1541  0.0355
 9713TIP3    H150554   6.691   1.241  16.600 -2.2292 -1.1853  0.7182
 9713TIP3    H250555   6.738   1.108  16.655  1.2000 -0.0355  0.6271
 9714TIP3   OH250556   3.026   5.285   0.892 -0.3406 -0.4644  0.4138
 9714TIP3    H150557   2.990   5.206   0.851  0.0767 -0.6420  0.3962
 9714TIP3    H250558   3.052   5.341   0.819  0.5434 -0.8443  0.4325
 9715TIP3   OH250559   0.086   0.846   1.417  0.0238 -0.2796 -0.6426
 9715TIP3    H150560   0.160   0.891   1.456  1.1383 -2.5254 -0.0767
 9715TIP3    H250561   0.103   0.849   1.323  0.8425 -0.8006 -0.5141
 9716TIP3   OH250562   4.997   3.682  12.757 -0.3135 -0.0607  0.4315
 9716TIP3    H150563   5.051   3.644  12.827 -1.1281 -1.4217  0.3246
 9716TIP3    H250564   5.028   3.641  12.677  0.0924  0.9247  0.0753
 9717TIP3   OH250565   2.063   2.130   1.572 -0.0715 -0.7169  0.2018
 9717TIP3    H150566   2.101   2.049   1.605 -0.2097 -0.0351  2.1489
 9717TIP3    H250567   2.028   2.173   1.651  1.3345  1.9374 -0.5755
 9718TIP3   OH250568   6.586   5.666  11.110 -0.0873 -0.0033 -0.4276
 9718TIP3    H150569   6.559   5.574  11.103 -1.8344  0.3224  1.5678
 9718TIP3    H250570   6.515   5.715  11.068 -1.7382  0.7244  3.0163
 9719TIP3   OH250571   4.792   3.888  11.629 -0.3101 -0.4568  0.0511
 9719TIP3    H150572   4.872   3.894  11.681  0.0021  0.7894 -0.5729
 9719TIP3    H250573   4.816   3.924  11.543 -1.8281  0.9772  0.2054
 9720TIP3   OH250574   4.192   0.663  13.356  0.2075 -0.0975 -0.4962
 9720TIP3    H150575   4.267   0.719  13.377  0.2312 -1.0399  2.0798
 9720TIP3    H250576   4.169   0.622  13.439 -1.4646 -1.9162 -1.8215
 9721TIP3   OH250577   3.528   2.983  16.857  0.1475  0.1424  0.4557
 9721TIP3    H150578   3.617   2.988  16.824  0.0782  0.9351  0.3800
 9721TIP3    H250579   3.500   2.893  16.838  0.7837  0.0191  0.1113
 9722TIP3   OH250580   4.122   1.558   0.719 -0.3055  0.0941  0.1096
 9722TIP3    H150581   4.126   1.481   0.777  1.0562  0.1891  0.1465
 9722TIP3    H250582   4.033   1.591   0.730 -0.6131 -0.9359  0.8056
 9723TIP3   OH250583   6.209   5.778  16.242  0.2923 -0.2061 -0.1582
 9723TIP3    H150584   6.122   5.739  16.240 -0.0686  0.6368 -1.6428
 9723TIP3    H250585   6.194   5.871  16.256  0.7759  0.3500 -2.9619
 9724TIP3   OH250586   4.576   2.555   0.551  0.6457  0.0306  0.4579
 9724TIP3    H150587   4.565   2.584   0.642 -2.8813 -2.7347  1.0278
 9724TIP3    H250588   4.624   2.473   0.558 -0.0577 -0.4391 -0.1232
 9725TIP3   OH250589   3.636   2.729   0.019 -0.3478  0.3025 -0.5147
 9725TIP3    H150590   3.626   2.735   0.114 -1.3641 -0.1670 -0.5936
 9725TIP3    H250591   3.581   2.656  -0.007  0.6305 -0.1409 -1.3673
 9726TIP3   OH250592   4.882   5.982  15.916 -0.2611 -0.1816 -0.8451
 9726TIP3    H150593   4.948   6.051  15.926 -1.0359  0.5637 -0.7606
 9726TIP3    H250594   4.832   5.986  15.997 -1.9017  0.8662 -1.8931
 9727TIP3   OH250595   4.167   0.103   5.455  0.2992  0.0670  0.5538
 9727TIP3    H150596   4.200   0.013   5.462 -0.8453 -0.3986  0.0850
 9727TIP3    H250597   4.239   0.152   5.416  0.2678 -1.0354 -0.9053
 9728TIP3   OH250598   1.233   4.413  12.042  0.1188  0.4472  0.1583
 9728TIP3    H150599   1.142   4.440  12.053  0.5043  2.0879 -0.4456
 9728TIP3    H250600   1.240   4.391  11.949  0.2952  0.1799  0.2366
 9729TIP3   OH250601   5.320   1.505   3.307  0.3109  0.2560  0.6994
 9729TIP3    H150602   5.359   1.591   3.293 -0.4028  0.3650 -0.6852
 9729TIP3    H250603   5.307   1.500   3.402 -0.0094  1.8417  0.7569
 9730TIP3   OH250604   3.667   2.251  11.951 -0.2315  0.0767 -0.0059
 9730TIP3    H150605   3.667   2.218  11.861  1.7653  2.6785 -1.0410
 9730TIP3    H250606   3.740   2.208  11.993  0.3054  0.6317 -0.3589
 9731TIP3   OH250607   3.236   6.031   2.322  1.0604  0.6282  0.2273
 9731TIP3    H150608   3.142   6.045   2.325  1.5045  4.1321  0.1250
 9731TIP3    H250609   3.246   5.938   2.300 -2.3251 -0.0332  1.1859
 9732TIP3   OH250610   1.926   1.296  16.778 -0.2579  0.0921  0.5150
 9732TIP3    H150611   1.844   1.252  16.802  0.3842 -2.5264 -1.9626
 9732TIP3    H250612   1.902   1.352  16.704 -0.0268  0.1798  0.5056
 9733TIP3   OH250613   2.657   4.721   1.204  0.0730 -0.3737  0.1186
 9733TIP3    H150614   2.684   4.812   1.218  0.4713 -0.4801  0.0405
 9733TIP3    H250615   2.619   4.720   1.116  2.4837 -0.8332 -0.9555
 9734TIP3   OH250616   0.923   5.353  16.341 -0.2729 -0.7105  0.0135
 9734TIP3    H150617   0.992   5.315  16.395  0.5034  0.1755 -0.3352
 9734TIP3    H250618   0.968   5.420  16.289 -1.5551  0.4417  0.3760
 9735TIP3   OH250619   5.637   2.087  15.117 -0.5143 -0.1842  0.0825
 9735TIP3    H150620   5.647   2.006  15.068  1.7205  0.1045 -0.0143
 9735TIP3    H250621   5.659   2.156  15.054  0.0003  0.3333  0.8113
 9736TIP3   OH250622   1.289   4.501  17.027  0.0493  0.4948  0.1021
 9736TIP3    H150623   1.353   4.478  16.959  0.2693 -0.7055  0.7036
 9736TIP3    H250624   1.207   4.514  16.979  0.4722  0.8871 -0.5311
 9737TIP3   OH250625   4.740   5.284   1.202 -0.1318  0.3724 -0.2436
 9737TIP3    H150626   4.727   5.189   1.198 -0.0532  0.4175 -1.6065
 9737TIP3    H250627   4.834   5.294   1.214 -0.1583  0.2833  0.0613
 9738TIP3   OH250628   0.240   2.764   5.300 -0.5938  0.0890  0.2300
 9738TIP3    H150629   0.199   2.843   5.335 -1.1094 -1.1613  2.5972
 9738TIP3    H250630   0.166   2.713   5.265 -0.6440 -0.5410  1.2130
 9739TIP3   OH250631   3.057   1.967  15.856  0.2081 -0.2752  0.8276
 9739TIP3    H150632   3.125   1.914  15.815 -0.5923 -0.4716 -0.2694
 9739TIP3    H250633   3.050   2.044  15.800  1.6032  1.1801  2.5922
 9740TIP3   OH250634   1.126   1.112   2.084 -0.0163 -0.0144 -0.1646
 9740TIP3    H150635   1.113   1.141   2.174 -2.2181 -0.6400 -0.2648
 9740TIP3    H250636   1.041   1.122   2.043  0.8079 -0.3773 -2.0018
 9741TIP3   OH250637   5.672   3.354  14.799  0.1354  0.2344  0.0046
 9741TIP3    H150638   5.746   3.299  14.824  0.4844  1.6702  2.3181
 9741TIP3    H250639   5.596   3.309  14.836  0.3880  1.1302  1.6459
 9742TIP3   OH250640   0.794   0.221  15.037 -0.3989 -0.1094  0.2621
 9742TIP3    H150641   0.880   0.243  15.072  0.4092 -0.9183 -1.1958
 9742TIP3    H250642   0.791   0.265  14.952 -0.6318 -1.7081 -0.5765
 9743TIP3   OH250643   5.986   1.325   0.551  0.1629 -0.4775  0.5002
 9743TIP3    H150644   6.021   1.357   0.468 -0.8023 -0.1157  0.2251
 9743TIP3    H250645   6.061   1.285   0.595  1.1136  1.0662  0.3136
 9744TIP3   OH250646   3.767   4.700   2.037  0.2628  0.9303  0.0879
 9744TIP3    H150647   3.804   4.698   2.125  0.4606  1.0853  0.0092
 9744TIP3    H250648   3.703   4.629   2.036  1.5506 -0.2413 -0.2187
 9745TIP3   OH250649   1.933   2.486  13.468 -0.4372 -0.1808 -0.4790
 9745TIP3    H150650   1.907   2.578  13.473  0.0094  0.0082 -1.5512
 9745TIP3    H250651   1.884   2.444  13.539  0.2971  1.0905  0.7965
 9746TIP3   OH250652   0.926   1.422  11.882  0.1359  0.2437  0.0657
 9746TIP3    H150653   0.876   1.486  11.833  0.0006 -0.1290 -0.2860
 9746TIP3    H250654   0.997   1.395  11.823  0.2745  0.1729  0.2608
 9747TIP3   OH250655   5.084   2.843   3.459  0.5026 -0.0626  0.2528
 9747TIP3    H150656   5.155   2.831   3.521 -0.3722  1.2243  1.5409
 9747TIP3    H250657   5.122   2.897   3.389  0.9286  0.1896  0.6763
 9748TIP3   OH250658   5.839   3.880   2.014  0.3596  0.7273  0.4387
 9748TIP3    H150659   5.839   3.913   2.104 -2.5106 -1.9330  1.5053
 9748TIP3    H250660   5.863   3.788   2.023  0.8065  0.6094 -1.6439
 9749TIP3   OH250661   5.588   3.147   2.769 -0.6545  0.0122 -0.4444
 9749TIP3    H150662   5.552   3.213   2.710 -1.3464  1.2187  1.2833
 9749TIP3    H250663   5.519   3.133   2.835  1.8277  2.1038  2.7347
 9750TIP3   OH250664   6.117   6.368  12.522 -0.4502 -0.0059  0.7301
 9750TIP3    H150665   6.201   6.413  12.511 -0.1540 -1.0512 -1.7406
 9750TIP3    H250666   6.133   6.304  12.591  0.4671  0.5129  1.0152
 9751TIP3   OH250667   3.140   5.251   4.632 -0.0345  0.5083 -0.1138
 9751TIP3    H150668   3.130   5.184   4.564 -0.1306 -0.1500  0.5533
 9751TIP3    H250669   3.223   5.229   4.675  1.3382  2.4250 -1.6828
 9752TIP3   OH250670   6.185   0.800  12.860  0.0409 -0.4466 -0.1279
 9752TIP3    H150671   6.102   0.817  12.905  0.4017 -0.0603  0.3931
 9752TIP3    H250672   6.181   0.855  12.781 -0.5090 -0.9834 -0.4811
 9753TIP3   OH250673   6.737   0.611   1.886 -0.7114  0.4980 -0.0063
 9753TIP3    H150674   6.742   0.548   1.815 -0.6271  0.6872 -0.1695
 9753TIP3    H250675   6.643   0.628   1.897 -0.7754 -0.1305  0.4619
 9754TIP3   OH250676   0.403   3.944  14.980 -0.3164 -0.2416  0.3701
 9754TIP3    H150677   0.320   3.976  14.946 -1.4496 -1.9792  1.4337
 9754TIP3    H250678   0.466   4.013  14.958 -1.8016  0.5791 -1.4398
 9755TIP3   OH250679   4.251   4.659  16.988  0.5201 -0.6254  0.0903
 9755TIP3    H150680   4.315   4.588  16.994 -0.2737 -1.4829 -1.3197
 9755TIP3    H250681   4.183   4.635  17.051  0.4745 -0.8764 -0.0552
 9756TIP3   OH250682   5.005   2.929  13.929  0.1634 -0.7343  0.3971
 9756TIP3    H150683   4.977   2.993  13.863  2.0071  0.1489  0.4559
 9756TIP3    H250684   5.040   2.982  14.001  0.8310 -1.7742  0.8467
 9757TIP3   OH250685   4.446   5.441  14.039  0.2757 -0.0832  0.5823
 9757TIP3    H150686   4.517   5.400  13.990  0.9327  0.6441  0.9284
 9757TIP3    H250687   4.403   5.498  13.976 -0.4363 -1.0269  0.1883
 9758TIP3   OH250688   5.202   1.347  11.255  0.2350  0.3699 -0.1975
 9758TIP3    H150689   5.270   1.414  11.265 -0.2298  0.8551 -0.2458
 9758TIP3    H250690   5.212   1.316  11.165  1.4094 -0.6862  0.2850
 9759TIP3   OH250691   6.010   4.920  16.290 -0.4712  0.4980  0.4242
 9759TIP3    H150692   5.971   5.007  16.299  1.1684  1.2659  0.1284
 9759TIP3    H250693   5.938   4.860  16.313 -1.6990  1.8985  0.3511
 9760TIP3   OH250694   2.861   1.676  16.112 -0.1058 -0.0064 -0.1109
 9760TIP3    H150695   2.852   1.650  16.020 -1.8400  0.8285 -0.1967
 9760TIP3    H250696   2.822   1.763  16.116 -1.5949 -0.7190  1.7398
 9761TIP3   OH250697   4.503   1.645   5.589 -0.0997 -0.1015 -0.0317
 9761TIP3    H150698   4.535   1.680   5.673 -0.9362 -0.9573  0.6637
 9761TIP3    H250699   4.478   1.723   5.539 -1.3317  0.3623  1.2536
 9762TIP3   OH250700   4.360   3.443   3.032  0.3263  0.0086 -0.1494
 9762TIP3    H150701   4.433   3.502   3.016  0.3851 -0.1766 -0.5895
 9762TIP3    H250702   4.313   3.481   3.106  2.1627 -1.0861  1.6233
 9763TIP3   OH250703   0.113   6.382   3.825  0.2851  0.0015  0.5555
 9763TIP3    H150704   0.198   6.400   3.784  2.0116 -1.0264  3.5200
 9763TIP3    H250705   0.083   6.301   3.784 -0.2025  1.3326 -1.8307
 9764TIP3   OH250706   5.863   1.587   3.095  0.3353  0.2714  0.0406
 9764TIP3    H150707   5.770   1.605   3.113  0.0748 -1.2887  0.3517
 9764TIP3    H250708   5.910   1.637   3.161 -0.1513  2.9293 -1.5225
 9765TIP3   OH250709   1.569   5.386  12.593  0.0841  0.0625  0.6728
 9765TIP3    H150710   1.629   5.337  12.537 -2.1184 -1.7225 -0.2193
 9765TIP3    H250711   1.562   5.333  12.673 -0.9817 -0.1876  0.4135
 9766TIP3   OH250712   6.297   3.645   4.949  0.0199 -0.3176  0.8337
 9766TIP3    H150713   6.277   3.673   5.038 -1.7902  0.3825  0.2356
 9766TIP3    H250714   6.219   3.597   4.921 -0.6859  2.0031 -1.3837
 9767TIP3   OH250715   3.106   1.601  12.240 -0.2612 -0.3246 -0.3903
 9767TIP3    H150716   3.089   1.573  12.330  1.9209  1.0711  0.5022
 9767TIP3    H250717   3.135   1.521  12.196  0.8052 -0.5829  0.7385
 9768TIP3   OH250718   2.884   3.030   4.618  0.1850 -0.3184 -0.0390
 9768TIP3    H150719   2.808   2.971   4.613  0.5961 -0.8771  0.1778
 9768TIP3    H250720   2.882   3.064   4.707  0.6282 -0.9402  0.2148
 9769TIP3   OH250721   2.983   6.219  11.032  0.0385  0.2087  0.8657
 9769TIP3    H150722   3.045   6.262  10.973  0.5641 -0.5545  0.8711
 9769TIP3    H250723   2.954   6.141  10.984 -0.4037  0.1966  1.1474
 9770TIP3   OH250724   1.282   4.772   0.112 -0.1134 -0.0377  0.2153
 9770TIP3    H150725   1.205   4.744   0.063  0.7199  0.0609 -1.1814
 9770TIP3    H250726   1.270   4.735   0.199 -0.8334 -1.5733 -0.5268
 9771TIP3   OH250727   1.074   6.412  12.530 -0.2919  0.2947 -0.5967
 9771TIP3    H150728   1.148   6.358  12.501 -0.8233 -0.0436 -1.3092
 9771TIP3    H250729   1.056   6.471  12.457 -1.1352 -0.0439 -0.6666
 9772TIP3   OH250730   5.657   3.140  11.024  0.1016  0.6541 -0.3384
 9772TIP3    H150731   5.681   3.192  10.947 -1.5062  1.6887 -0.1669
 9772TIP3    H250732   5.634   3.054  10.989  1.3293  0.4948 -0.7862
 9773TIP3   OH250733   0.888   3.079   2.046 -0.2327  0.2088  0.1044
 9773TIP3    H150734   0.947   3.005   2.064 -0.0537  0.5254  0.8343
 9773TIP3    H250735   0.814   3.039   2.001  0.3373 -0.2635 -0.4340
 9774TIP3   OH250736   1.396   4.852  14.068  0.0476  0.1041  0.8455
 9774TIP3    H150737   1.420   4.764  14.040  1.0990  0.8556 -0.6926
 9774TIP3    H250738   1.469   4.880  14.124 -0.6030 -0.2463  1.8785
 9775TIP3   OH250739   3.296   5.635   5.597 -0.0098  0.0851  0.1701
 9775TIP3    H150740   3.273   5.622   5.688  0.1339 -0.5832  0.1104
 9775TIP3    H250741   3.238   5.705   5.567  0.0170  0.3731  0.7990
 9776TIP3   OH250742   3.828   1.462   3.910 -0.4181  0.7206 -0.0730
 9776TIP3    H150743   3.778   1.482   3.989  0.4072  1.6248  0.2395
 9776TIP3    H250744   3.916   1.494   3.929  0.6192 -1.9134 -0.1383
 9777TIP3   OH250745   1.923   2.084  14.669  0.2946  0.5418 -0.0243
 9777TIP3    H150746   1.896   2.038  14.749 -0.5212  0.3861 -0.3868
 9777TIP3    H250747   1.934   2.175  14.696  1.5798  0.2053  0.6208
 9778TIP3   OH250748   3.833   5.342  16.711 -0.1841 -0.4863  0.3784
 9778TIP3    H150749   3.854   5.351  16.804  1.0928  1.1496 -0.0378
 9778TIP3    H250750   3.897   5.279  16.678  0.3046  0.0354  0.3191
 9779TIP3   OH250751   1.986   3.647  14.464 -0.0604 -0.2303  0.0285
 9779TIP3    H150752   1.926   3.589  14.510 -0.0665  1.1790  1.8425
 9779TIP3    H250753   2.042   3.683  14.533  0.5570  1.1944 -1.1951
 9780TIP3   OH250754   1.602   5.596   5.063  0.3299  0.5328  0.0434
 9780TIP3    H150755   1.682   5.563   5.023 -0.0817 -0.6493  0.1448
 9780TIP3    H250756   1.548   5.517   5.076  0.1095  1.0007  2.1313
 9781TIP3   OH250757   5.511   4.975   2.808  0.3076 -0.3103 -0.5061
 9781TIP3    H150758   5.597   4.968   2.767  1.0630 -2.6304  1.3606
 9781TIP3    H250759   5.525   5.035   2.882 -0.2472  1.1266 -1.5383
 9782TIP3   OH250760   3.606   5.104  16.393 -0.1373  0.7836  0.3333
 9782TIP3    H150761   3.565   5.147  16.318 -1.3527 -1.4443 -0.3291
 9782TIP3    H250762   3.593   5.165  16.465 -2.9880  0.9970 -0.2860
 9783TIP3   OH250763   1.590   0.099  12.263  0.6553  0.5844  0.1386
 9783TIP3    H150764   1.532   0.175  12.265 -0.0656  0.0141  2.8053
 9783TIP3    H250765   1.566   0.053  12.182 -0.9801  1.6082  0.0149
 9784TIP3   OH250766   3.533   5.447  13.667 -0.0904 -0.0142 -0.0470
 9784TIP3    H150767   3.526   5.479  13.577 -3.3103 -0.2503  0.0688
 9784TIP3    H250768   3.604   5.499  13.705 -0.0600  1.5325 -2.1313
 9785TIP3   OH250769   2.015   6.323   0.683 -0.3704  0.2916 -0.6584
 9785TIP3    H150770   1.957   6.374   0.626 -1.0805  0.7360  0.4591
 9785TIP3    H250771   1.997   6.356   0.771 -0.0161 -1.1027 -0.0601
 9786TIP3   OH250772   1.701   6.301   3.416 -0.2440 -0.3178 -0.0098
 9786TIP3    H150773   1.691   6.213   3.380 -0.3950 -0.0640 -0.5988
 9786TIP3    H250774   1.614   6.322   3.450 -0.2061 -0.3978  0.1372
 9787TIP3   OH250775   4.480   6.074   2.054  0.0927 -0.0259  0.3708
 9787TIP3    H150776   4.491   6.027   1.972 -1.1087  3.1615 -1.6971
 9787TIP3    H250777   4.569   6.092   2.085  0.5471 -0.9332 -0.4076
 9788TIP3   OH250778   5.467   0.032  14.550  0.0706 -0.7665 -0.1414
 9788TIP3    H150779   5.374   0.047  14.566  0.2010 -0.8033  0.6686
 9788TIP3    H250780   5.499  -0.009  14.630  1.2987  1.4633  0.5518
 9789TIP3   OH250781   4.396   3.609  13.772 -0.7703  0.0534 -0.4253
 9789TIP3    H150782   4.430   3.582  13.857  1.8620 -0.6408 -1.6539
 9789TIP3    H250783   4.366   3.699  13.785 -0.4734 -0.0834  1.2522
 9790TIP3   OH250784   1.703   6.531  11.515  0.7291  0.0186 -0.4608
 9790TIP3    H150785   1.753   6.575  11.446  1.4640 -1.6515 -1.0023
 9790TIP3    H250786   1.612   6.548  11.493  0.9869  0.4604 -1.1939
 9791TIP3   OH250787   0.909   3.707   5.233 -0.4252 -0.5853 -0.3669
 9791TIP3    H150788   0.836   3.661   5.274 -0.8778 -1.1290 -1.7640
 9791TIP3    H250789   0.887   3.800   5.241  0.8037 -0.5130  3.0597
 9792TIP3   OH250790   6.036   0.371   6.060 -0.1657 -0.3089 -0.5517
 9792TIP3    H150791   6.125   0.370   6.026  0.0559  1.7445 -0.0505
 9792TIP3    H250792   6.025   0.284   6.099  2.0790 -0.1337  0.5645
 9793TIP3   OH250793   4.850   4.621  11.100  0.4098 -0.1682  0.3015
 9793TIP3    H150794   4.768   4.628  11.053  1.0174  0.6535 -0.6443
 9793TIP3    H250795   4.906   4.569  11.042  1.3643  1.3761 -0.1767
 9794TIP3   OH250796   2.725   3.672   6.605  0.2664  0.4514 -0.7926
 9794TIP3    H150797   2.772   3.592   6.582  2.0984  0.2751  3.1316
 9794TIP3    H250798   2.774   3.743   6.564  1.7038 -0.0582  0.0294
 9795TIP3   OH250799   6.575   4.501   4.806 -0.4339  0.4330  0.2805
 9795TIP3    H150800   6.571   4.536   4.895 -1.5840  0.2715  0.2911
 9795TIP3    H250801   6.494   4.452   4.795  1.2707 -2.5069  0.3698
 9796TIP3   OH250802   4.240   6.259   0.838  0.1121 -0.1201 -0.7921
 9796TIP3    H150803   4.296   6.183   0.830 -0.2094 -0.6377  1.6067
 9796TIP3    H250804   4.248   6.286   0.929 -0.8254  1.9063 -1.2730
 9797TIP3   OH250805   5.505   6.776  12.850  0.3630 -0.0733 -0.6355
 9797TIP3    H150806   5.556   6.745  12.924 -0.6060 -0.2553 -0.0349
 9797TIP3    H250807   5.489   6.697  12.797  0.8748  0.0187 -0.9261
 9798TIP3   OH250808   2.185   1.723   5.633  0.4533 -0.4711  0.4012
 9798TIP3    H150809   2.189   1.677   5.549  0.4431  0.3515 -0.0552
 9798TIP3    H250810   2.104   1.692   5.673 -1.3431  1.7452 -1.4272
 9799TIP3   OH250811   0.035   2.210  15.031 -0.4314  0.3587  0.6168
 9799TIP3    H150812  -0.040   2.261  15.000  0.6992  1.4634 -0.3502
 9799TIP3    H250813   0.097   2.276  15.064  0.1618 -0.5340  1.3301
 9800TIP3   OH250814   4.056   2.080  11.542 -0.2025 -0.0880  0.2364
 9800TIP3    H150815   3.990   2.138  11.503 -0.5395  0.1364  1.1407
 9800TIP3    H250816   4.007   2.024  11.601  0.4227  0.0864  0.9272
 9801TIP3   OH250817   5.073   0.517   3.766 -0.5007 -0.1213  0.0518
 9801TIP3    H150818   5.019   0.450   3.724 -0.4553  0.4780 -0.9968
 9801TIP3    H250819   5.127   0.552   3.695 -0.9019  1.3746  0.4609
 9802TIP3   OH250820   1.997   1.360   5.129 -0.3294  0.0189  0.3177
 9802TIP3    H150821   1.990   1.417   5.052 -0.4048  0.1487  0.4221
 9802TIP3    H250822   2.091   1.358   5.149 -0.0378 -1.6969 -1.0631
 9803TIP3   OH250823   0.613   1.503  14.901 -0.0489 -0.0876  0.4131
 9803TIP3    H150824   0.548   1.573  14.905 -0.5797 -0.5724  0.2413
 9803TIP3    H250825   0.645   1.506  14.810 -0.3051 -0.2861  0.3184
 9804TIP3   OH250826   5.204   4.399  12.159 -0.4357 -0.4220  0.5135
 9804TIP3    H150827   5.218   4.472  12.098 -2.2629 -0.3795  0.0980
 9804TIP3    H250828   5.212   4.439  12.245  0.5954 -0.1506  0.2974
 9805TIP3   OH250829   4.656   3.263  12.973 -0.4079  0.1245 -0.1998
 9805TIP3    H150830   4.662   3.311  12.890 -0.9110 -1.7455 -1.3572
 9805TIP3    H250831   4.566   3.231  12.974  0.0264 -1.0644  0.4029
 9806TIP3   OH250832   6.674   4.614  16.685  0.2040 -0.2373  0.1766
 9806TIP3    H150833   6.638   4.586  16.769 -0.7067  0.6516  0.0954
 9806TIP3    H250834   6.713   4.535  16.648  0.5890 -0.6406  1.4220
 9807TIP3   OH250835   0.884   2.393  10.820  0.1011 -0.2680  0.3995
 9807TIP3    H150836   0.899   2.475  10.773 -0.3791 -0.3155  0.1662
 9807TIP3    H250837   0.969   2.374  10.861 -0.3454  1.4017  2.1625
 9808TIP3   OH250838   0.610   5.019   2.459 -0.1186  0.1507  0.8377
 9808TIP3    H150839   0.687   5.013   2.402 -0.3536 -0.0867  0.5414
 9808TIP3    H250840   0.646   5.027   2.547  0.2497  0.4884  0.6629
 9809TIP3   OH250841   4.419   4.806   1.983  0.1936  0.1312  0.3609
 9809TIP3    H150842   4.486   4.746   1.951 -1.2148 -0.3618 -1.7477
 9809TIP3    H250843   4.424   4.882   1.925  1.0275  1.4860  2.1483
 9810TIP3   OH250844   0.407   2.917  17.237  0.0471 -0.2652 -0.3996
 9810TIP3    H150845   0.442   2.829  17.226 -0.8184 -0.8433  1.2586
 9810TIP3    H250846   0.368   2.939  17.152 -0.4217 -1.8012 -0.5904
 9811TIP3   OH250847   0.292   0.832  12.455 -0.3831 -0.2137 -0.2580
 9811TIP3    H150848   0.284   0.915  12.502  0.8522 -0.7848  1.0183
 9811TIP3    H250849   0.242   0.769  12.508 -1.9229 -0.1536 -1.6053
 9812TIP3   OH250850   0.436   5.277   2.875 -0.5736 -0.8518 -0.2817
 9812TIP3    H150851   0.405   5.296   2.964 -1.2699  2.0760 -1.1168
 9812TIP3    H250852   0.530   5.259   2.886 -0.2115  1.4968  0.8365
 9813TIP3   OH250853   5.581   0.251  12.887  0.3072  0.1074  0.4480
 9813TIP3    H150854   5.544   0.193  12.820 -0.4159  0.5554  0.4582
 9813TIP3    H250855   5.603   0.192  12.959 -1.9826  0.0408  1.1265
 9814TIP3   OH250856   2.749   2.812  16.766 -0.5021 -0.4830  0.2340
 9814TIP3    H150857   2.716   2.900  16.750 -2.2359 -1.1816 -0.1251
 9814TIP3    H250858   2.703   2.757  16.703  2.6555 -1.2563 -1.4934
 9815TIP3   OH250859   5.260   4.214  16.237 -0.1500 -0.2997 -0.7973
 9815TIP3    H150860   5.352   4.240  16.237 -0.5946  1.4097  0.9530
 9815TIP3    H250861   5.212   4.296  16.235 -1.6732 -1.1933 -2.4321
 9816TIP3   OH250862   2.409   1.675  11.362  0.2426 -0.1495  0.3212
 9816TIP3    H150863   2.418   1.769  11.350 -0.6853  0.0549  1.1469
 9816TIP3    H250864   2.480   1.637  11.311  2.7759  1.1448  2.8025
 9817TIP3   OH250865   5.444   2.399  16.789  0.4514 -0.2937  0.1034
 9817TIP3    H150866   5.461   2.312  16.825 -0.0549 -0.3822  0.1425
 9817TIP3    H250867   5.476   2.460  16.856 -2.1312 -0.4498  1.5506
 9818TIP3   OH250868   2.578   6.521  12.532 -0.7221 -0.7797  0.1579
 9818TIP3    H150869   2.599   6.598  12.480 -2.1530 -0.1642  0.4650
 9818TIP3    H250870   2.538   6.460  12.470 -0.3445 -0.9585  0.0850
 9819TIP3   OH250871   5.329   6.608  12.504  0.0730  0.0760  0.0566
 9819TIP3    H150872   5.399   6.631  12.442  1.3836 -2.4690  0.4903
 9819TIP3    H250873   5.315   6.687  12.556  1.9282  0.9462 -0.7305
 9820TIP3   OH250874   0.547   3.606  14.531  0.1606  0.3831 -0.1256
 9820TIP3    H150875   0.575   3.655  14.608 -1.1765  1.3441 -0.2340
 9820TIP3    H250876   0.549   3.669  14.459  0.2912 -0.2079 -0.6461
 9821TIP3   OH250877   3.420   1.683  11.571  0.2935  0.7904  0.2856
 9821TIP3    H150878   3.412   1.705  11.664  1.2917  2.5887 -0.0386
 9821TIP3    H250879   3.416   1.587  11.569  1.1563  0.6885  2.2628
 9822TIP3   OH250880   4.034   5.410   5.594 -0.2815  0.5175 -0.5298
 9822TIP3    H150881   4.092   5.468   5.545 -1.2363  1.1999 -0.8805
 9822TIP3    H250882   4.006   5.344   5.531  0.1803  0.1337 -0.3364
 9823TIP3   OH250883   0.178   2.843  14.490  0.7873 -0.4314 -0.1123
 9823TIP3    H150884   0.184   2.938  14.500 -0.8125 -0.1234 -1.8541
 9823TIP3    H250885   0.200   2.827  14.398 -1.7151 -1.4222 -0.5858
 9824TIP3   OH250886   0.229   4.043  10.720 -0.7534 -0.6045 -0.1032
 9824TIP3    H150887   0.291   3.972  10.706 -0.8950 -0.6619 -0.4562
 9824TIP3    H250888   0.186   4.054  10.635  0.1456  0.7311 -0.3952
 9825TIP3   OH250889   1.238   0.715  12.545  1.0445 -0.5101  0.6648
 9825TIP3    H150890   1.163   0.661  12.568  1.7019 -0.8279  2.0529
 9825TIP3    H250891   1.260   0.688  12.455 -2.3511  1.7028 -0.9332
 9826TIP3   OH250892   6.521   4.410  14.075 -0.6403  0.1037  0.3771
 9826TIP3    H150893   6.563   4.454  14.001  0.8140 -0.3445  0.9226
 9826TIP3    H250894   6.471   4.338  14.035 -0.1301  0.0641 -0.1971
 9827TIP3   OH250895   1.728   5.988   2.382  0.5331  0.4901  0.2528
 9827TIP3    H150896   1.678   6.061   2.347  0.1288  0.4717  0.7835
 9827TIP3    H250897   1.808   6.028   2.417  1.4269  0.3869 -1.5985
 9828TIP3   OH250898   2.877   6.196  16.436 -0.7053 -0.6353  0.2260
 9828TIP3    H150899   2.894   6.282  16.474  0.1344 -0.5133 -0.4072
 9828TIP3    H250900   2.957   6.175  16.389 -1.3582 -1.2280 -0.6327
 9829TIP3   OH250901   5.072   3.712  15.776 -0.1364  0.0078  0.5178
 9829TIP3    H150902   5.119   3.638  15.815  0.2629  0.3492  0.6870
 9829TIP3    H250903   5.049   3.768  15.850  1.9322  1.4079  0.1463
 9830TIP3   OH250904   5.424   5.268   4.936 -0.6598 -0.4647  0.1531
 9830TIP3    H150905   5.460   5.179   4.931 -1.2337 -0.7150  0.4572
 9830TIP3    H250906   5.500   5.325   4.924 -0.2001 -0.9920  0.5437
 9831TIP3   OH250907   4.265   1.994   5.915  0.1707 -0.0056 -0.2660
 9831TIP3    H150908   4.357   2.017   5.918  0.6585 -1.9773  0.7772
 9831TIP3    H250909   4.228   2.027   5.997 -0.2597  1.5176 -1.0499
 9832TIP3   OH250910   1.399   2.847  16.628 -0.2772 -0.8212 -0.2093
 9832TIP3    H150911   1.368   2.933  16.599 -0.8264 -1.3291 -1.1844
 9832TIP3    H250912   1.332   2.817  16.690 -0.7795 -1.0951 -0.8698
 9833TIP3   OH250913   6.361   6.059  11.733  0.0408  0.4625 -0.1706
 9833TIP3    H150914   6.340   6.022  11.648  0.1075 -1.0648  0.4560
 9833TIP3    H250915   6.278   6.061  11.780  0.1564  0.4950  0.0315
 9834TIP3   OH250916   6.241   0.711  16.002 -0.8143  0.5870 -0.0926
 9834TIP3    H150917   6.319   0.657  15.992 -1.3252 -0.2523  0.4553
 9834TIP3    H250918   6.168   0.649  16.003 -1.4586  1.3298 -0.1354
 9835TIP3   OH250919   4.017   4.586   0.251 -0.2395 -0.2461  0.0549
 9835TIP3    H150920   4.019   4.541   0.335 -0.2323 -1.1903 -0.4485
 9835TIP3    H250921   3.959   4.534   0.196  0.9557 -0.5042 -1.0043
 9836TIP3   OH250922   2.082   1.109  16.078  0.4170  0.1623  0.5380
 9836TIP3    H150923   2.004   1.126  16.130  0.5066 -0.8798  1.0245
 9836TIP3    H250924   2.149   1.165  16.117 -0.2596  1.6157 -0.3507
 9837TIP3   OH250925   1.995   2.278   5.001 -0.0906 -0.9299 -0.1734
 9837TIP3    H150926   1.902   2.284   5.022  0.3037 -0.2711  1.4746
 9837TIP3    H250927   2.000   2.296   4.907 -1.8531 -3.3038 -0.7908
 9838TIP3   OH250928   3.051   0.244   3.145 -0.3161  0.1152  0.4074
 9838TIP3    H150929   3.101   0.184   3.201  2.1069  1.1537 -0.5992
 9838TIP3    H250930   2.992   0.186   3.096  1.0875 -1.3398  0.3747
 9839TIP3   OH250931   5.552   2.234   2.088  0.5555  0.2824 -0.1859
 9839TIP3    H150932   5.605   2.270   2.158  1.2667  0.9505 -1.0478
 9839TIP3    H250933   5.614   2.219   2.016 -0.0126 -1.1472 -0.3925
 9840TIP3   OH250934   5.193   1.428   5.753  0.0519 -0.4618 -0.1520
 9840TIP3    H150935   5.156   1.444   5.666 -1.5295 -0.3443  0.5374
 9840TIP3    H250936   5.170   1.338   5.773  1.6010 -0.9390 -0.4061
 9841TIP3   OH250937   5.984   6.082  11.587 -0.3405 -0.5824  0.1638
 9841TIP3    H150938   5.920   6.019  11.621  1.3918 -3.2198 -1.2534
 9841TIP3    H250939   5.932   6.148  11.542 -2.1854 -1.3920  1.0551
 9842TIP3   OH250940   0.920   2.533  15.876 -0.0159 -0.3116  0.1424
 9842TIP3    H150941   0.936   2.469  15.945 -2.1925  0.6502  1.5896
 9842TIP3    H250942   0.965   2.498  15.799 -2.0215 -4.0805  0.6116
 9843TIP3   OH250943   3.106   2.201   3.783  0.5635  0.5170 -0.1937
 9843TIP3    H150944   3.072   2.182   3.696 -0.7679  0.5253  0.3174
 9843TIP3    H250945   3.167   2.274   3.769  2.7408 -1.4951 -1.5756
 9844TIP3   OH250946   5.814   3.484  13.169  0.6371 -0.2525  0.5569
 9844TIP3    H150947   5.792   3.574  13.190 -1.3249 -0.5070 -0.2980
 9844TIP3    H250948   5.853   3.488  13.082  0.9537 -0.1796  0.7020
 9845TIP3   OH250949   1.634   6.569   4.249  0.1289 -0.1244  0.0717
 9845TIP3    H150950   1.708   6.519   4.281 -0.1238  1.3508  3.1232
 9845TIP3    H250951   1.589   6.510   4.188  1.7180 -2.3365  0.9949
 9846TIP3   OH250952   2.824   5.103  12.424 -0.1365 -0.3225 -0.2681
 9846TIP3    H150953   2.740   5.092  12.380  0.5930  0.9741 -2.0485
 9846TIP3    H250954   2.805   5.159  12.499 -1.4283 -2.7124  1.2707
 9847TIP3   OH250955   1.740   2.775   5.195 -0.1910  0.4000  0.5961
 9847TIP3    H150956   1.818   2.805   5.241  0.4456  1.7945 -1.3347
 9847TIP3    H250957   1.770   2.756   5.106 -1.9228  0.3089  0.0038
 9848TIP3   OH250958   1.104   5.367  11.725  0.1525 -0.4789  0.1735
 9848TIP3    H150959   1.039   5.403  11.784 -0.5415  0.5270 -1.1947
 9848TIP3    H250960   1.174   5.432  11.722  1.4295 -1.7056  1.9090
 9849TIP3   OH250961   3.465   4.548  15.408  0.3289 -0.8378  0.2789
 9849TIP3    H150962   3.373   4.557  15.432  0.3215 -3.3273  1.2868
 9849TIP3    H250963   3.493   4.638  15.390 -1.6970  0.2429  2.1441
 9850TIP3   OH250964   2.739   2.221  12.474 -0.4497 -0.4757  0.2406
 9850TIP3    H150965   2.810   2.272  12.514  1.7269 -1.8264 -1.7931
 9850TIP3    H250966   2.730   2.145  12.531 -0.5790 -0.0784  0.7565
 9851TIP3   OH250967   5.061   1.149   0.663  0.0454  0.3158 -0.7737
 9851TIP3    H150968   5.099   1.171   0.578  0.8147 -0.5851 -0.6669
 9851TIP3    H250969   5.119   1.191   0.726 -1.3951  2.3078 -0.7152
 9852TIP3   OH250970   4.374   5.519  14.303 -0.5445 -0.2988 -0.1133
 9852TIP3    H150971   4.343   5.608  14.317 -0.6582 -0.4049  0.3518
 9852TIP3    H250972   4.361   5.503  14.210  1.3313  0.8491 -0.5985
 9853TIP3   OH250973   5.967   1.504  10.846 -0.1244 -0.5647  0.0577
 9853TIP3    H150974   5.880   1.487  10.812 -0.0413  0.2911 -0.5767
 9853TIP3    H250975   6.025   1.492  10.771  0.1431  0.4849  0.0965
 9854TIP3   OH250976   3.048   2.195  16.866  0.1390 -0.2058  0.2004
 9854TIP3    H150977   3.102   2.270  16.841 -0.3293 -0.0208 -0.2613
 9854TIP3    H250978   3.110   2.122  16.871  0.4047 -0.0386 -0.5346
 9855TIP3   OH250979   0.172   0.047  12.005  0.2118  0.1581  0.0610
 9855TIP3    H150980   0.079   0.070  12.016  0.0499 -0.3908 -0.1509
 9855TIP3    H250981   0.202   0.105  11.936 -0.0263  0.1916 -0.0160
 9856TIP3   OH250982   0.149   2.250  13.970  0.0967 -0.4969  0.0611
 9856TIP3    H150983   0.053   2.251  13.973  0.1216  0.4608  0.7772
 9856TIP3    H250984   0.170   2.204  13.889 -0.9586 -1.4036  0.2918
 9857TIP3   OH250985   0.907   5.312  12.108 -0.1765  0.7108  0.5950
 9857TIP3    H150986   0.883   5.279  12.022  0.7184  0.2416  0.5235
 9857TIP3    H250987   0.941   5.236  12.155 -1.4045  0.7886  1.6400
 9858TIP3   OH250988   3.023   3.887   2.288 -0.4729  0.1455  0.8879
 9858TIP3    H150989   3.035   3.860   2.197 -0.9743 -0.5192  1.0149
 9858TIP3    H250990   3.013   3.805   2.336 -0.6748  0.5127  1.4755
 9859TIP3   OH250991   2.953   1.233  11.609  0.1274 -0.6165 -0.4362
 9859TIP3    H150992   3.022   1.178  11.646  0.9478  0.2216 -0.7330
 9859TIP3    H250993   2.963   1.223  11.514 -1.1882 -1.7704 -0.4832
 9860TIP3   OH250994   3.213   2.555  15.722  0.2192  0.5063  0.3085
 9860TIP3    H150995   3.245   2.483  15.667 -1.9321 -0.1420 -0.1639
 9860TIP3    H250996   3.209   2.630  15.663  0.2916  0.4258  0.1982
 9861TIP3   OH250997   4.843   4.534   2.232  0.3572 -0.2763 -0.2832
 9861TIP3    H150998   4.880   4.573   2.311  0.9282 -1.4842  0.0582
 9861TIP3    H250999   4.884   4.582   2.160 -1.9022  2.4013  0.1462
 9862TIP3   OH251000   3.307   2.644   1.597 -1.0751  0.1558 -0.2214
 9862TIP3    H151001   3.320   2.682   1.510 -2.3014  2.1202  0.4176
 9862TIP3    H251002   3.326   2.715   1.658  0.5297 -1.4150  1.1835
 9863TIP3   OH251003   3.301   2.058  12.567 -0.0512 -0.3330  0.2564
 9863TIP3    H151004   3.245   2.002  12.621  1.5299 -1.0592  1.1959
 9863TIP3    H251005   3.384   2.063  12.615  0.1758  2.0257 -0.3113
 9864TIP3   OH251006   2.148   2.166   3.390 -0.0415  0.7891 -0.5432
 9864TIP3    H151007   2.143   2.259   3.368 -2.3523  0.7641 -0.2057
 9864TIP3    H251008   2.057   2.136   3.391  0.5794 -1.1792  0.6608
 9865TIP3   OH251009   3.653   0.388   5.614  0.6925 -0.2675  0.6119
 9865TIP3    H151010   3.743   0.395   5.580  0.8469 -0.1940  1.0324
 9865TIP3    H251011   3.626   0.479   5.628  0.2241 -0.2508 -0.3643
 9866TIP3   OH251012   6.459   5.937  13.682 -0.1002 -0.0952 -0.2120
 9866TIP3    H151013   6.457   6.033  13.686  1.7137  0.0710 -2.7367
 9866TIP3    H251014   6.549   5.914  13.703 -0.4264 -1.2613 -0.0773
 9867TIP3   OH251015   1.429   2.216   3.187  0.1323  0.7901  0.1718
 9867TIP3    H151016   1.512   2.175   3.164  0.1499 -0.1238  1.8290
 9867TIP3    H251017   1.402   2.263   3.108  1.1699 -0.6496 -1.0346
 9868TIP3   OH251018   5.563   4.212  13.196 -0.0229 -0.0215 -0.0546
 9868TIP3    H151019   5.553   4.216  13.291  0.1615 -0.6926 -0.0010
 9868TIP3    H251020   5.629   4.279  13.176 -1.8268  1.8138  0.0080
 9869TIP3   OH251021   1.198   3.951   4.033 -0.1546  0.1567 -0.2987
 9869TIP3    H151022   1.202   4.021   3.968 -0.9684  0.4063 -0.0857
 9869TIP3    H251023   1.171   3.994   4.114 -1.3876 -0.4954 -0.3372
 9870TIP3   OH251024   4.143   3.609  16.903  0.2801 -0.0179 -0.0586
 9870TIP3    H151025   4.117   3.587  16.993 -0.7684  2.0711  0.1784
 9870TIP3    H251026   4.125   3.529  16.853 -1.5802 -0.3760  1.1093
 9871TIP3   OH251027   0.979   1.531   5.684  0.6782  0.1107  0.0369
 9871TIP3    H151028   0.992   1.466   5.753 -0.9547 -0.5624 -0.2770
 9871TIP3    H251029   1.067   1.545   5.647  1.0015 -2.0606 -0.0384
 9872TIP3   OH251030   2.998   3.141   2.653  0.3668 -0.1299 -0.1073
 9872TIP3    H151031   3.004   3.060   2.603 -1.4285 -0.5190  0.2691
 9872TIP3    H251032   3.020   3.115   2.743  0.8233  0.0227 -0.1704
 9873TIP3   OH251033   2.246   1.272  14.131  0.0277  0.4556 -0.0469
 9873TIP3    H151034   2.213   1.209  14.195 -2.5071  1.9350  0.1432
 9873TIP3    H251035   2.327   1.232  14.098 -1.4525 -2.8196  0.1282
 9874TIP3   OH251036   3.052   0.708  13.394 -0.2306 -0.2362 -0.7975
 9874TIP3    H151037   2.991   0.652  13.442 -0.4030  0.9065  0.3455
 9874TIP3    H251038   3.128   0.715  13.452  1.1120 -1.8245 -2.2950
 9875TIP3   OH251039   3.795   1.202  15.154 -0.6477 -0.0553 -0.1872
 9875TIP3    H151040   3.706   1.206  15.120 -0.4570  0.3807 -0.6442
 9875TIP3    H251041   3.807   1.284  15.202 -1.5692 -1.5002  2.6091
 9876TIP3   OH251042   2.686   2.202   3.813  0.2458  0.2539  0.3416
 9876TIP3    H151043   2.684   2.199   3.717  0.8838  0.6665  0.3111
 9876TIP3    H251044   2.684   2.110   3.840 -2.8132  0.1955  0.0057
 9877TIP3   OH251045   0.582   5.459  11.470  0.1794 -0.1228  0.3458
 9877TIP3    H151046   0.623   5.392  11.417  0.0600 -0.1171  0.2474
 9877TIP3    H251047   0.622   5.449  11.557  0.3449 -0.1548  0.2657
 9878TIP3   OH251048   1.571   4.799   1.666  0.3391 -0.3038 -0.5388
 9878TIP3    H151049   1.598   4.885   1.697  1.6839  0.1372 -2.7779
 9878TIP3    H251050   1.652   4.750   1.656 -0.1870 -0.9945 -1.6263
 9879TIP3   OH251051   2.824   4.226   0.618  0.4455 -0.3911  0.2258
 9879TIP3    H151052   2.863   4.313   0.626  1.0714 -0.5709 -0.7916
 9879TIP3    H251053   2.730   4.241   0.628  0.6028  0.3128  0.6891
 9880TIP3   OH251054   1.756   0.780  16.726  0.2756 -0.6344 -0.5926
 9880TIP3    H151055   1.820   0.752  16.661  0.4836 -2.3961  0.3266
 9880TIP3    H251056   1.678   0.803  16.676  0.3616 -2.1826 -1.4557
 9881TIP3   OH251057   0.050   4.472  17.025  0.3787  0.2905  0.3110
 9881TIP3    H151058   0.028   4.399  16.967  2.9854 -1.6010  1.6281
 9881TIP3    H251059   0.070   4.545  16.965  0.6197 -0.9131 -1.0904
 9882TIP3   OH251060   1.069   5.924  12.143  0.3022 -0.2322 -0.4262
 9882TIP3    H151061   1.044   5.836  12.172  0.0887 -0.3205 -0.8850
 9882TIP3    H251062   1.145   5.946  12.198 -0.7915  0.0602  0.9810
 9883TIP3   OH251063   4.226   0.868  12.750 -0.5818  0.1501  0.0882
 9883TIP3    H151064   4.191   0.942  12.700 -1.9168 -0.6252 -0.1520
 9883TIP3    H251065   4.289   0.908  12.810 -1.2630  1.4895 -0.0571
 9884TIP3   OH251066   5.033   6.647   0.562  0.7535 -0.5370  0.0972
 9884TIP3    H151067   5.090   6.716   0.529  0.9634 -1.0162 -0.5564
 9884TIP3    H251068   5.086   6.603   0.629  1.9548 -2.2703 -1.9055
 9885TIP3   OH251069   0.813   0.216   1.256 -0.1085 -0.5453 -0.0860
 9885TIP3    H151070   0.849   0.143   1.307  0.4418  0.3973  0.8957
 9885TIP3    H251071   0.738   0.178   1.211 -1.4398 -1.0993  2.4909
 9886TIP3   OH251072   4.086   2.099   3.513 -0.4244 -0.1601  0.2043
 9886TIP3    H151073   4.182   2.101   3.523 -0.5567  2.8446  1.1088
 9886TIP3    H251074   4.073   2.080   3.420  1.0818  0.6278 -0.1937
 9887TIP3   OH251075   1.559   1.664  14.573  0.3393 -0.3082 -0.1101
 9887TIP3    H151076   1.650   1.688  14.555  0.4479 -1.3361 -0.9565
 9887TIP3    H251077   1.546   1.581  14.527 -1.6385  0.8629 -1.7261
 9888TIP3   OH251078   5.630   6.667  14.722 -0.9116  0.3262  0.1079
 9888TIP3    H151079   5.681   6.738  14.761 -0.9019 -0.2189  1.1029
 9888TIP3    H251080   5.622   6.601  14.792  0.6149 -1.4456 -1.3291
 9889TIP3   OH251081   4.376   3.379  14.747 -0.2410 -0.2150 -0.1263
 9889TIP3    H151082   4.324   3.301  14.765 -0.1564  0.1519  1.7672
 9889TIP3    H251083   4.447   3.348  14.691 -1.1719 -1.1617 -0.7824
 9890TIP3   OH251084   1.821   0.165  12.623 -0.4182  0.0178 -0.3699
 9890TIP3    H151085   1.905   0.201  12.650 -0.7823  1.1420 -0.7113
 9890TIP3    H251086   1.768   0.242  12.601 -2.0555 -0.6080  1.3308
 9891TIP3   OH251087   5.008   4.992   0.107 -0.0691 -0.5029  0.1655
 9891TIP3    H151088   4.954   5.027   0.035  1.2381 -0.3225 -0.7444
 9891TIP3    H251089   5.014   5.064   0.169  1.0889  0.2942 -0.8472
 9892TIP3   OH251090   2.787   3.299   5.882  0.1843 -0.0037  0.2526
 9892TIP3    H151091   2.872   3.341   5.879 -0.1290  0.5371 -1.3307
 9892TIP3    H251092   2.768   3.289   5.976  3.3443 -2.9604  0.6741
 9893TIP3   OH251093   6.657   4.306   1.399  0.4133 -0.4139 -0.4782
 9893TIP3    H151094   6.697   4.231   1.442  0.9726  0.1954  0.0682
 9893TIP3    H251095   6.563   4.289   1.403  0.5737 -1.4120 -0.9720
 9894TIP3   OH251096   1.331   4.177  15.604  0.3235  1.0318  0.1176
 9894TIP3    H151097   1.341   4.082  15.599 -1.4588  0.8931 -1.3527
 9894TIP3    H251098   1.284   4.192  15.686  0.2784  0.6173  0.1674
 9895TIP3   OH251099   6.255   0.009  11.704  0.1401 -0.5382 -0.0968
 9895TIP3    H151100   6.236  -0.039  11.785 -1.4829  1.2439  0.6101
 9895TIP3    H251101   6.170   0.039  11.673  0.8022 -0.8226 -2.2552
 9896TIP3   OH251102   1.726   4.426   1.784  0.2601  0.2809  0.2472
 9896TIP3    H151103   1.755   4.341   1.815 -1.6973 -0.1259  1.0280
 9896TIP3    H251104   1.636   4.413   1.756  0.7080  1.5558 -1.9296
 9897TIP3   OH251105   0.193   3.137   5.857  0.6436 -0.5803  0.6367
 9897TIP3    H151106   0.140   3.074   5.906 -1.6299  0.1615 -0.7691
 9897TIP3    H251107   0.179   3.220   5.902 -0.5217 -0.1204 -0.5490
 9898TIP3   OH251108   3.338   0.671   3.041 -0.3923 -0.0218  0.2721
 9898TIP3    H151109   3.307   0.586   3.069  0.2821  0.4400  2.5797
 9898TIP3    H251110   3.420   0.684   3.090  0.1834  1.3926 -1.0061
 9899TIP3   OH251111   6.750   3.131   4.923 -0.0691 -0.6073  0.4564
 9899TIP3    H151112   6.832   3.085   4.945  0.1195  0.1660  1.4050
 9899TIP3    H251113   6.777   3.221   4.906 -0.6189 -0.5370 -0.0379
 9900TIP3   OH251114   6.404   2.916   2.877 -0.2282  0.5151 -0.1672
 9900TIP3    H151115   6.367   2.979   2.817 -1.6434 -2.7719 -2.9215
 9900TIP3    H251116   6.337   2.902   2.944 -1.0057 -0.0106 -1.0516
 9901TIP3   OH251117   6.693   6.179  14.461  0.7601  0.3229 -0.5395
 9901TIP3    H151118   6.743   6.099  14.443  1.0738  0.7213 -1.4677
 9901TIP3    H251119   6.691   6.225  14.377  0.2949  1.1320 -0.0856
 9902TIP3   OH251120   0.585   5.990  11.365  0.3807 -0.1253 -0.2057
 9902TIP3    H151121   0.657   6.044  11.332  3.0157 -1.3939  3.0557
 9902TIP3    H251122   0.607   5.901  11.337  0.0142 -0.4870  0.6241
 9903TIP3   OH251123   5.942   4.354   4.236 -0.1896  0.4536  0.8396
 9903TIP3    H151124   5.867   4.295   4.247 -0.3062  0.5247  0.4457
 9903TIP3    H251125   6.017   4.296   4.225  0.1635  0.3713  3.4260
 9904TIP3   OH251126   4.990   2.172  17.113 -0.0814  0.1480 -0.5506
 9904TIP3    H151127   4.975   2.223  17.193  0.3695  1.4197 -1.2673
 9904TIP3    H251128   4.911   2.119  17.103  0.4576 -1.1012  1.5307
 9905TIP3   OH251129   5.685   6.597  11.072  0.1199 -0.5044  0.4706
 9905TIP3    H151130   5.683   6.529  11.005 -0.8115 -0.3024  0.2908
 9905TIP3    H251131   5.662   6.677  11.026  1.2886 -0.0498  0.6695
 9906TIP3   OH251132   4.653   2.589   2.678  0.6282 -0.2585 -0.1930
 9906TIP3    H151133   4.574   2.536   2.669  0.8646 -0.5245 -0.6888
 9906TIP3    H251134   4.723   2.534   2.643  1.0337 -0.0248  0.2483
 9907TIP3   OH251135   5.384   3.006  11.286 -0.7864 -0.2461 -0.0422
 9907TIP3    H151136   5.389   2.964  11.200  0.9728  0.3733 -0.2567
 9907TIP3    H251137   5.314   2.959  11.331 -1.4609 -0.8391 -1.6685
 9908TIP3   OH251138   4.145   6.666   1.830  0.4393  0.8479  0.0010
 9908TIP3    H151139   4.222   6.673   1.887 -0.3593  1.0131  1.0700
 9908TIP3    H251140   4.131   6.572   1.820  1.0560  0.8142 -0.5750
 9909TIP3   OH251141   4.555   4.804  16.776  0.6718 -0.3333 -0.1249
 9909TIP3    H151142   4.466   4.769  16.779 -0.0410  1.5159  0.7862
 9909TIP3    H251143   4.568   4.830  16.684  0.1392 -0.2689 -0.1812
 9910TIP3   OH251144   2.529   3.396   3.073  0.0536 -0.1687 -0.0724
 9910TIP3    H151145   2.440   3.366   3.093  0.2424 -0.6450  0.0657
 9910TIP3    H251146   2.586   3.329   3.112  0.4487 -0.5194 -1.2439
 9911TIP3   OH251147   2.006   3.949  14.418 -0.4558  0.8235 -0.0290
 9911TIP3    H151148   2.062   4.006  14.365  1.4810  0.2114  1.2746
 9911TIP3    H251149   2.020   3.861  14.383 -0.0260  0.5725  0.7455
 9912TIP3   OH251150   3.674   6.503  13.703 -0.4739  0.4471 -0.0720
 9912TIP3    H151151   3.686   6.570  13.771  0.1624 -0.3536  0.6237
 9912TIP3    H251152   3.742   6.438  13.721  0.3508  0.7114 -2.1018
 9913TIP3   OH251153   5.535   4.385   4.992 -0.5462 -0.2051  0.5789
 9913TIP3    H151154   5.627   4.395   4.967 -0.9201 -0.0985 -0.7716
 9913TIP3    H251155   5.486   4.400   4.911 -1.6446 -2.5995  0.7661
 9914TIP3   OH251156   2.715   0.194   5.492  0.3068 -0.1510 -0.3053
 9914TIP3    H151157   2.627   0.183   5.530  1.4208 -1.3019  2.0312
 9914TIP3    H251158   2.727   0.289   5.486 -0.3868  0.0260  1.0495
 9915TIP3   OH251159   1.826   6.282   3.114 -0.4874  0.3426  0.0773
 9915TIP3    H151160   1.854   6.372   3.098 -0.0614  0.3339  0.7331
 9915TIP3    H251161   1.850   6.266   3.206  0.6576 -0.8775 -0.4236
 9916TIP3   OH251162   3.767   3.281   0.171 -0.5693  0.0207  0.0541
 9916TIP3    H151163   3.853   3.317   0.148 -0.9642  1.3934  0.6544
 9916TIP3    H251164   3.782   3.235   0.254  0.2599 -2.5365 -1.4857
 9917TIP3   OH251165   4.182   0.908  16.213  0.1360 -0.1474  0.2820
 9917TIP3    H151166   4.236   0.948  16.144 -1.5003  0.0063 -0.9403
 9917TIP3    H251167   4.134   0.839  16.168 -0.5070 -0.4325  1.4097
 9918TIP3   OH251168   3.336   4.740  16.083  0.5357  0.6358  0.3431
 9918TIP3    H151169   3.421   4.784  16.078  1.3356 -0.8285  0.7106
 9918TIP3    H251170   3.356   4.648  16.065 -1.1236  0.4325 -0.5307
 9919TIP3   OH251171   2.357   0.613  12.378  0.1039 -0.1664  0.0662
 9919TIP3    H151172   2.384   0.601  12.469  0.3290 -0.9774 -0.0975
 9919TIP3    H251173   2.434   0.649  12.334  0.8257 -2.1255 -0.3218
 9920TIP3   OH251174   5.507   4.230  13.474 -0.3383 -0.3621  0.3893
 9920TIP3    H151175   5.436   4.275  13.520 -0.2266 -0.3002  0.5024
 9920TIP3    H251176   5.544   4.171  13.539 -0.0323 -0.1104  0.4485
 9921TIP3   OH251177   6.294   0.069  15.980  0.4401 -0.0668  0.4091
 9921TIP3    H151178   6.359   0.123  16.025  0.2012  0.5093  0.0668
 9921TIP3    H251179   6.217   0.125  15.972 -0.0530 -0.7072  0.6935
 9922TIP3   OH251180   5.669   2.494   4.948  0.2212  0.1197  0.0362
 9922TIP3    H151181   5.684   2.522   5.038  1.0718  1.9341 -0.6361
 9922TIP3    H251182   5.580   2.523   4.929  0.8353  1.7488 -0.4145
 9923TIP3   OH251183   1.405   1.306   5.905  0.0902  0.1384  0.3959
 9923TIP3    H151184   1.349   1.383   5.896 -0.6121 -0.5188 -1.0660
 9923TIP3    H251185   1.418   1.296   5.999  0.5935  2.3200  0.5670
 9924TIP3   OH251186   4.375   4.716  12.574  0.3579 -0.4406  0.2987
 9924TIP3    H151187   4.388   4.791  12.516  2.1045 -0.1780  1.0123
 9924TIP3    H251188   4.438   4.729  12.645 -1.0710 -1.2753  1.7501
 9925TIP3   OH251189   1.558   5.844  14.041  0.1576  0.4142 -0.3496
 9925TIP3    H151190   1.557   5.776  13.973 -0.5514  1.3589 -1.2963
 9925TIP3    H251191   1.636   5.824  14.093  1.2262  0.1761 -1.9839
 9926TIP3   OH251192   3.592   0.180   3.224 -0.5112  0.5141 -0.2357
 9926TIP3    H151193   3.601   0.236   3.301 -0.1463 -1.1432  0.9311
 9926TIP3    H251194   3.671   0.126   3.224 -1.6196 -1.1314 -0.4510
 9927TIP3   OH251195   2.473   6.318   5.780 -0.3330  0.2826  0.3272
 9927TIP3    H151196   2.528   6.354   5.710  1.0437 -0.7395  0.8635
 9927TIP3    H251197   2.385   6.350   5.760  0.2221  0.8488 -1.2991
 9928TIP3   OH251198   1.974   3.853   0.844  0.2322 -0.2626 -0.5028
 9928TIP3    H151199   2.064   3.836   0.818  0.5943  0.4452  0.2500
 9928TIP3    H251200   1.980   3.929   0.903 -0.9515  0.3685 -1.1775
 9929TIP3   OH251201   0.348   0.437   5.093 -0.0630 -0.0174  0.3377
 9929TIP3    H151202   0.261   0.398   5.085  0.1159 -0.4637  0.5262
 9929TIP3    H251203   0.335   0.512   5.151 -0.6525  0.9858 -1.0655
 9930TIP3   OH251204   6.640   3.751  15.749  0.0232  0.3293  0.2429
 9930TIP3    H151205   6.728   3.741  15.785  0.0747 -0.2133 -0.0333
 9930TIP3    H251206   6.589   3.684  15.794 -0.2146  0.5287  0.2716
 9931TIP3   OH251207   5.979   2.960  14.549 -0.8333  0.1182 -0.0121
 9931TIP3    H151208   6.042   2.991  14.614  0.2831  1.5193 -1.7306
 9931TIP3    H251209   5.898   2.946  14.599  0.1871  0.5283  1.7886
 9932TIP3   OH251210   0.679   4.961  15.484 -0.0465 -0.5531 -0.2499
 9932TIP3    H151211   0.716   4.873  15.472  0.8461  0.0325 -2.0374
 9932TIP3    H251212   0.740   5.004  15.544  1.9547  0.2334 -2.7760
 9933TIP3   OH251213   5.468   3.860   1.625 -0.8305 -0.6231  0.8685
 9933TIP3    H151214   5.549   3.900   1.659  0.4423 -3.0790  0.8083
 9933TIP3    H251215   5.429   3.816   1.700 -0.9649 -1.2951  0.4052
 9934TIP3   OH251216   5.320   2.277   2.679 -0.0431  0.2317 -0.3987
 9934TIP3    H151217   5.297   2.223   2.603  0.0567  1.3410 -1.2294
 9934TIP3    H251218   5.272   2.238   2.752  2.4294 -2.8760 -0.3272
 9935TIP3   OH251219   4.789   4.037  12.350  0.0509  0.0480  0.1031
 9935TIP3    H151220   4.744   4.121  12.345 -0.2037 -0.1926 -2.7966
 9935TIP3    H251221   4.729   3.981  12.400 -2.1737  0.2139 -2.2359
 9936TIP3   OH251222   2.921   3.870  11.412  0.4496  0.0587 -0.4029
 9936TIP3    H151223   2.880   3.847  11.328  0.8463  0.5308 -0.7273
 9936TIP3    H251224   3.007   3.828  11.409 -0.4041 -1.8326  0.7227
 9937TIP3   OH251225   0.487   2.343  14.864 -0.0972 -0.3915  0.0760
 9937TIP3    H151226   0.556   2.323  14.801  0.1315  1.4735 -0.3078
 9937TIP3    H251227   0.407   2.313  14.822  0.2675 -0.9193 -0.2571
 9938TIP3   OH251228   6.581   6.627  11.405  0.3867  0.2599  0.7013
 9938TIP3    H151229   6.654   6.564  11.408 -0.7606 -1.0705  1.2353
 9938TIP3    H251230   6.522   6.591  11.338  0.9701  2.1804 -0.8766
 9939TIP3   OH251231   5.624   2.013  16.116  0.2650 -0.1285 -0.0625
 9939TIP3    H151232   5.610   2.106  16.136  1.1178 -0.2548  1.1918
 9939TIP3    H251233   5.681   2.014  16.040  0.2191  0.3835 -0.0963
 9940TIP3   OH251234   5.260   0.076   0.546 -0.4617  0.4052 -0.1911
 9940TIP3    H151235   5.204   0.154   0.541 -0.3328  0.4902 -0.3193
 9940TIP3    H251236   5.259   0.051   0.638  0.2965  1.1488  0.0290
 9941TIP3   OH251237   4.188   1.041   3.728 -0.6140 -0.4169 -0.0862
 9941TIP3    H151238   4.159   1.032   3.819  1.5097 -0.5969  0.5897
 9941TIP3    H251239   4.283   1.045   3.733 -0.5096  0.6064 -2.2284
 9942TIP3   OH251240   2.932   3.205   5.188 -0.1481 -0.0574 -0.3751
 9942TIP3    H151241   2.890   3.291   5.185 -0.5395 -0.0921  2.9072
 9942TIP3    H251242   2.861   3.142   5.178 -0.3462 -0.0581  1.0556
 9943TIP3   OH251243   3.074   0.209  14.753 -0.2888 -0.8317 -0.1452
 9943TIP3    H151244   3.151   0.266  14.745 -0.3184 -0.7516  0.1098
 9943TIP3    H251245   3.024   0.225  14.673 -0.1358 -0.7385 -0.2236
 9944TIP3   OH251246   2.401   1.360  11.785 -0.1550  0.5354  0.2326
 9944TIP3    H151247   2.452   1.410  11.849  0.0939 -1.0935  1.3684
 9944TIP3    H251248   2.433   1.389  11.700  0.5640  1.6816  0.8853
 9945TIP3   OH251249   4.061   0.235   3.119 -0.2134  0.1581 -0.2542
 9945TIP3    H151250   4.042   0.250   3.026  0.3968 -0.9193 -0.5700
 9945TIP3    H251251   3.978   0.252   3.164 -0.9203 -0.7920 -1.1698
 9946TIP3   OH251252   3.767   0.315  12.083  0.4702 -0.6172 -0.4398
 9946TIP3    H151253   3.761   0.285  12.174 -1.0442 -0.3870 -0.4461
 9946TIP3    H251254   3.708   0.390  12.079  1.4321  0.1052 -1.3338
 9947TIP3   OH251255   6.162   5.042  12.339  0.3274  1.2677  0.5262
 9947TIP3    H151256   6.155   5.058  12.245  1.8025 -0.3573  0.1003
 9947TIP3    H251257   6.256   5.039  12.356  0.1018 -0.5894  1.6456
 9948TIP3   OH251258   2.936   5.149  14.824  0.0326 -0.5518 -0.0086
 9948TIP3    H151259   2.894   5.075  14.781 -2.0506  0.5318  0.0767
 9948TIP3    H251260   2.971   5.202  14.752 -2.9088  0.9384 -0.4511
 9949TIP3   OH251261   0.037   2.424  15.834  0.0813  0.1346 -0.5757
 9949TIP3    H151262   0.090   2.465  15.765 -2.6636  0.9211 -2.3036
 9949TIP3    H251263   0.042   2.330  15.816  1.0664  0.1721 -0.5554
 9950TIP3   OH251264   3.442   0.582  12.827 -0.2717 -0.1974  0.1046
 9950TIP3    H151265   3.469   0.667  12.792  0.2571 -0.1092  0.7316
 9950TIP3    H251266   3.490   0.573  12.909 -3.6901  0.9156  2.3279
 9951TIP3   OH251267   5.886   1.487  14.263  0.0262  0.0247  0.1965
 9951TIP3    H151268   5.868   1.436  14.184 -0.6878  0.4123  0.0990
 9951TIP3    H251269   5.930   1.426  14.322  0.3434 -0.3348 -0.4071
 9952TIP3   OH251270   0.405   4.775   1.166 -0.0692  0.5650  0.7795
 9952TIP3    H151271   0.310   4.777   1.151  0.1403  0.3462 -0.6790
 9952TIP3    H251272   0.421   4.845   1.229 -0.8880  2.3512 -0.9559
 9953TIP3   OH251273   1.598   4.025  14.616 -0.2586  0.0480  0.2377
 9953TIP3    H151274   1.668   3.982  14.567  0.3108  1.7021 -0.4532
 9953TIP3    H251275   1.532   4.046  14.549 -0.3183  0.6542  0.4828
 9954TIP3   OH251276   2.696   2.655  13.854  0.1739  0.2786  0.2039
 9954TIP3    H151277   2.673   2.664  13.946  0.8807  0.5833  0.3528
 9954TIP3    H251278   2.728   2.742  13.829  0.7457 -0.0178 -0.1145
 9955TIP3   OH251279   5.566   1.698   2.225  0.0012 -0.0494  0.2398
 9955TIP3    H151280   5.640   1.671   2.170 -1.0797  0.3536 -1.4399
 9955TIP3    H251281   5.571   1.793   2.228  1.7612 -0.1671  3.3041
 9956TIP3   OH251282   3.266   2.561  12.735  0.7223  0.2096  0.2682
 9956TIP3    H151283   3.277   2.629  12.669 -0.5619  1.0006  0.8500
 9956TIP3    H251284   3.354   2.523  12.744  1.1442  0.8096 -1.0947
 9957TIP3   OH251285   4.842   2.490  15.649  0.2668 -0.2285 -0.0711
 9957TIP3    H151286   4.810   2.530  15.568 -0.1653 -0.7304 -0.1487
 9957TIP3    H251287   4.936   2.510  15.649  0.1194  0.4994 -0.2748
 9958TIP3   OH251288   2.265   1.588  16.517 -0.2628  0.2258  0.2938
 9958TIP3    H151289   2.213   1.629  16.449 -0.2860 -0.2775  0.0077
 9958TIP3    H251290   2.339   1.648  16.530  1.5615 -1.2814 -2.5617
 9959TIP3   OH251291   4.984   3.552   3.906  0.2096 -0.1149 -0.0477
 9959TIP3    H151292   5.020   3.599   3.981 -1.4727  0.7660  0.2413
 9959TIP3    H251293   5.054   3.493   3.879  1.1813  0.2343  1.6159
 9960TIP3   OH251294   5.547   1.835  14.188  0.1803  0.6676  0.1447
 9960TIP3    H151295   5.603   1.886  14.247  0.0548 -1.0635  1.8163
 9960TIP3    H251296   5.468   1.817  14.239 -1.1767  1.5390 -1.5667
 9961TIP3   OH251297   2.456   0.925  15.801 -0.4809 -0.5421 -0.0093
 9961TIP3    H151298   2.454   1.000  15.861  0.2201 -0.4172 -0.1389
 9961TIP3    H251299   2.512   0.953  15.729  3.2026 -2.6679  1.9164
 9962TIP3   OH251300   0.702   0.517  11.642  0.9212 -0.4471 -0.0149
 9962TIP3    H151301   0.683   0.435  11.687 -1.2263  0.3202  0.5029
 9962TIP3    H251302   0.661   0.508  11.556  0.9800 -0.0516 -0.0874
 9963TIP3   OH251303   2.301   3.746   5.023 -0.1917  0.0338 -0.3761
 9963TIP3    H151304   2.207   3.742   5.044 -0.0873  0.9176  0.2721
 9963TIP3    H251305   2.311   3.824   4.969  0.2669  0.2883  0.0731
 9964TIP3   OH251306   4.323   4.008  15.053 -0.4315  0.2720  0.2876
 9964TIP3    H151307   4.402   3.971  15.014 -0.1354  0.6002  0.5748
 9964TIP3    H251308   4.351   4.038  15.140 -0.5061  1.8013 -0.2143
 9965TIP3   OH251309   5.384   2.119   2.271  0.4396 -0.7989  0.2065
 9965TIP3    H151310   5.457   2.133   2.211 -0.7375 -0.3243 -1.1482
 9965TIP3    H251311   5.361   2.207   2.301 -0.3143 -0.8249 -0.2779
 9966TIP3   OH251312   1.443   3.157   6.100 -0.4191 -0.2398  0.3285
 9966TIP3    H151313   1.465   3.122   6.186 -0.9704 -1.3147  0.0371
 9966TIP3    H251314   1.419   3.080   6.048  0.6995  0.2963 -1.0316
 9967TIP3   OH251315   1.756   0.975   4.772 -0.0584  0.2506  0.0303
 9967TIP3    H151316   1.815   0.905   4.801 -1.2466 -0.7549  0.1132
 9967TIP3    H251317   1.701   0.993   4.849 -0.1850  0.8223 -0.1914
 9968TIP3   OH251318   3.517   5.495   3.663  0.1496 -0.3314 -0.0170
 9968TIP3    H151319   3.585   5.554   3.631 -0.8247  1.4275  1.0830
 9968TIP3    H251320   3.439   5.518   3.613 -0.2365 -0.7362  0.3890
 9969TIP3   OH251321   1.834   3.575   0.655 -0.6235  0.0777 -0.4432
 9969TIP3    H151322   1.771   3.528   0.601 -0.1353 -1.2454  0.1217
 9969TIP3    H251323   1.913   3.520   0.653  0.7928  2.0728 -1.7849
 9970TIP3   OH251324   0.311   3.069  17.007 -0.3819 -1.0746 -0.0410
 9970TIP3    H151325   0.259   3.146  17.030  0.3068  0.0193 -1.9522
 9970TIP3    H251326   0.248   2.999  16.995 -1.1500 -0.4482  0.2999
 9971TIP3   OH251327   5.809   1.292  12.861  0.3848 -0.4792 -0.2749
 9971TIP3    H151328   5.867   1.362  12.892  0.5676 -0.3199 -0.9587
 9971TIP3    H251329   5.815   1.297  12.765 -1.1906 -0.0879 -0.3712
 9972TIP3   OH251330   4.849   6.540   5.495 -0.6662  0.6184  0.0960
 9972TIP3    H151331   4.816   6.539   5.585 -0.7112  2.1391  0.1082
 9972TIP3    H251332   4.921   6.476   5.495 -1.9671 -0.8752  0.6924
 9973TIP3   OH251333   1.007   4.104  14.369 -0.3636  0.1451 -0.1786
 9973TIP3    H151334   1.067   4.079  14.439 -0.9777 -1.1838 -0.1188
 9973TIP3    H251335   1.056   4.089  14.288 -1.0578 -2.1708 -0.1794
 9974TIP3   OH251336   2.644   1.524  14.086  0.1641  0.1254 -0.0520
 9974TIP3    H151337   2.607   1.474  14.159  0.0940  0.5013  0.1692
 9974TIP3    H251338   2.616   1.476  14.007  0.9091 -0.7331  0.1945
 9975TIP3   OH251339   5.988   0.962  13.303  0.4299 -0.1140  0.6839
 9975TIP3    H151340   5.960   1.004  13.221  0.4230 -3.7375 -1.2670
 9975TIP3    H251341   5.914   0.973  13.362 -0.9991 -0.4766 -0.9826
 9976TIP3   OH251342   2.575   1.380   4.479 -0.1293 -0.5550  0.2960
 9976TIP3    H151343   2.653   1.362   4.533  1.5273 -1.3332 -2.2606
 9976TIP3    H251344   2.521   1.302   4.488 -2.1662  1.1717  4.4881
 9977TIP3   OH251345   5.737   5.258  11.793 -0.1814  0.7968  0.3690
 9977TIP3    H151346   5.679   5.316  11.744  0.8519  0.2156 -1.6130
 9977TIP3    H251347   5.780   5.205  11.726  2.0273  0.6541  1.8464
 9978TIP3   OH251348   6.669   5.802   2.423 -0.3188  0.1073 -0.4269
 9978TIP3    H151349   6.737   5.753   2.469 -1.2857  0.5972  1.5437
 9978TIP3    H251350   6.688   5.894   2.442  0.0670  0.4085 -2.1421
 9979TIP3   OH251351   1.358   2.893   6.011 -0.0032 -0.1048  0.1608
 9979TIP3    H151352   1.311   2.817   6.045  0.2395 -0.0480  0.6325
 9979TIP3    H251353   1.449   2.864   6.004  0.1415  0.2187  0.6033
 9980TIP3   OH251354   2.177   3.919   5.808 -0.2689 -0.4799 -0.2623
 9980TIP3    H151355   2.193   3.825   5.800 -1.9959 -0.7732 -0.7023
 9980TIP3    H251356   2.216   3.957   5.729  0.0647 -0.8909 -0.2918
 9981TIP3   OH251357   3.005   5.088   2.586  0.3303 -0.1572  0.1730
 9981TIP3    H151358   2.960   5.018   2.633 -1.6853  1.1992  0.3366
 9981TIP3    H251359   3.095   5.086   2.620 -0.0424 -1.8347  1.0834
 9982TIP3   OH251360   1.818   3.398   5.698  0.0413  0.3580  0.7272
 9982TIP3    H151361   1.747   3.458   5.675 -0.3122 -0.2797  0.1347
 9982TIP3    H251362   1.859   3.376   5.615 -0.7176 -1.3178  0.7801
 9983TIP3   OH251363   4.525   5.783  12.781  0.2820 -0.7427 -0.6605
 9983TIP3    H151364   4.502   5.692  12.762 -0.6339 -0.5569 -0.4568
 9983TIP3    H251365   4.495   5.797  12.871 -0.5414  0.0649 -1.0536
 9984TIP3   OH251366   4.861   4.272  12.729 -0.0419  0.2071 -0.1029
 9984TIP3    H151367   4.824   4.191  12.693 -1.3906  0.6142  0.3326
 9984TIP3    H251368   4.896   4.246  12.815 -0.5130  0.0956  0.0566
 9985TIP3   OH251369   1.108   4.380  17.224 -0.3105  0.5576  0.4543
 9985TIP3    H151370   1.172   4.428  17.172  1.2828 -0.6510  1.2670
 9985TIP3    H251371   1.143   4.291  17.230 -3.1571 -0.7214 -0.9122
 9986TIP3   OH251372   5.087   5.730   0.244 -0.0648  0.5155 -0.5608
 9986TIP3    H151373   5.132   5.813   0.227 -1.9882  1.8643  0.7240
 9986TIP3    H251374   5.144   5.685   0.306 -0.2269  2.0087  0.7127
 9987TIP3   OH251375   1.842   4.329   4.640 -0.4459  0.2831  0.5869
 9987TIP3    H151376   1.766   4.290   4.681 -0.3220 -0.6650 -0.0575
 9987TIP3    H251377   1.904   4.257   4.629 -0.7421  0.3564 -1.8538
 9988TIP3   OH251378   3.599   0.162   3.771  0.1743  0.0626  0.1191
 9988TIP3    H151379   3.532   0.138   3.835  1.2771 -0.5300  1.0741
 9988TIP3    H251380   3.638   0.243   3.806  1.5691 -0.8916  0.8282
 9989TIP3   OH251381   1.317   5.541   1.141  0.0666 -0.0576  0.4960
 9989TIP3    H151382   1.260   5.513   1.214  1.5541 -0.1356  1.6507
 9989TIP3    H251383   1.348   5.459   1.103  0.6039 -0.0168  0.8373
 9990TIP3   OH251384   3.426   5.063  10.885  0.1467  0.1006  0.1862
 9990TIP3    H151385   3.416   4.968  10.885 -0.0657  0.1226  0.5972
 9990TIP3    H251386   3.337   5.097  10.888  0.2242  0.3160  0.0800
 9991TIP3   OH251387   4.123   4.908   1.461  0.1847  0.4596  0.4343
 9991TIP3    H151388   4.106   4.850   1.387 -1.2642  0.0745  1.0513
 9991TIP3    H251389   4.197   4.868   1.507  1.8541  1.3410 -1.4562
 9992TIP3   OH251390   5.393   1.035   0.243  0.1621 -0.0172  0.0851
 9992TIP3    H151391   5.362   1.085   0.319 -0.3638 -0.2316  0.0184
 9992TIP3    H251392   5.421   0.951   0.279 -0.5291 -0.2936 -0.0146
 9993TIP3   OH251393   5.214   4.771   4.452 -0.3178  0.1496 -0.4804
 9993TIP3    H151394   5.160   4.709   4.501 -0.1178  1.3439  1.2876
 9993TIP3    H251395   5.291   4.784   4.506 -0.0087  1.3749 -1.1874
 9994TIP3   OH251396   6.355   3.847   0.619  0.7704 -0.0232  0.0602
 9994TIP3    H151397   6.307   3.808   0.546  0.5070  0.3467  0.0336
 9994TIP3    H251398   6.322   3.937   0.625 -1.5492 -0.9862  2.6499
 9995TIP3   OH251399   2.192   5.687   3.725 -0.2642  0.1676  0.2266
 9995TIP3    H151400   2.264   5.640   3.683 -0.9044  0.2341 -0.9942
 9995TIP3    H251401   2.151   5.623   3.783  0.0510 -0.2190  0.0226
 9996TIP3   OH251402   0.688   5.375  15.552  0.0688  0.1897  0.2839
 9996TIP3    H151403   0.638   5.357  15.631 -2.7534  2.2977 -0.9158
 9996TIP3    H251404   0.732   5.457  15.569 -0.5991  0.6863 -0.3122
 9997TIP3   OH251405   0.282   1.601   4.052 -0.1040 -0.1085 -0.0738
 9997TIP3    H151406   0.319   1.513   4.061 -0.0867 -0.2239 -1.2493
 9997TIP3    H251407   0.241   1.618   4.137  1.1393 -0.6629  0.6642
 9998TIP3   OH251408   0.640   2.440  12.201  0.0969  0.3104 -0.2566
 9998TIP3    H151409   0.589   2.405  12.128  1.5230  0.9972 -1.6194
 9998TIP3    H251410   0.722   2.391  12.198  0.4824  0.9122  0.3707
 9999TIP3   OH251411   2.674   4.317  12.745 -0.1759 -0.0837  0.3204
 9999TIP3    H151412   2.630   4.402  12.739 -1.4088 -0.8852 -2.7000
 9999TIP3    H251413   2.762   4.332  12.712 -0.8845 -0.2869 -1.7045
10000TIP3   OH251414   0.797   3.503  14.144 -0.2470 -0.0868 -0.5307
10000TIP3    H151415   0.879   3.551  14.159  0.8483 -2.2761  0.6968
10000TIP3    H251416   0.788   3.501  14.048  0.5263  1.1658 -0.6382
10001TIP3   OH251417   1.653   2.596  14.198  0.0171  0.0664  0.7535
10001TIP3    H151418   1.625   2.542  14.124 -0.9064  0.8682  0.5049
10001TIP3    H251419   1.744   2.617  14.179 -0.1683  0.1440 -0.0869
10002TIP3   OH251420   4.713   5.321  12.477  0.4192  0.1463 -0.0971
10002TIP3    H151421   4.782   5.371  12.434 -1.1573  0.6456 -2.1842
10002TIP3    H251422   4.654   5.295  12.405 -1.3562 -0.5616  1.5526
10003TIP3   OH251423   2.356   3.406   4.655 -0.1024  0.5139 -0.0333
10003TIP3    H151424   2.322   3.460   4.726 -1.6618  3.0720 -2.6042
10003TIP3    H251425   2.277   3.370   4.613  0.6309  1.1267 -1.9974
10004TIP3   OH251426   3.244   0.919   2.979 -0.2134  0.2498 -0.0080
10004TIP3    H151427   3.165   0.902   2.929  0.0722 -1.5346  0.1060
10004TIP3    H251428   3.280   0.832   2.998  1.7344  1.0170 -0.0034
10005TIP3   OH251429   2.153   5.414   1.784  0.3706 -0.0906  0.1726
10005TIP3    H151430   2.184   5.501   1.759 -2.5731  1.1733  0.6831
10005TIP3    H251431   2.075   5.431   1.838 -2.2211 -3.0938 -2.4405
10006TIP3   OH251432   4.459   4.396   6.103 -0.0529  0.1870  0.2783
10006TIP3    H151433   4.423   4.469   6.154 -0.9464  0.2034 -0.3498
10006TIP3    H251434   4.510   4.439   6.034 -0.8088  0.2442 -0.2600
10007TIP3   OH251435   0.894   1.022  13.927  0.0278 -0.3948  0.2649
10007TIP3    H151436   0.943   0.993  13.849 -0.9952 -0.4778 -0.3517
10007TIP3    H251437   0.959   1.022  13.997  0.8743 -0.7018 -0.5064
10008TIP3   OH251438   3.512   4.912  15.298  0.2711 -0.6841 -0.1821
10008TIP3    H151439   3.517   4.954  15.212 -1.0582 -0.4784 -0.1589
10008TIP3    H251440   3.460   4.833  15.284 -1.0985  0.0421  0.6927
10009TIP3   OH251441   1.015   1.501  16.388  0.4685 -0.5669 -0.0843
10009TIP3    H151442   1.064   1.468  16.313 -1.0406  0.3738 -1.5519
10009TIP3    H251443   1.043   1.592  16.397 -0.3514 -0.2649 -0.4260
10010TIP3   OH251444   2.851   1.763  16.963 -0.0144  0.2753 -0.0483
10010TIP3    H151445   2.892   1.688  17.007 -1.6336  0.6959  2.2493
10010TIP3    H251446   2.904   1.838  16.989 -1.4257  0.6370  1.8986
10011TIP3   OH251447   0.100   0.560   4.198  0.2426 -0.3712  0.5382
10011TIP3    H151448   0.077   0.609   4.119  1.5690 -1.0866 -0.3094
10011TIP3    H251449   0.024   0.571   4.256 -1.2014 -0.7117 -1.2382
10012TIP3   OH251450   2.137   4.237  12.062 -0.0801  0.3146 -0.0764
10012TIP3    H151451   2.071   4.222  11.994 -1.8535  2.9685  1.0095
10012TIP3    H251452   2.101   4.196  12.141  0.1863  0.6217  0.2060
10013TIP3   OH251453   3.175   5.495   5.343 -0.2622 -0.7681  0.6271
10013TIP3    H151454   3.220   5.520   5.424  1.0368 -0.7552 -0.0865
10013TIP3    H251455   3.162   5.401   5.351 -1.1503 -0.5913  1.3452
10014TIP3   OH251456   4.170   3.786  15.939  0.3327 -0.1721 -0.0612
10014TIP3    H151457   4.085   3.752  15.911  1.0566 -1.1149 -1.1616
10014TIP3    H251458   4.174   3.874  15.903 -0.6436  0.3139  0.9684
10015TIP3   OH251459   5.220   2.122  12.109 -0.4028  0.0252 -0.9565
10015TIP3    H151460   5.266   2.176  12.045  0.4720 -1.8309 -1.9025
10015TIP3    H251461   5.287   2.065  12.146 -1.3479 -0.5229 -0.0384
10016TIP3   OH251462   6.703   0.402   5.744 -0.4348 -0.5270 -0.1943
10016TIP3    H151463   6.644   0.411   5.819 -0.4951  0.0786 -0.3129
10016TIP3    H251464   6.646   0.380   5.670 -0.5048  0.0178 -0.3006
10017TIP3   OH251465   6.278   6.564  13.397  1.0301  0.0749 -0.2365
10017TIP3    H151466   6.371   6.554  13.418  0.7169  1.6823  2.1845
10017TIP3    H251467   6.234   6.507  13.460  0.3356 -0.1240 -0.9035
10018TIP3   OH251468   2.976   5.709  14.349 -0.1378 -0.1564  0.4726
10018TIP3    H151469   2.988   5.734  14.440  1.1178  1.7635 -0.1709
10018TIP3    H251470   2.942   5.620  14.352 -0.6441  0.0887  2.8134
10019TIP3   OH251471   0.251   2.094   3.563 -0.3169 -0.2498  0.0725
10019TIP3    H151472   0.262   2.132   3.650 -0.5254 -2.6266  1.1637
10019TIP3    H251473   0.329   2.039   3.551 -0.4889 -0.2592 -1.0785
10020TIP3   OH251474   6.366   3.263  13.603 -0.2642  0.1611  0.2352
10020TIP3    H151475   6.366   3.223  13.516  0.1378  1.3793 -0.3355
10020TIP3    H251476   6.442   3.226  13.647  2.0175  2.6507 -1.4161
10021TIP3   OH251477   2.827   5.285   2.686  0.5073  0.0267 -0.2919
10021TIP3    H151478   2.902   5.234   2.658  0.0180  0.3978 -2.3546
10021TIP3    H251479   2.752   5.227   2.670  0.0975  0.7842 -1.1653
10022TIP3   OH251480   4.206   6.475   0.359  0.3493 -0.2027 -0.9041
10022TIP3    H151481   4.173   6.555   0.318 -0.3802  1.0401  1.9515
10022TIP3    H251482   4.301   6.479   0.348  0.1987  0.2470 -2.1323
10023TIP3   OH251483   4.370   6.262  16.438 -0.6613  0.2914  0.1082
10023TIP3    H151484   4.401   6.349  16.465  2.6878 -1.3094  1.6866
10023TIP3    H251485   4.418   6.243  16.357  0.2619 -0.9698  0.9400
10024TIP3   OH251486   4.352   4.467  13.463 -0.1859 -0.2472 -0.5779
10024TIP3    H151487   4.393   4.389  13.427  1.3512  0.2708  0.0416
10024TIP3    H251488   4.260   4.442  13.474  0.1141 -1.6784 -1.2103
10025TIP3   OH251489   3.995   6.784   5.268 -0.0919 -0.3745  0.1468
10025TIP3    H151490   4.041   6.726   5.208  0.7514 -0.1087  0.5305
10025TIP3    H251491   4.064   6.835   5.311 -0.8847  2.4249 -1.6960
10026TIP3   OH251492   0.559   6.325  13.238 -0.4863 -0.7824 -0.5349
10026TIP3    H151493   0.531   6.257  13.176 -0.7951 -2.2279  1.1636
10026TIP3    H251494   0.487   6.331  13.301 -0.1293  0.6116 -0.2466
10027TIP3   OH251495   0.196   0.598  11.490 -0.4147 -0.3494  0.6749
10027TIP3    H151496   0.175   0.688  11.464  0.3392 -0.4733 -0.4016
10027TIP3    H251497   0.111   0.558  11.507 -0.6452  1.4581  4.3670
10028TIP3   OH251498   0.022   4.738   4.791 -0.5916  0.6828  0.4660
10028TIP3    H151499  -0.025   4.788   4.725 -0.0260  1.7751  0.8911
10028TIP3    H251500  -0.041   4.724   4.861 -1.4957 -1.3078 -0.6898
10029TIP3   OH251501   2.737   1.728   5.103  0.1065 -0.6518  0.4425
10029TIP3    H151502   2.647   1.719   5.071  0.0286 -0.4009  0.5884
10029TIP3    H251503   2.749   1.653   5.162  0.4907 -1.5149 -0.7152
10030TIP3   OH251504   3.805   6.212   3.715 -0.2419 -0.1937 -0.7286
10030TIP3    H151505   3.794   6.295   3.761  1.5066 -0.2556 -0.1534
10030TIP3    H251506   3.851   6.235   3.634 -1.1333 -0.4073 -1.3037
10031TIP3   OH251507   3.264   5.715   3.813  0.3517 -0.0407 -0.1149
10031TIP3    H151508   3.245   5.686   3.902  0.7792  0.5617  0.1728
10031TIP3    H251509   3.222   5.649   3.757  0.3449 -0.5851  0.5285
10032TIP3   OH251510   6.157   6.626  12.756 -0.1430  0.1650  0.0253
10032TIP3    H151511   6.192   6.667  12.836 -2.4226  0.3709  0.9592
10032TIP3    H251512   6.107   6.551  12.788 -1.1155  0.2812 -1.2140
10033TIP3   OH251513   1.006   3.997   2.944  0.0912 -0.0112  0.4102
10033TIP3    H151514   1.060   4.058   2.994  1.3882 -1.6038  0.9836
10033TIP3    H251515   1.057   3.916   2.941 -1.3598 -0.9104 -0.8095
10034TIP3   OH251516   6.303   3.408   0.914  0.3049  0.6082  0.1001
10034TIP3    H151517   6.248   3.375   0.986  1.7780 -0.4794  0.7630
10034TIP3    H251518   6.241   3.436   0.847 -1.0585 -1.3199  0.5154
10035TIP3   OH251519   0.633   5.708   4.988  0.6379 -0.1671 -0.1924
10035TIP3    H151520   0.685   5.760   4.926  0.1587  0.8981  0.2828
10035TIP3    H251521   0.567   5.769   5.021  1.3054 -0.5339  1.8876
10036TIP3   OH251522   3.161   2.981  13.418  0.0847 -0.0025  0.3894
10036TIP3    H151523   3.234   2.946  13.366 -1.4458 -1.0348 -1.1104
10036TIP3    H251524   3.089   2.921  13.402 -0.8691  0.4900  2.5858
10037TIP3   OH251525   0.542   2.270   2.769  0.7937  0.0057 -0.4915
10037TIP3    H151526   0.637   2.267   2.763  0.7671 -0.3241 -0.7728
10037TIP3    H251527   0.515   2.332   2.701  1.0373  3.0974  2.1041
10038TIP3   OH251528   4.731   4.095   0.199  0.6499 -0.1655  0.1045
10038TIP3    H151529   4.723   4.189   0.182  3.5982  0.2493  0.8589
10038TIP3    H251530   4.765   4.059   0.117  1.6996 -0.2288  0.5645
10039TIP3   OH251531   6.475   2.466  15.366  0.2639 -1.0938  0.0824
10039TIP3    H151532   6.570   2.458  15.360  0.2178 -0.5434 -1.3886
10039TIP3    H251533   6.446   2.384  15.406  1.1613 -2.1696 -1.4408
10040TIP3   OH251534   2.776   0.831  12.152 -0.3314  0.0575 -0.0002
10040TIP3    H151535   2.834   0.771  12.200  0.9117  1.1112 -0.1655
10040TIP3    H251536   2.693   0.828  12.200 -0.1369 -1.4329  0.2620
10041TIP3   OH251537   5.333   3.860   3.792  0.1567 -0.5078  0.3543
10041TIP3    H151538   5.255   3.804   3.794  0.7987 -1.3891  1.2241
10041TIP3    H251539   5.309   3.932   3.733 -1.5051 -0.4820  1.0258
10042TIP3   OH251540   2.051   0.669  12.973 -0.7337  0.5088  0.3145
10042TIP3    H151541   2.094   0.617  12.904 -0.4489  0.8307  0.2473
10042TIP3    H251542   2.111   0.663  13.048  0.6141  2.8880 -0.5119
10043TIP3   OH251543   4.619   4.407   0.179 -0.6336 -0.8279  0.0556
10043TIP3    H151544   4.538   4.456   0.193 -0.6687 -1.1629  1.0548
10043TIP3    H251545   4.663   4.408   0.264  0.8510  0.1328 -0.6952
10044TIP3   OH251546   5.702   6.349  15.848  0.4659 -0.2150  0.4415
10044TIP3    H151547   5.676   6.409  15.917  0.4567 -0.8692  1.0169
10044TIP3    H251548   5.625   6.294  15.834 -0.3132  1.3591 -1.6751
10045TIP3   OH251549   0.871   5.698  13.789  0.2268 -0.2349  0.4721
10045TIP3    H151550   0.790   5.741  13.815  0.2512 -0.3328  0.7124
10045TIP3    H251551   0.901   5.748  13.713  0.9784  1.0705  1.5938
10046TIP3   OH251552   2.096   5.898  16.501 -0.1660  0.1355 -0.4490
10046TIP3    H151553   2.110   5.992  16.492 -0.0882  0.2273  0.5042
10046TIP3    H251554   2.029   5.891  16.570  4.1186 -0.6743  3.8960
10047TIP3   OH251555   5.444   1.191  11.829  0.3051 -0.0951 -0.0247
10047TIP3    H151556   5.475   1.246  11.901  1.4821 -0.4536 -0.2406
10047TIP3    H251557   5.362   1.231  11.802 -0.3146 -0.1197  1.7113
10048TIP3   OH251558   5.932   2.777   4.255  0.0122 -0.1758  0.2169
10048TIP3    H151559   5.895   2.802   4.339  1.1967 -0.7838  0.9416
10048TIP3    H251560   5.896   2.690   4.238 -0.1865 -0.0756  0.1277
10049TIP3   OH251561   4.388   0.900   4.522 -0.2779  0.0372 -0.1175
10049TIP3    H151562   4.472   0.920   4.563 -0.9138 -1.5229  2.0003
10049TIP3    H251563   4.366   0.980   4.474  2.9732  0.0326 -1.7192
10050TIP3   OH251564   3.415   0.076   6.079 -0.0379  0.3358 -0.6731
10050TIP3    H151565   3.485   0.137   6.054 -0.1004  0.0874 -1.4731
10050TIP3    H251566   3.461   0.001   6.116  0.0669  0.6338 -0.2004
10051TIP3   OH251567   3.987   6.510  13.478 -0.2671 -0.4380 -0.5620
10051TIP3    H151568   4.023   6.510  13.566  1.2915  1.4752 -1.1739
10051TIP3    H251569   3.951   6.598  13.466  0.8397 -0.1942 -2.3422
10052TIP3   OH251570   5.087   5.633  12.918 -0.2847 -0.2926 -0.7020
10052TIP3    H151571   5.079   5.634  12.823  1.4866 -1.5761 -0.8698
10052TIP3    H251572   5.179   5.614  12.935 -0.5969 -0.1702  1.2776
10053TIP3   OH251573   2.962   5.283   2.922  1.3447 -0.1641  0.4443
10053TIP3    H151574   2.920   5.286   2.837 -0.5028  2.2474  1.3895
10053TIP3    H251575   3.026   5.355   2.921 -0.0507  1.1344  1.7390
10054TIP3   OH251576   1.350   2.011   5.176 -0.2219  0.0230 -0.3042
10054TIP3    H151577   1.268   1.988   5.219 -0.8335  2.5902 -0.0182
10054TIP3    H251578   1.326   2.024   5.085  0.1273 -0.4320 -0.4655
10055TIP3   OH251579   0.394   5.560  15.260 -0.1411 -0.0249 -0.3177
10055TIP3    H151580   0.409   5.470  15.232 -1.9554 -0.7646  0.9750
10055TIP3    H251581   0.379   5.553  15.354  2.2883  1.9614  0.2651
10056TIP3   OH251582   5.990   4.898   4.797 -0.2852  0.2716  0.0245
10056TIP3    H151583   6.034   4.958   4.857  0.0722  2.3220 -2.1950
10056TIP3    H251584   6.054   4.885   4.727 -1.2528 -0.8863 -0.6456
10057TIP3   OH251585   6.613   5.852  14.766  1.1072 -0.3344  0.3212
10057TIP3    H151586   6.581   5.937  14.735 -0.2782 -0.1035  2.2863
10057TIP3    H251587   6.677   5.874  14.834  1.8790 -0.8600 -0.2258
10058TIP3   OH251588   2.648   1.492  12.519 -0.0654 -0.4706  0.2785
10058TIP3    H151589   2.596   1.422  12.560  3.1490 -2.0319  1.8989
10058TIP3    H251590   2.692   1.449  12.446  0.6481  0.2783  0.2669
10059TIP3   OH251591   3.367   4.686   3.885  0.2655  0.0325 -0.1775
10059TIP3    H151592   3.322   4.692   3.801 -0.8082  0.8262  0.4347
10059TIP3    H251593   3.375   4.777   3.913 -2.0498 -0.3628  1.9545
10060TIP3   OH251594   5.905   0.052   0.278  0.1013  0.5278  0.4337
10060TIP3    H151595   5.889   0.137   0.238  1.0706  0.1703 -0.7218
10060TIP3    H251596   5.842  -0.007   0.236  1.2513  0.1112 -0.7343
10061TIP3   OH251597   0.476   3.709  11.010 -0.4529 -0.3008 -0.3118
10061TIP3    H151598   0.477   3.670  10.922  0.0392  0.4794 -0.6617
10061TIP3    H251599   0.448   3.799  10.995 -0.7591 -0.2810  0.3855
10062TIP3   OH251600   1.879   6.453   2.702 -0.0635 -0.2331 -0.1280
10062TIP3    H151601   1.852   6.373   2.658  1.6255 -1.3171  0.7745
10062TIP3    H251602   1.829   6.455   2.783 -1.1113  0.3442 -0.7745
10063TIP3   OH251603   0.002   0.351   0.219 -0.3851  0.2767 -0.1033
10063TIP3    H151604  -0.066   0.291   0.188 -1.3975  0.5681  1.5240
10063TIP3    H251605   0.057   0.298   0.276 -0.3643  0.5109  0.0932
10064TIP3   OH251606   2.235   2.301   3.812 -0.5075 -0.1265 -0.1157
10064TIP3    H151607   2.279   2.219   3.791 -0.7794  0.3860 -2.7851
10064TIP3    H251608   2.291   2.369   3.774 -2.2686  0.6825 -1.3211
10065TIP3   OH251609   1.651   5.320   4.018 -1.0414 -0.5677  0.3308
10065TIP3    H151610   1.686   5.409   4.007  0.6989 -1.5246 -2.3983
10065TIP3    H251611   1.699   5.285   4.094 -1.3395  0.6204  1.0769
10066TIP3   OH251612   3.906   6.764   1.954 -0.2787  0.6969 -0.1671
10066TIP3    H151613   3.855   6.779   1.875 -1.0026 -1.9773 -0.2491
10066TIP3    H251614   3.997   6.765   1.924 -0.5269  0.3159 -0.9495
10067TIP3   OH251615   0.626   4.513   4.146 -0.0805  0.1197 -0.2775
10067TIP3    H151616   0.598   4.584   4.205  0.2893 -0.9104  1.1598
10067TIP3    H251617   0.547   4.462   4.131  0.5391 -1.6388  2.1775
10068TIP3   OH251618   6.143   2.486  12.675 -0.0238 -0.0202 -0.6914
10068TIP3    H151619   6.079   2.497  12.745 -2.3399  2.9429 -3.0833
10068TIP3    H251620   6.103   2.420  12.617  1.3724 -1.6633  0.1783
10069TIP3   OH251621   2.451   0.345  10.892 -0.2794  0.2294 -0.2347
10069TIP3    H151622   2.387   0.337  10.963  2.4453  0.3143  2.3589
10069TIP3    H251623   2.448   0.262  10.846 -0.2352 -0.8600  1.6791
10070TIP3   OH251624   1.016   6.437  13.587 -0.4451  0.0672  0.0228
10070TIP3    H151625   1.085   6.376  13.560 -0.3573  0.0085  0.3749
10070TIP3    H251626   0.972   6.393  13.660 -1.4636 -0.2982 -0.8050
10071TIP3   OH251627   0.139   6.784  11.500 -0.4251 -0.2128  0.2417
10071TIP3    H151628   0.084   6.728  11.554  0.1316  0.9681  2.0596
10071TIP3    H251629   0.213   6.807  11.556  0.7920  0.0632 -1.4198
10072TIP3   OH251630   5.783   0.527  15.828  0.5774  0.0356  0.0916
10072TIP3    H151631   5.702   0.547  15.780 -0.5286 -2.0970  0.9844
10072TIP3    H251632   5.784   0.589  15.900 -1.0893 -0.8993  0.9534
10073TIP3   OH251633   3.802   4.052  13.083 -0.4853 -0.1447  0.2439
10073TIP3    H151634   3.836   4.032  12.996  1.8533  2.3622  0.5020
10073TIP3    H251635   3.798   3.967  13.128  1.5720 -1.0341 -1.1881
10074TIP3   OH251636   4.826   0.968   3.300  0.1582 -0.0901 -0.2029
10074TIP3    H151637   4.833   0.980   3.394  1.6906 -0.6227 -0.2425
10074TIP3    H251638   4.790   0.880   3.289 -0.1307  0.0168 -0.1183
10075TIP3   OH251639   0.823   1.033   6.442  0.7424  0.4766  0.2130
10075TIP3    H151640   0.906   1.057   6.399  0.5269  2.2971  0.7638
10075TIP3    H251641   0.783   0.971   6.382  0.6989  2.5544 -2.0215
10076TIP3   OH251642   3.854   3.354  16.955 -0.1798 -0.4733 -0.2240
10076TIP3    H151643   3.940   3.382  16.986 -0.8658 -0.6113  1.8277
10076TIP3    H251644   3.823   3.293  17.022 -2.5348  0.7542 -0.1754
10077TIP3   OH251645   3.677   4.803   0.840  0.2874 -0.3072 -0.3014
10077TIP3    H151646   3.678   4.845   0.926 -0.3750  0.1569 -0.5128
10077TIP3    H251647   3.686   4.876   0.778  0.9261 -0.6513 -0.6262
10078TIP3   OH251648   4.573   1.299   5.607  0.2587 -0.1210  0.1797
10078TIP3    H151649   4.635   1.259   5.668 -0.8212 -1.4572  0.4229
10078TIP3    H251650   4.629   1.338   5.539  1.3633 -2.1586 -0.1352
10079TIP3   OH251651   3.884   0.925  12.801 -0.0651 -0.6214 -0.0644
10079TIP3    H151652   3.889   0.891  12.712  2.4132 -0.4192 -0.0574
10079TIP3    H251653   3.841   1.010  12.792  0.6366 -0.3665 -1.1761
10080TIP3   OH251654   4.965   1.259  10.841 -0.2388 -0.4876  0.0808
10080TIP3    H151655   5.053   1.239  10.875 -1.4947 -2.4123  2.3789
10080TIP3    H251656   4.939   1.178  10.796 -0.8835  0.0405 -0.4983
10081TIP3   OH251657   6.621   5.308   5.599  0.3345 -0.0634 -0.5425
10081TIP3    H151658   6.610   5.257   5.679 -0.4991  0.1375 -0.5313
10081TIP3    H251659   6.661   5.247   5.537  1.8381  0.0372  0.2996
10082TIP3   OH251660   6.238   1.375  13.631 -0.0884  0.5357 -0.1476
10082TIP3    H151661   6.236   1.377  13.727  0.5180  0.1751 -0.1254
10082TIP3    H251662   6.327   1.402  13.609 -0.2625  0.7305 -0.6163
10083TIP3   OH251663   4.177   4.535   6.070  0.2137  0.3665 -0.1548
10083TIP3    H151664   4.267   4.546   6.102  1.1001 -2.1554 -1.6282
10083TIP3    H251665   4.126   4.518   6.149  1.4209 -0.4686  0.4611
10084TIP3   OH251666   2.841   0.567   0.973 -0.1343  0.2021  0.3202
10084TIP3    H151667   2.807   0.524   0.894 -0.9161 -1.4119  1.5148
10084TIP3    H251668   2.812   0.658   0.965  1.9567  0.6979 -2.4808
10085TIP3   OH251669   6.673   6.319  13.568 -0.2529 -0.4289 -0.6355
10085TIP3    H151670   6.744   6.254  13.571 -1.0359 -1.3307 -1.2956
10085TIP3    H251671   6.607   6.284  13.628 -0.0131  0.5792  0.2353
10086TIP3   OH251672   5.818   5.219   0.015 -0.1794 -0.5553  0.0876
10086TIP3    H151673   5.835   5.168   0.094  0.8357 -0.6204 -0.1752
10086TIP3    H251674   5.904   5.235  -0.023 -0.6366 -0.2415 -0.8322
10087TIP3   OH251675   2.557   0.638  15.413  0.0441 -0.3278 -0.0336
10087TIP3    H151676   2.476   0.669  15.372 -0.2922  0.6273  1.3236
10087TIP3    H251677   2.535   0.628  15.505  2.1144  2.1601  0.7633
10088TIP3   OH251678   5.983   0.147  11.561  0.0385  0.0619 -0.2913
10088TIP3    H151679   5.967   0.222  11.619 -0.8594 -0.1528 -0.2442
10088TIP3    H251680   5.907   0.146  11.502  0.4177 -0.3580 -0.7790
10089TIP3   OH251681   2.356   5.425   4.629 -0.0355  0.2820  0.0912
10089TIP3    H151682   2.321   5.512   4.648 -0.0915  0.2116  0.3144
10089TIP3    H251683   2.441   5.424   4.672  0.1823  0.4041 -0.3361
10090TIP3   OH251684   0.040   2.879  12.557 -0.0646  0.0450  1.1608
10090TIP3    H151685  -0.045   2.837  12.567 -0.1139 -0.0115  0.5029
10090TIP3    H251686   0.082   2.869  12.643 -0.3758 -0.6769  1.2299
10091TIP3   OH251687   0.034   2.024   2.053 -0.0060  0.5010 -0.3752
10091TIP3    H151688   0.029   1.935   2.017  0.8956  0.0234  0.6180
10091TIP3    H251689   0.028   2.011   2.148 -1.5988  1.6664 -0.3118
10092TIP3   OH251690   6.756   3.511  11.890 -0.5606 -0.0286 -0.1257
10092TIP3    H151691   6.711   3.571  11.949  0.6083 -0.1986  0.9515
10092TIP3    H251692   6.746   3.425  11.931  0.7588 -0.0672  0.1170
10093TIP3   OH251693   4.992   0.178  14.780  0.4656 -0.2204 -0.7371
10093TIP3    H151694   5.049   0.207  14.852 -0.0612 -0.3737 -0.2507
10093TIP3    H251695   4.955   0.258  14.745 -1.1462 -0.2929  0.7390
10094TIP3   OH251696   5.030   4.447  11.808 -0.4578  0.1247 -0.1783
10094TIP3    H151697   5.004   4.356  11.821 -2.3527  0.2976 -2.4220
10094TIP3    H251698   5.075   4.448  11.724  1.2173  0.9618  0.7067
10095TIP3   OH251699   5.961   2.446   4.853  0.5720 -0.0896 -0.7505
10095TIP3    H151700   5.868   2.464   4.867  0.7569  0.5629 -0.3635
10095TIP3    H251701   6.003   2.532   4.854  1.2400 -0.4178 -0.4611
10096TIP3   OH251702   6.243   5.582   1.587  0.5041 -0.4070  0.6294
10096TIP3    H151703   6.265   5.633   1.666 -0.4138  0.2303  0.4854
10096TIP3    H251704   6.308   5.512   1.585  0.5150 -0.4538  1.9830
10097TIP3   OH251705   1.848   5.489   1.359  0.1073 -0.6440 -0.1009
10097TIP3    H151706   1.899   5.556   1.405 -0.3987  0.0247 -0.5174
10097TIP3    H251707   1.882   5.406   1.394 -0.0571 -0.1530  1.2625
10098TIP3   OH251708   4.717   5.220   3.137 -0.0920  0.1954  0.2244
10098TIP3    H151709   4.786   5.269   3.092  0.2027 -0.0096  0.4477
10098TIP3    H251710   4.724   5.247   3.229  0.1591 -0.3616  0.3715
10099TIP3   OH251711   2.001   2.947  14.743  0.1875  0.2825 -0.9519
10099TIP3    H151712   1.986   2.860  14.706  0.6614 -0.0783 -0.3187
10099TIP3    H251713   1.953   3.007  14.686 -1.8189 -0.5953 -0.2075
10100TIP3   OH251714   2.241   1.216  12.737  0.3486 -0.3308 -0.0555
10100TIP3    H151715   2.259   1.198  12.645  0.5133 -0.0585 -0.0749
10100TIP3    H251716   2.164   1.273  12.737  0.3247 -0.3629 -0.0231
10101TIP3   OH251717   2.238   1.019   1.743  0.0392  0.1114 -0.5241
10101TIP3    H151718   2.230   0.925   1.756  2.0170 -0.1422 -0.9402
10101TIP3    H251719   2.152   1.047   1.712  0.1932 -2.0173 -3.0201
10102TIP3   OH251720   0.610   0.153  15.278  0.2199  0.8371 -0.2895
10102TIP3    H151721   0.701   0.129  15.262 -0.0888 -0.6496  0.0965
10102TIP3    H251722   0.567   0.071  15.300 -1.2581  1.4981 -0.6301
10103TIP3   OH251723   1.568   0.825  11.373 -0.3067 -0.0878  0.9372
10103TIP3    H151724   1.523   0.774  11.306  1.3669 -1.5873  0.9298
10103TIP3    H251725   1.635   0.874  11.325 -1.2602  1.3636  1.0768
10104TIP3   OH251726   6.042   6.383   3.691 -0.9456 -0.2003 -0.5785
10104TIP3    H151727   6.091   6.356   3.769 -1.2761 -2.6787 -1.1789
10104TIP3    H251728   5.985   6.308   3.672  0.5105 -0.4582 -4.3217
10105TIP3   OH251729   1.559   3.643   1.477 -0.2607  0.2106 -0.0821
10105TIP3    H151730   1.595   3.564   1.519  2.2701  1.7797  0.7924
10105TIP3    H251731   1.609   3.715   1.515 -2.3025  2.2353 -1.1325
10106TIP3   OH251732   5.367   6.444   0.522  0.2772  0.0975  0.4532
10106TIP3    H151733   5.308   6.372   0.547 -1.2829  1.0247 -0.4659
10106TIP3    H251734   5.444   6.400   0.487  0.0967 -1.1495  1.5544
10107TIP3   OH251735   3.658   5.147   0.367 -0.4688  0.3373  0.0948
10107TIP3    H151736   3.658   5.107   0.280  0.3773 -0.1705  0.3213
10107TIP3    H251737   3.751   5.158   0.388 -0.6320 -0.7204  1.4626
10108TIP3   OH251738   4.904   6.731  17.081  0.2851  0.3578 -0.4323
10108TIP3    H151739   4.880   6.702  16.993 -0.6764  0.1792 -0.1170
10108TIP3    H251740   4.836   6.794  17.106  0.4084  0.2194  0.2804
10109TIP3   OH251741   3.093   2.984  13.078 -0.3014  0.5555 -0.5309
10109TIP3    H151742   3.058   3.038  13.008  0.6150  1.1705 -0.5282
10109TIP3    H251743   3.182   3.018  13.092  0.1028 -0.6195 -0.1904
10110TIP3   OH251744   2.785   4.341  16.070  0.2594  0.2951 -0.1880
10110TIP3    H151745   2.840   4.293  16.133 -0.3388  0.3333  0.3712
10110TIP3    H251746   2.756   4.418  16.118 -1.8433 -0.6912  0.1828
10111TIP3   OH251747   5.060   0.784   3.600  0.0013 -0.5544  0.3363
10111TIP3    H151748   5.128   0.793   3.667  1.3015  0.0858 -1.0273
10111TIP3    H251749   5.095   0.718   3.540 -0.8564 -0.6596 -0.0438
10112TIP3   OH251750   4.802   5.720  10.704 -0.3585  0.5269  0.0150
10112TIP3    H151751   4.836   5.631  10.700  1.8298  1.3608 -1.0707
10112TIP3    H251752   4.710   5.710  10.726  0.0414 -1.9553  0.7535
10113TIP3   OH251753   4.902   1.800  13.015  0.2513 -0.5503 -0.0362
10113TIP3    H151754   4.905   1.896  13.021 -0.7103 -0.5915  1.4318
10113TIP3    H251755   4.904   1.782  12.921  1.6836  0.8477 -0.3012
10114TIP3   OH251756   4.608   5.269  15.157  0.4206  0.0620  0.1404
10114TIP3    H151757   4.566   5.183  15.169  1.3651 -0.4678 -0.2964
10114TIP3    H251758   4.564   5.306  15.080 -1.0942  0.6664  1.2740
10115TIP3   OH251759   3.479   5.020   2.820  0.3411  0.0231  0.2762
10115TIP3    H151760   3.567   5.056   2.831 -0.1340  1.1768  0.3092
10115TIP3    H251761   3.429   5.090   2.779 -1.4090  0.5348  3.1627
10116TIP3   OH251762   2.513   4.048  10.505 -0.0549  0.1266  0.5279
10116TIP3    H151763   2.432   3.996  10.514  1.5115 -2.3779  0.7912
10116TIP3    H251764   2.561   4.030  10.586  2.2555 -1.1680 -1.0705
10117TIP3   OH251765   0.420   1.818  13.691  0.4929 -0.4970 -0.6524
10117TIP3    H151766   0.513   1.818  13.670  0.6907 -0.0013  0.2060
10117TIP3    H251767   0.414   1.868  13.773 -0.4337 -1.1559 -0.3172
10118TIP3   OH251768   3.241   1.024  14.529  0.3300 -0.0438 -0.1892
10118TIP3    H151769   3.325   1.069  14.520  0.1929  0.2070 -0.2128
10118TIP3    H251770   3.253   0.966  14.604  0.3634  0.3558  0.1161
10119TIP3   OH251771   3.196   2.123   3.476  0.6568  0.2774 -0.2706
10119TIP3    H151772   3.273   2.175   3.500  0.3116  0.5506  0.2361
10119TIP3    H251773   3.227   2.068   3.404  1.4199  0.1531  0.1459
10120TIP3   OH251774   5.136   3.747  11.127 -0.4479 -0.3548 -0.0286
10120TIP3    H151775   5.148   3.841  11.116  4.5359 -0.6904  1.2666
10120TIP3    H251776   5.063   3.725  11.068 -1.1974  4.1239 -0.9644
10121TIP3   OH251777   1.893   5.690  13.340  0.4594 -0.2891 -0.2325
10121TIP3    H151778   1.920   5.626  13.274  2.6173 -0.7545  1.0428
10121TIP3    H251779   1.925   5.773  13.306  1.0482 -0.4456 -0.0770
10122TIP3   OH251780   4.184   6.227  11.531  0.0947 -0.2253  0.2712
10122TIP3    H151781   4.262   6.252  11.482  1.3706 -5.0149 -0.4406
10122TIP3    H251782   4.216   6.204  11.618 -0.9305  0.3634  0.8131
10123TIP3   OH251783   6.007   0.106   6.145 -0.1150  0.6889  0.5136
10123TIP3    H151784   5.922   0.084   6.106  0.3267  0.5828 -0.4146
10123TIP3    H251785   6.062   0.029   6.128  0.5770  1.3153 -0.1483
10124TIP3   OH251786   2.796   3.030  11.455 -0.5345  0.2180 -0.1996
10124TIP3    H151787   2.812   3.003  11.545 -0.1861  0.8534 -0.0732
10124TIP3    H251788   2.874   3.078  11.429 -1.2341  1.2952 -0.3522
10125TIP3   OH251789   4.353   5.826   2.808 -0.0016  0.4771 -0.3842
10125TIP3    H151790   4.354   5.825   2.904 -0.1903  0.2468 -0.3853
10125TIP3    H251791   4.278   5.772   2.784  0.1672  0.3662 -0.6664
10126TIP3   OH251792   3.966   1.404   4.215  0.2182 -0.8304  0.1103
10126TIP3    H151793   4.010   1.358   4.143 -0.9678 -2.5425  0.4403
10126TIP3    H251794   3.883   1.432   4.179  1.0427  1.3545 -0.1616
10127TIP3   OH251795   1.233   2.456   3.544  0.0358 -0.1835  0.9219
10127TIP3    H151796   1.302   2.407   3.499  0.8249  2.0921 -0.4762
10127TIP3    H251797   1.152   2.428   3.502  0.6115  0.7164 -0.8688
10128TIP3   OH251798   0.558   5.974  14.731  0.4354 -0.1349  0.3953
10128TIP3    H151799   0.638   5.994  14.779  1.5706 -0.0256 -1.4801
10128TIP3    H251800   0.503   6.051  14.743  1.6529  0.8714 -0.4023
10129TIP3   OH251801   1.455   2.465  16.354  0.0639 -0.7943  0.5736
10129TIP3    H151802   1.394   2.518  16.405  0.2153  0.9913 -1.0626
10129TIP3    H251803   1.540   2.507  16.367  0.0373 -0.0963 -1.4504
10130TIP3   OH251804   3.582   3.883   2.016 -0.0815 -0.6779 -0.1137
10130TIP3    H151805   3.584   3.969   1.975 -1.9672 -0.9251 -0.7782
10130TIP3    H251806   3.501   3.883   2.067 -0.7156 -2.4746 -1.0809
10131TIP3   OH251807   1.367   5.059   6.562 -0.1753 -0.0086  0.3206
10131TIP3    H151808   1.345   4.966   6.552  0.2680  0.0176 -0.8531
10131TIP3    H251809   1.391   5.089   6.475  1.9892  0.6310  1.0865
10132TIP3   OH251810   5.858   2.072   2.692 -0.0502  0.1639  0.0192
10132TIP3    H151811   5.817   2.133   2.632  0.0513  0.0892 -0.1280
10132TIP3    H251812   5.890   2.126   2.764  0.9762  0.4312 -0.6159
10133TIP3   OH251813   5.337   5.974   1.348  0.2498  0.4380 -0.2784
10133TIP3    H151814   5.350   5.895   1.296 -1.8430 -0.8519  1.0495
10133TIP3    H251815   5.244   5.993   1.340  0.5197  2.1218  0.3456
10134TIP3   OH251816   0.493   3.273  12.220 -0.2442  1.1325  0.7420
10134TIP3    H151817   0.423   3.229  12.268 -0.8956  1.1196 -0.2007
10134TIP3    H251818   0.453   3.354  12.188 -0.7057 -0.1527 -2.1576
10135TIP3   OH251819   2.878   1.847  11.849 -0.2325  0.3661  0.0897
10135TIP3    H151820   2.923   1.828  11.931 -1.1754  0.8238  0.7187
10135TIP3    H251821   2.842   1.762  11.821 -0.5580  0.3531  0.5430
10136TIP3   OH251822   4.866   3.244  12.737 -0.5310  0.2342 -0.2521
10136TIP3    H151823   4.879   3.174  12.800 -3.9056 -0.9818 -0.7958
10136TIP3    H251824   4.832   3.317  12.790 -0.1057  0.3568 -0.1515
10137TIP3   OH251825   1.688   5.209  10.661  0.1681  0.1081  0.0727
10137TIP3    H151826   1.593   5.212  10.672  0.1952 -0.7946  0.6578
10137TIP3    H251827   1.710   5.116  10.670  1.3496  0.5358  2.0696
10138TIP3   OH251828   1.738   0.627  13.590 -0.3310  0.2742  0.2384
10138TIP3    H151829   1.751   0.573  13.512  0.7266  1.4185 -0.3991
10138TIP3    H251830   1.653   0.668  13.577 -1.0200 -1.0480  0.6063
10139TIP3   OH251831   2.832   5.412  13.673 -0.2781  0.1109  0.3126
10139TIP3    H151832   2.815   5.467  13.750 -0.5664  0.2681  0.1365
10139TIP3    H251833   2.880   5.470  13.613  0.1482 -0.0806  0.4666
10140TIP3   OH251834   5.470   5.803   2.092 -0.0294  0.1517 -0.0642
10140TIP3    H151835   5.428   5.835   2.172 -0.6189  1.0212 -0.7270
10140TIP3    H251836   5.455   5.871   2.027  0.8295 -0.3528 -0.8113
10141TIP3   OH251837   0.924   3.859  11.785  0.3371  0.6316 -0.1018
10141TIP3    H151838   0.862   3.787  11.796  1.1544 -0.2444 -1.1212
10141TIP3    H251839   0.895   3.904  11.706 -0.8267  2.1110  1.1382
10142TIP3   OH251840   2.720   3.608  13.076 -0.3992  0.8294  0.1125
10142TIP3    H151841   2.709   3.514  13.091 -1.1062  0.7148 -1.1259
10142TIP3    H251842   2.777   3.637  13.148  0.4647 -0.6829  0.0523
10143TIP3   OH251843   0.993   2.014   3.446  0.8992 -0.4260 -0.1520
10143TIP3    H151844   0.978   2.090   3.501  0.5504 -0.5193 -0.1131
10143TIP3    H251845   1.082   1.987   3.465  0.8468 -0.3355  0.2160
10144TIP3   OH251846   6.196   0.502  12.180 -0.8256  0.2827 -0.2258
10144TIP3    H151847   6.151   0.464  12.255  1.2467 -1.9444 -0.0370
10144TIP3    H251848   6.240   0.427  12.138  1.2721  2.0777 -1.3358
10145TIP3   OH251849   6.116   0.231  15.691  0.0480 -0.3575 -0.1403
10145TIP3    H151850   6.087   0.267  15.608 -0.9181  1.0579  0.7754
10145TIP3    H251851   6.209   0.213  15.679  0.5936  2.4832 -0.6763
10146TIP3   OH251852   3.893   5.289  15.525 -0.2875 -0.2341  0.8509
10146TIP3    H151853   3.898   5.256  15.615  1.7828 -2.4548 -0.0194
10146TIP3    H251854   3.850   5.220  15.476  3.2608 -1.4031 -0.8273
10147TIP3   OH251855   4.759   3.914  15.736 -0.4497 -0.2376  0.4380
10147TIP3    H151856   4.747   3.826  15.699 -0.1085 -0.3425  0.5815
10147TIP3    H251857   4.739   3.973  15.664 -0.9513 -0.4269  0.4140
10148TIP3   OH251858   4.079   4.673  14.623 -0.1072 -0.1502 -0.7534
10148TIP3    H151859   4.144   4.620  14.670  0.9193  1.9966  0.2791
10148TIP3    H251860   4.088   4.646  14.531  0.0872 -2.0537 -0.2093
10149TIP3   OH251861   6.492   0.468  12.012 -0.3734  0.7267 -0.1195
10149TIP3    H151862   6.528   0.407  11.948 -0.6342  0.3392  0.1012
10149TIP3    H251863   6.449   0.535  11.960  1.1122  1.4808 -0.4064
10150TIP3   OH251864   5.129   1.015  14.628 -0.0976  0.2004  0.2747
10150TIP3    H151865   5.137   1.090  14.568 -0.2444 -0.8191 -1.0489
10150TIP3    H251866   5.124   0.939  14.570  2.9603 -1.1223  1.6613
10151TIP3   OH251867   5.561   5.043  12.996  0.3038  0.5562 -0.2291
10151TIP3    H151868   5.533   4.952  13.005 -1.0772  0.8902 -0.9980
10151TIP3    H251869   5.482   5.094  13.010  1.0842  1.6531  0.2537
10152TIP3   OH251870   6.668   1.143  11.550 -0.1949  0.2993  0.8208
10152TIP3    H151871   6.663   1.048  11.544  1.4199  0.0953  2.1373
10152TIP3    H251872   6.714   1.170  11.471  0.5403 -0.1561  1.0856
10153TIP3   OH251873   1.486   5.198   1.364  0.6963 -0.5102 -0.2756
10153TIP3    H151874   1.511   5.251   1.440  1.3342 -1.5094  0.2270
10153TIP3    H251875   1.569   5.169   1.327  0.3327 -3.2033  0.9217
10154TIP3   OH251876   0.422   2.578   0.455  0.8429  0.3791 -0.2900
10154TIP3    H151877   0.453   2.664   0.429 -0.8734  1.0426 -0.1914
10154TIP3    H251878   0.328   2.589   0.469  1.1262 -0.7109  2.9498
10155TIP3   OH251879   3.367   5.152   3.738  0.0982  0.5770 -0.2199
10155TIP3    H151880   3.306   5.214   3.777 -1.0297 -1.4146  1.2530
10155TIP3    H251881   3.332   5.136   3.650 -1.4846 -0.4745  0.5748
10156TIP3   OH251882   0.377   6.362   5.539  0.0505 -0.0224 -0.2614
10156TIP3    H151883   0.286   6.387   5.520  0.5485  0.0291 -2.7336
10156TIP3    H251884   0.416   6.441   5.577 -1.3879 -0.5949  2.5456
10157TIP3   OH251885   5.945   0.974  14.845  0.0276 -0.3400 -0.6605
10157TIP3    H151886   5.865   1.026  14.840 -0.9359 -1.8058 -0.4232
10157TIP3    H251887   5.926   0.895  14.796  0.7659 -1.4267  0.7683
10158TIP3   OH251888   6.375   6.720  15.102  0.0930  0.5639 -0.3207
10158TIP3    H151889   6.283   6.701  15.117  0.5226 -1.2840  0.1812
10158TIP3    H251890   6.376   6.781  15.028 -1.5803  1.6959  0.5750
10159TIP3   OH251891   6.389   2.683   0.209  0.1605  0.6768 -0.1931
10159TIP3    H151892   6.316   2.732   0.172 -0.3529  0.3065  0.3239
10159TIP3    H251893   6.466   2.739   0.193 -0.5784  2.2019  1.4017
10160TIP3   OH251894   4.497   3.450  15.638 -0.1284  0.1023 -0.4263
10160TIP3    H151895   4.481   3.356  15.646  1.9224 -0.3585 -1.4987
10160TIP3    H251896   4.540   3.460  15.553 -0.1204  1.9892 -0.2147
10161TIP3   OH251897   5.148   5.877  12.446  0.3901 -0.3746  0.1779
10161TIP3    H151898   5.191   5.944  12.392 -0.6519 -1.1874 -1.7208
10161TIP3    H251899   5.214   5.808  12.456  0.7625  0.0116  0.3908
10162TIP3   OH251900   2.891   6.076  16.996 -0.2789 -0.9258  0.5513
10162TIP3    H151901   2.915   6.169  16.989  0.0385 -0.7002  3.7697
10162TIP3    H251902   2.965   6.029  16.960 -1.1874  0.0435 -2.8226
10163TIP3   OH251903   0.876   0.816  14.441 -0.3559  0.0317  0.6053
10163TIP3    H151904   0.849   0.843  14.529 -2.1474 -1.4669  0.5365
10163TIP3    H251905   0.798   0.828  14.387  0.5436  0.3206 -0.6566
10164TIP3   OH251906   4.471   0.243  14.472  0.0573  0.0180  0.9114
10164TIP3    H151907   4.404   0.191  14.427  2.3571 -0.8617 -1.6132
10164TIP3    H251908   4.484   0.319  14.415 -1.2024  1.9940  3.1346
10165TIP3   OH251909   5.548   6.284   1.282  0.9388  0.0402 -0.2264
10165TIP3    H151910   5.472   6.241   1.244  0.4931  1.6506 -1.2043
10165TIP3    H251911   5.594   6.322   1.207  1.7443  0.5701  0.5287
10166TIP3   OH251912   1.019   1.799  17.225 -0.5531  0.2416  0.4077
10166TIP3    H151913   0.926   1.790  17.245 -0.8135  2.1757  0.1570
10166TIP3    H251914   1.026   1.779  17.132 -1.1375  2.5422 -0.1684
10167TIP3   OH251915   0.102   4.838   2.421  0.0321  0.3461 -0.1004
10167TIP3    H151916   0.089   4.744   2.432  1.3254  0.2748  0.8340
10167TIP3    H251917   0.060   4.877   2.498 -0.3710  0.5283 -0.4112
10168TIP3   OH251918   3.037   5.921   3.053 -0.0058  0.3148  0.0506
10168TIP3    H151919   3.126   5.910   3.085  0.5965 -0.0883 -1.6884
10168TIP3    H251920   2.982   5.890   3.125  1.2711 -0.0737  0.8840
10169TIP3   OH251921   3.417   1.351   1.175 -0.3454  0.0140  0.7299
10169TIP3    H151922   3.375   1.417   1.229 -2.8527 -1.6590  0.9640
10169TIP3    H251923   3.418   1.272   1.230 -1.8428 -1.3912 -1.1637
10170TIP3   OH251924   2.537   5.049   1.111  0.5672  0.4544 -0.4300
10170TIP3    H151925   2.628   5.041   1.140  0.1915  1.1957  0.9558
10170TIP3    H251926   2.517   4.964   1.071  1.4294 -0.1792  0.4761
10171TIP3   OH251927   4.692   2.772   0.413  0.0078 -0.0300  0.6079
10171TIP3    H151928   4.717   2.695   0.462  1.4388  0.6523  0.9587
10171TIP3    H251929   4.648   2.829   0.477  1.2929  0.5764  0.9669
10172TIP3   OH251930   1.499   3.276  12.106 -0.4364  0.0255 -0.4758
10172TIP3    H151931   1.405   3.266  12.117 -0.2881 -1.4602 -0.4125
10172TIP3    H251932   1.532   3.292  12.194 -0.4782 -0.8542 -0.2964
10173TIP3   OH251933   4.805   6.449   2.445  0.0946 -0.0297 -0.2910
10173TIP3    H151934   4.778   6.371   2.493  0.1889  0.3424  0.3822
10173TIP3    H251935   4.851   6.502   2.510  1.9477 -0.3996 -1.2650
10174TIP3   OH251936   2.876   3.065   1.971 -0.1354  0.7664 -0.3295
10174TIP3    H151937   2.805   3.105   2.022 -0.9257 -1.2727  0.2399
10174TIP3    H251938   2.878   2.974   2.001  1.4374  0.3101 -1.7545
10175TIP3   OH251939   1.165   0.046  15.242  0.4202 -0.2363  0.1668
10175TIP3    H151940   1.235   0.045  15.308  0.8664 -0.6776 -0.3114
10175TIP3    H251941   1.153  -0.046  15.218  1.8902  0.1263 -2.0772
10176TIP3   OH251942   0.820   3.840  15.653 -1.1795 -0.5864 -0.0083
10176TIP3    H151943   0.787   3.786  15.581 -0.5537 -0.2326 -0.5664
10176TIP3    H251944   0.874   3.907  15.611 -0.5662 -0.5524  0.8023
10177TIP3   OH251945   5.460   5.705  10.950  0.1745 -0.2125 -0.1585
10177TIP3    H151946   5.402   5.645  10.997  0.5334  0.1933  0.8048
10177TIP3    H251947   5.401   5.770  10.912 -0.0691 -0.2395  0.1754
10178TIP3   OH251948   6.190   1.165  11.062 -0.1188 -0.3062 -0.0189
10178TIP3    H151949   6.210   1.239  11.005 -1.2707 -1.3238 -1.7887
10178TIP3    H251950   6.129   1.201  11.127  0.0241  0.4988 -0.3267
10179TIP3   OH251951   5.193   4.886  10.810 -0.2234 -0.3191  0.2595
10179TIP3    H151952   5.199   4.805  10.861  0.0962  1.2821  2.9053
10179TIP3    H251953   5.280   4.925  10.817 -0.5531  0.5654 -0.4354
10180TIP3   OH251954   2.574   4.768   1.515  0.4157 -0.1688 -0.1834
10180TIP3    H151955   2.551   4.740   1.426  3.1344  0.5217 -1.1633
10180TIP3    H251956   2.620   4.693   1.553 -0.7241 -0.4547  0.6252
10181TIP3   OH251957   0.540   4.244   5.697 -0.4000  0.1993 -0.0540
10181TIP3    H151958   0.613   4.228   5.756 -1.3135 -0.0170  1.0393
10181TIP3    H251959   0.520   4.337   5.708 -0.7932  0.0823  0.2486
10182TIP3   OH251960   1.020   4.995   2.926  0.2238 -0.1586 -0.0173
10182TIP3    H151961   1.048   4.988   3.017 -0.0659 -0.6478  0.0380
10182TIP3    H251962   0.925   5.007   2.931  0.3521  0.9996 -0.2157
10183TIP3   OH251963   2.094   3.539  13.723 -0.2029 -0.5593  0.4332
10183TIP3    H151964   2.157   3.563  13.655  0.7738  1.2335  1.8949
10183TIP3    H251965   2.132   3.463  13.766  1.4388  1.0041  1.8380
10184TIP3   OH251966   4.264   1.018   3.473 -0.5024 -0.5512  0.1446
10184TIP3    H151967   4.315   0.938   3.485  1.9664  1.2150  1.9217
10184TIP3    H251968   4.212   1.026   3.553  0.7134  0.5955  0.8424
10185TIP3   OH251969   3.239   3.115   4.645 -0.0085  0.1891  0.6297
10185TIP3    H151970   3.261   3.104   4.738  1.1785 -1.3382  0.1777
10185TIP3    H251971   3.284   3.043   4.601  0.1748  1.4424 -1.2606
10186TIP3   OH251972   5.362   0.208  10.606  0.0053 -0.7392  0.3558
10186TIP3    H151973   5.416   0.157  10.546  0.1339 -0.7201  0.4559
10186TIP3    H251974   5.289   0.149  10.629 -1.6160  0.2590 -2.0835
10187TIP3   OH251975   2.954   1.317  12.720 -0.9720  0.6335 -0.3868
10187TIP3    H151976   2.979   1.308  12.628 -0.4648 -0.7017 -0.1278
10187TIP3    H251977   2.858   1.316  12.718 -0.9603 -0.0438 -0.8514
10188TIP3   OH251978   6.114   5.466  11.876 -0.4139 -0.3421  0.8009
10188TIP3    H151979   6.200   5.431  11.854 -0.5589 -1.0019  1.2654
10188TIP3    H251980   6.131   5.537  11.938  0.0234  1.7425 -1.5937
10189TIP3   OH251981   3.529   2.028  10.868 -0.6281  0.4686  0.1538
10189TIP3    H151982   3.607   1.989  10.828 -0.3572 -1.2354  2.2559
10189TIP3    H251983   3.460   2.015  10.804  0.3677  0.1005 -0.8549
10190TIP3   OH251984   4.138   6.458  13.730  0.2251  0.1037  0.4446
10190TIP3    H151985   4.073   6.476  13.799 -1.3019 -1.2998 -0.5841
10190TIP3    H251986   4.129   6.364  13.714  0.9167  0.3361 -1.3377
10191TIP3   OH251987   6.757   4.310   2.627 -0.5416 -0.1081 -0.0305
10191TIP3    H151988   6.774   4.294   2.535  2.3035  0.4614  0.3301
10191TIP3    H251989   6.752   4.406   2.634 -1.0793 -0.1632  0.3334
10192TIP3   OH251990   4.226   4.755   0.279  0.7678 -0.0867  0.3188
10192TIP3    H151991   4.223   4.813   0.355  2.6466  0.3322  0.0989
10192TIP3    H251992   4.142   4.709   0.280 -0.7977  2.6451  0.4784
10193TIP3   OH251993   5.968   5.570  12.800 -0.6327 -0.3643  0.8044
10193TIP3    H151994   5.991   5.642  12.859 -3.0475 -0.4534  1.9461
10193TIP3    H251995   6.051   5.526  12.781  1.0522  3.3894 -0.8598
10194TIP3   OH251996   6.654   4.095  10.515  0.3480  0.4651  0.2598
10194TIP3    H151997   6.566   4.058  10.530  0.8168 -1.1292 -0.7714
10194TIP3    H251998   6.651   4.180  10.558 -1.2167 -0.2136  1.5914
10195TIP3   OH251999   6.682   1.681  16.463  0.0897  0.1858 -0.2085
10195TIP3    H152000   6.696   1.723  16.548 -0.3669  1.7579 -0.8943
10195TIP3    H252001   6.589   1.693  16.445  0.0751 -0.6226 -0.6737
10196TIP3   OH252002   3.512   1.933  14.174  0.2872 -0.2753  0.5937
10196TIP3    H152003   3.528   1.853  14.125  0.7395  0.4645 -0.4914
10196TIP3    H252004   3.600   1.968  14.192  0.1736 -0.9855  2.7113
10197TIP3   OH252005   2.603   0.689  13.268  0.0906 -0.5451 -0.2000
10197TIP3    H152006   2.547   0.657  13.196 -1.4411 -0.1188  0.7820
10197TIP3    H252007   2.598   0.784  13.262 -0.3540 -0.5055  0.6922
10198TIP3   OH252008   3.249   3.968   1.272 -0.1179 -0.2675  0.1051
10198TIP3    H152009   3.155   3.976   1.292 -0.5322  0.0079 -1.8324
10198TIP3    H252010   3.253   3.972   1.176  1.9292  0.2135  0.1986
10199TIP3   OH252011   4.018   1.438   5.880  0.5414  0.3225  0.8489
10199TIP3    H152012   3.999   1.499   5.951 -0.6745 -1.0393  1.7231
10199TIP3    H252013   4.065   1.365   5.922  0.0242 -0.3775  0.2386
10200TIP3   OH252014   1.289   3.498  17.170 -0.5830  0.1139  0.1452
10200TIP3    H152015   1.197   3.515  17.153 -0.7901  0.9107  1.8552
10200TIP3    H252016   1.293   3.405  17.193 -0.8155 -0.1416 -0.8634
10201TIP3   OH252017   1.439   4.293   1.903 -0.0419 -0.4648 -0.2236
10201TIP3    H152018   1.358   4.280   1.853 -0.4861  0.6986  0.1813
10201TIP3    H252019   1.415   4.356   1.971  0.7719 -1.4240  0.9661
10202TIP3   OH252020   0.287   5.237   2.066 -0.8178 -0.4639 -0.2802
10202TIP3    H152021   0.199   5.238   2.029 -0.6116  0.4769 -0.7710
10202TIP3    H252022   0.273   5.244   2.160 -1.2748 -0.4375 -0.3462
10203TIP3   OH252023   1.897   1.715  12.727  0.0606  0.8373 -0.3324
10203TIP3    H152024   1.938   1.796  12.757  2.6974  0.1263 -1.7991
10203TIP3    H252025   1.936   1.699  12.641 -2.3677 -0.6145 -1.2260
10204TIP3   OH252026   6.616   1.172  10.885  0.1440  0.2584  0.3456
10204TIP3    H152027   6.560   1.204  10.956  0.5391  1.5280  0.0919
10204TIP3    H252028   6.705   1.189  10.914  0.3833 -1.0218  0.3914
10205TIP3   OH252029   1.453   3.434   2.419  0.1866 -0.0923 -0.0922
10205TIP3    H152030   1.384   3.429   2.353 -0.6160 -0.2301  0.7539
10205TIP3    H252031   1.496   3.518   2.402 -0.2467  0.0362 -0.5582
10206TIP3   OH252032   0.679   6.440   3.794 -0.3015  0.1334 -0.2262
10206TIP3    H152033   0.600   6.422   3.846 -0.4254  0.5537 -0.2686
10206TIP3    H252034   0.648   6.492   3.721 -0.0270  0.0510 -0.4017
10207TIP3   OH252035   1.287   5.963  12.312  0.0503 -0.5326  0.0418
10207TIP3    H152036   1.361   6.025  12.305 -0.9572  0.6276 -0.5236
10207TIP3    H252037   1.281   5.945  12.405  0.6242 -0.1073  0.1697
10208TIP3   OH252038   3.194   0.926   4.822 -0.1133  0.2740 -0.1591
10208TIP3    H152039   3.127   0.986   4.787 -0.8948  0.3094  1.3572
10208TIP3    H252040   3.185   0.847   4.768  0.3149  1.1800 -1.5860
10209TIP3   OH252041   0.231   1.814  12.851  0.1160 -0.1355 -0.1993
10209TIP3    H152042   0.193   1.903  12.852  1.4302  0.4533 -1.1338
10209TIP3    H252043   0.317   1.824  12.890 -0.1203 -1.2042  0.6024
10210TIP3   OH252044   5.597   4.821  13.304 -0.1467 -0.5732 -0.4432
10210TIP3    H152045   5.610   4.916  13.312  0.1537 -0.5155 -1.5348
10210TIP3    H252046   5.660   4.794  13.237  0.4155 -1.6897  0.5117
10211TIP3   OH252047   5.385   4.070   0.252  0.4979 -0.3819 -0.0874
10211TIP3    H152048   5.401   3.985   0.293  0.7195  0.0404  0.7321
10211TIP3    H252049   5.347   4.050   0.167  0.2791 -1.2932  0.2228
10212TIP3   OH252050   6.535   0.936   4.140  0.0553 -0.4441 -0.4857
10212TIP3    H152051   6.488   0.980   4.211  0.4858  0.4382 -0.7486
10212TIP3    H252052   6.626   0.961   4.151  0.1511 -0.4207 -1.2583
10213TIP3   OH252053   4.681   0.054   3.860 -0.6073 -0.1953 -0.3833
10213TIP3    H152054   4.696   0.082   3.770  0.7213  0.2337 -0.0472
10213TIP3    H252055   4.590   0.024   3.862 -0.9299  0.6902 -1.6298
10214TIP3   OH252056   3.480   6.421   1.127 -0.2703 -0.2460 -0.2580
10214TIP3    H152057   3.428   6.352   1.087  1.1178 -1.8959  0.7626
10214TIP3    H252058   3.571   6.400   1.104  0.3691 -0.0861  2.0086
10215TIP3   OH252059   6.341   4.440   5.731 -0.1828 -0.1618  0.0628
10215TIP3    H152060   6.307   4.359   5.770 -0.1137  0.6843  1.9290
10215TIP3    H252061   6.266   4.500   5.732  0.1094  0.2028 -0.1402
10216TIP3   OH252062   4.561   2.776   1.869  0.2804  0.3467 -0.0961
10216TIP3    H152063   4.532   2.685   1.873  1.4663 -0.0691 -0.7437
10216TIP3    H252064   4.624   2.785   1.941 -0.2563  0.8191  0.3254
10217TIP3   OH252065   1.528   0.461   4.899 -0.0807  0.6623 -0.2962
10217TIP3    H152066   1.483   0.501   4.974  0.7368  0.3500  0.3808
10217TIP3    H252067   1.479   0.490   4.823 -2.7590 -1.4480  0.5484
10218TIP3   OH252068   1.807   4.096  16.023  0.2429  0.2840 -0.6305
10218TIP3    H152069   1.795   4.028  16.090 -1.9991 -0.3652 -1.6303
10218TIP3    H252070   1.900   4.095  16.004  0.3418 -2.1666 -0.1953
10219TIP3   OH252071   3.994   5.133  17.007 -0.4486 -0.2114 -0.2486
10219TIP3    H152072   4.072   5.142  16.953  0.0401 -1.0265  0.3092
10219TIP3    H252073   3.951   5.218  17.002  0.6604  0.3490 -0.2526
10220TIP3   OH252074   5.340   5.693  14.397  0.0356 -0.0140  0.1359
10220TIP3    H152075   5.383   5.623  14.348 -0.5619  0.3828 -0.9810
10220TIP3    H252076   5.248   5.669  14.398  0.1181 -0.3089  1.5863
10221TIP3   OH252077   5.677   4.138   1.099 -0.4273  0.2276 -0.0113
10221TIP3    H152078   5.642   4.210   1.152  0.4746 -0.0419  0.9648
10221TIP3    H252079   5.741   4.095   1.156 -2.3030 -2.5176  0.0735
10222TIP3   OH252080   0.895   4.878  12.951 -0.5421  0.4121  0.1198
10222TIP3    H152081   0.975   4.916  12.988 -1.4985  0.9814  1.6541
10222TIP3    H252082   0.919   4.787  12.930  1.2961  1.3600 -2.0687
10223TIP3   OH252083   3.289   1.857  13.665 -0.4538 -0.1627 -0.1211
10223TIP3    H152084   3.202   1.895  13.669  0.1334  1.3756 -1.5496
10223TIP3    H252085   3.341   1.908  13.728  0.0121  0.5349 -1.0665
10224TIP3   OH252086   0.216   6.262  14.340 -0.4524 -0.6420 -0.3710
10224TIP3    H152087   0.233   6.207  14.416  0.8893 -0.5604 -0.5966
10224TIP3    H252088   0.184   6.201  14.273  0.1477 -1.0107 -0.3270
10225TIP3   OH252089   2.566   5.576   5.500  0.0031 -0.5639  0.1274
10225TIP3    H152090   2.642   5.521   5.519 -0.7594 -1.4707  0.6072
10225TIP3    H252091   2.523   5.532   5.426 -1.1295 -1.1313  1.1160
10226TIP3   OH252092   6.204   4.245   4.469 -0.4678 -0.1180  0.2082
10226TIP3    H152093   6.282   4.265   4.521  0.1409  0.5831 -0.9298
10226TIP3    H252094   6.144   4.318   4.487  0.6686  1.3738 -1.8342
10227TIP3   OH252095   5.593   1.351  15.456 -0.2799  0.4237 -0.0321
10227TIP3    H152096   5.568   1.388  15.372  3.1697  2.9528 -0.0686
10227TIP3    H252097   5.567   1.417  15.520 -1.3387 -0.7283  0.7556
10228TIP3   OH252098   4.866   5.858  12.044 -0.8998 -0.7501 -0.0258
10228TIP3    H152099   4.848   5.869  12.137 -0.6240  0.4006 -0.0988
10228TIP3    H252100   4.960   5.846  12.039 -0.9486 -1.0829 -0.1306
10229TIP3   OH252101   5.270   2.328   1.153 -0.0753 -0.1814 -0.3256
10229TIP3    H152102   5.342   2.337   1.091  0.5512 -0.9370  0.2836
10229TIP3    H252103   5.211   2.265   1.113  0.3908 -0.7651 -0.0951
10230TIP3   OH252104   6.679   5.217   1.275  0.4897  0.0978 -0.1947
10230TIP3    H152105   6.588   5.245   1.277  0.6418  0.4813  1.5215
10230TIP3    H252106   6.675   5.123   1.258 -0.1719  0.2949 -1.1952
10231TIP3   OH252107   5.784   3.816  13.797  0.0246  0.1616  0.0776
10231TIP3    H152108   5.845   3.759  13.750  0.0881  0.1229  0.2059
10231TIP3    H252109   5.824   3.828  13.883 -0.9947 -1.2500  0.7560
10232TIP3   OH252110   2.751   0.953   5.332  0.3044 -0.0037  0.1425
10232TIP3    H152111   2.783   0.969   5.421  0.9463  1.2507 -0.2851
10232TIP3    H252112   2.790   0.869   5.307 -0.1301 -0.5126  1.1486
10233TIP3   OH252113   1.458   5.247  15.337 -0.1931 -0.2140  0.2390
10233TIP3    H152114   1.548   5.242  15.372 -0.0847 -0.2155 -0.0432
10233TIP3    H252115   1.440   5.341  15.332 -0.2811 -0.2154  0.4807
10234TIP3   OH252116   4.576   1.929  11.847  0.0433  0.1529  0.6675
10234TIP3    H152117   4.610   1.947  11.760 -2.1880 -0.9506 -0.4574
10234TIP3    H252118   4.615   1.845  11.872 -1.5355 -0.9260 -0.4586
10235TIP3   OH252119   4.956   3.486  14.281  0.4973 -0.0307 -0.6673
10235TIP3    H152120   4.977   3.573  14.247 -0.5688 -0.1442 -1.6521
10235TIP3    H252121   4.890   3.503  14.349  0.9058 -0.0086 -0.2713
10236TIP3   OH252122   0.147   6.257   5.252  0.6294 -0.3547 -0.0034
10236TIP3    H152123   0.163   6.351   5.238  0.2253  0.1710  2.7802
10236TIP3    H252124   0.168   6.217   5.168  0.3388  2.2831 -1.4094
10237TIP3   OH252125   1.114   6.344  16.236 -0.8119 -0.0521 -1.2473
10237TIP3    H152126   1.083   6.316  16.150 -0.3136 -1.6471 -0.9343
10237TIP3    H252127   1.209   6.345  16.228 -0.6670 -2.2231 -0.1468
10238TIP3   OH252128   2.149   2.214   4.175 -0.0577  0.4895  0.1963
10238TIP3    H152129   2.102   2.188   4.095  0.6764  0.9428 -0.3962
10238TIP3    H252130   2.202   2.137   4.197  0.8826  0.8783 -0.6305
10239TIP3   OH252131   0.116   2.394  13.310 -0.3477  0.2726 -0.2407
10239TIP3    H152132   0.151   2.328  13.370  1.6453  1.6643  0.1581
10239TIP3    H252133   0.097   2.346  13.230 -0.4000 -1.0759  0.5610
10240TIP3   OH252134   1.459   4.688   5.521  0.0192  0.3270 -0.7633
10240TIP3    H152135   1.467   4.671   5.427 -0.9769 -0.0382 -0.7866
10240TIP3    H252136   1.409   4.770   5.526  0.9822  0.9027 -0.5702
10241TIP3   OH252137   0.293   3.059   1.006  0.2453  0.1588  0.4706
10241TIP3    H152138   0.241   3.098   1.076 -0.1343 -0.7153  0.6812
10241TIP3    H252139   0.383   3.067   1.037  0.1562  0.6232  0.6292
10242TIP3   OH252140   3.582   2.859   5.032 -0.0136  0.1304  0.0720
10242TIP3    H152141   3.515   2.880   4.968 -1.6740 -0.1337  1.6837
10242TIP3    H252142   3.641   2.799   4.986 -1.1211  0.0058 -1.2178
10243TIP3   OH252143   3.349   2.565   0.216  0.1273 -0.2523  0.1514
10243TIP3    H152144   3.326   2.657   0.206  2.2533  0.1994 -0.8282
10243TIP3    H252145   3.278   2.528   0.268 -1.2695  1.7097 -0.2992
10244TIP3   OH252146   0.983   3.583  16.579 -0.0148 -0.4440 -0.1503
10244TIP3    H152147   0.912   3.632  16.537 -0.2533 -0.3491  0.3534
10244TIP3    H252148   1.063   3.618  16.540 -0.1773  0.4384  0.2806
10245TIP3   OH252149   0.604   4.456   1.437  0.4907  0.1481 -0.2040
10245TIP3    H152150   0.548   4.379   1.441  1.5288 -0.5579  1.3327
10245TIP3    H252151   0.543   4.530   1.437 -0.4975 -0.6469 -1.3393
10246TIP3   OH252152   0.044   2.375   3.180  0.4853 -0.0354  0.0222
10246TIP3    H152153   0.021   2.463   3.210  0.5723  0.6645 -1.8817
10246TIP3    H252154   0.104   2.342   3.246 -0.0200  1.1053  1.0679
10247TIP3   OH252155   2.691   6.454  16.209  0.9848 -0.3729  0.1182
10247TIP3    H152156   2.628   6.457  16.137 -2.2594 -0.7842  2.7754
10247TIP3    H252157   2.711   6.361  16.221 -2.7049 -0.9174  3.0612
10248TIP3   OH252158   0.524   1.738   3.432 -0.5198 -0.1514  0.3933
10248TIP3    H152159   0.431   1.724   3.415 -0.6386  1.7100 -0.7106
10248TIP3    H252160   0.550   1.804   3.367  1.1072  0.7994  1.9675
10249TIP3   OH252161   2.408   3.252   5.563 -0.5670 -0.4282  0.4234
10249TIP3    H152162   2.478   3.200   5.603 -0.3080 -0.2685  0.1849
10249TIP3    H252163   2.378   3.311   5.632  1.4862  1.4928 -0.2591
10250TIP3   OH252164   0.464   0.075  14.350  0.0152  0.1719  0.2650
10250TIP3    H152165   0.487   0.030  14.269 -0.7314 -1.9918  1.2310
10250TIP3    H252166   0.546   0.115  14.379  1.3867 -2.8254  0.7570
10251TIP3   OH252167   0.473   3.326   5.700  0.5790  0.4843 -0.1952
10251TIP3    H152168   0.410   3.346   5.769  0.5968  0.7040 -0.2441
10251TIP3    H252169   0.493   3.233   5.712 -0.0101  0.3295 -0.3828
10252TIP3   OH252170   4.974   5.265   2.143 -0.3239 -0.2722 -0.5136
10252TIP3    H152171   5.004   5.255   2.233  2.0252  0.7699 -1.1262
10252TIP3    H252172   5.034   5.212   2.091 -0.3004  0.8551 -1.6731
10253TIP3   OH252173   2.486   2.891  13.870  1.2453 -0.1145  0.5485
10253TIP3    H152174   2.396   2.918  13.852  2.2953  1.0457 -3.5062
10253TIP3    H252175   2.495   2.899  13.965 -3.1925 -1.2179  1.1429
10254TIP3   OH252176   2.137   0.080   4.865  1.2785  0.3514  0.4083
10254TIP3    H152177   2.135   0.061   4.771  0.6304 -0.3441  0.5627
10254TIP3    H252178   2.164  -0.002   4.906 -2.5860 -0.6367  1.1597
10255TIP3   OH252179   5.688   2.057   4.720 -0.4504  0.3873 -0.1086
10255TIP3    H152180   5.767   2.061   4.665  0.3568  0.2787  1.0109
10255TIP3    H252181   5.682   2.145   4.758 -0.8008  0.3611 -0.1091
10256TIP3   OH252182   2.708   2.664   5.123  0.1973  0.6400  0.3067
10256TIP3    H152183   2.633   2.723   5.127 -3.2870 -3.6445  3.1563
10256TIP3    H252184   2.743   2.664   5.212  0.0657 -1.5493  0.3977
10257TIP3   OH252185   6.242   5.630   5.826  0.4697  0.1696  0.4127
10257TIP3    H152186   6.151   5.633   5.797  0.3239 -0.4940  0.7942
10257TIP3    H252187   6.290   5.679   5.759 -0.3569  1.7331  0.9403
10258TIP3   OH252188   4.428   2.002   1.127  0.1102  0.0746  0.1002
10258TIP3    H152189   4.521   1.988   1.112 -0.2578 -1.3863 -0.8975
10258TIP3    H252190   4.396   2.044   1.047 -0.2801 -0.3058  0.0550
10259TIP3   OH252191   1.406   3.940   4.285  0.1618 -0.1234  0.0926
10259TIP3    H152192   1.478   3.892   4.244 -0.0373 -0.8115  0.5366
10259TIP3    H252193   1.343   3.872   4.310  0.7973  0.1466  2.5998
10260TIP3   OH252194   3.538   5.653  14.491 -0.3422 -0.0815  0.0308
10260TIP3    H152195   3.581   5.573  14.461 -0.8378 -0.7692  1.1244
10260TIP3    H252196   3.590   5.681  14.567  0.7767  1.5204 -1.3059
10261TIP3   OH252197   6.563   3.295  13.063  0.1635 -0.2342  0.1263
10261TIP3    H152198   6.525   3.285  13.151  1.4491  2.5048  1.0537
10261TIP3    H252199   6.492   3.331  13.010  0.0325  0.2585  0.6296
10262TIP3   OH252200   5.338   4.061  13.198 -0.7060  0.1261  0.3194
10262TIP3    H152201   5.421   4.103  13.219 -1.6379  2.0665  0.2423
10262TIP3    H252202   5.305   4.109  13.122 -2.0115 -0.4764  0.4807
10263TIP3   OH252203   2.691   1.981   2.543 -0.2896 -0.7928 -0.3845
10263TIP3    H152204   2.696   1.912   2.609 -0.1535 -0.4684 -0.0530
10263TIP3    H252205   2.775   1.978   2.498  0.6584  0.7359  1.2291
10264TIP3   OH252206   6.499   4.548  13.512 -0.2474 -0.5855 -0.1173
10264TIP3    H152207   6.438   4.608  13.554 -1.2299 -0.5676 -1.5134
10264TIP3    H252208   6.443   4.482  13.471  0.7959 -2.2005  0.9896
10265TIP3   OH252209   2.444   6.049   5.826 -0.3807  0.2844 -0.1148
10265TIP3    H152210   2.423   6.002   5.746 -1.1064  2.1999 -1.0848
10265TIP3    H252211   2.432   6.142   5.804  1.5181  0.9754  1.5848
10266TIP3   OH252212   2.469   5.461  16.663 -0.4252 -0.2431  0.0450
10266TIP3    H152213   2.405   5.510  16.713  0.0414  1.7577 -1.2401
10266TIP3    H252214   2.552   5.506  16.679  0.5290 -2.2614  0.9945
10267TIP3   OH252215   4.566   5.254  13.829 -0.7347  0.3783  0.1312
10267TIP3    H152216   4.648   5.263  13.877  0.5778  0.4577 -2.0584
10267TIP3    H252217   4.550   5.159  13.827 -0.4781  0.3332  0.2316
10268TIP3   OH252218   3.720   0.860   3.615  0.1895  0.1387  0.3922
10268TIP3    H152219   3.657   0.929   3.596 -0.8802 -0.4673  1.6574
10268TIP3    H252220   3.796   0.905   3.651 -0.6542  0.6199  1.5646
10269TIP3   OH252221   2.690   0.795  11.892 -0.1607 -0.4798  0.5540
10269TIP3    H152222   2.705   0.799  11.987  2.0486  0.2773  0.2061
10269TIP3    H252223   2.743   0.867  11.857 -2.5013  0.5056 -1.0952
10270TIP3   OH252224   2.745   2.277   2.398 -0.1201  0.5802 -0.0605
10270TIP3    H152225   2.663   2.227   2.392  1.5039 -2.4702  1.8649
10270TIP3    H252226   2.810   2.222   2.354  2.0667  0.0223  3.6155
10271TIP3   OH252227   0.069   3.199  12.544  0.1860 -0.5455 -0.3537
10271TIP3    H152228   0.084   3.230  12.634  1.3421 -2.0135 -0.0221
10271TIP3    H252229  -0.026   3.191  12.537 -0.0558  1.9626 -0.0840
10272TIP3   OH252230   5.387   2.948   5.837 -0.2967 -0.2942 -0.3006
10272TIP3    H152231   5.435   3.027   5.861 -0.7240 -0.3025  0.6032
10272TIP3    H252232   5.441   2.907   5.769  1.0095 -0.3307  0.7230
10273TIP3   OH252233   0.709   2.759  16.998  0.6656 -0.1199 -0.4331
10273TIP3    H152234   0.717   2.840  16.947  0.8169 -0.9633 -1.7656
10273TIP3    H252235   0.799   2.730  17.011  0.6988  0.6925  1.3288
10274TIP3   OH252236   5.787   5.726   0.138  0.5185  0.4402 -0.3394
10274TIP3    H152237   5.742   5.738   0.055  0.6228  0.9213 -0.3256
10274TIP3    H252238   5.718   5.694   0.198  0.5098 -0.2009 -0.6818
10275TIP3   OH252239   1.540   1.596  11.452  0.6676 -0.2335  0.0443
10275TIP3    H152240   1.598   1.520  11.447 -1.0062 -1.4271 -2.2574
10275TIP3    H252241   1.525   1.621  11.361 -0.4889  1.5492  0.6914
10276TIP3   OH252242   1.329   0.904   0.022  0.3107 -0.1082 -0.6870
10276TIP3    H152243   1.261   0.969   0.006  1.0285  0.6896 -0.5385
10276TIP3    H252244   1.283   0.820   0.020 -0.8519  0.4948  0.5046
10277TIP3   OH252245   4.406   2.045   1.793 -0.2024 -0.0516 -0.1834
10277TIP3    H152246   4.425   2.046   1.699 -2.2247  0.3774 -0.5978
10277TIP3    H252247   4.334   2.107   1.804 -1.6858 -1.9836  1.2755
10278TIP3   OH252248   0.088   2.673  11.083  0.2085  0.2486 -0.0930
10278TIP3    H152249   0.168   2.621  11.077  1.5995  2.2769  0.3276
10278TIP3    H252250   0.118   2.764  11.080 -2.2618  1.0538 -2.0117
10279TIP3   OH252251   5.951   6.508  15.800  0.2607  0.3716  0.0823
10279TIP3    H152252   5.864   6.474  15.821  0.9568 -0.3632  1.8605
10279TIP3    H252253   5.987   6.445  15.738  0.3068 -0.4169  0.9064
10280TIP3   OH252254   4.162   3.189   6.403 -0.6756 -0.4284 -0.0297
10280TIP3    H152255   4.122   3.268   6.366 -0.9377 -1.2168 -1.4358
10280TIP3    H252256   4.256   3.209   6.404 -0.8457  0.3990  0.8445
10281TIP3   OH252257   2.347   6.206   3.984 -0.1128 -0.3276  0.0078
10281TIP3    H152258   2.315   6.291   3.955 -1.4697 -0.6375  0.5688
10281TIP3    H252259   2.359   6.216   4.078  1.2627 -0.2843 -0.1593
10282TIP3   OH252260   4.972   3.432  11.208  0.5321  0.6210 -0.4444
10282TIP3    H152261   4.885   3.395  11.221  0.7376  0.4186  0.3835
10282TIP3    H252262   4.977   3.450  11.114 -1.1137  2.4626 -0.2104
10283TIP3   OH252263   5.847   0.302   5.436 -0.3454 -0.0551  0.4287
10283TIP3    H152264   5.875   0.264   5.519  1.5472 -0.0457 -0.1834
10283TIP3    H252265   5.875   0.239   5.370 -2.6560 -0.4875 -0.1450
10284TIP3   OH252266   6.024   1.592  12.533  0.0229  0.1539  0.4119
10284TIP3    H152267   5.943   1.542  12.543  0.5859 -1.1220 -1.2186
10284TIP3    H252268   6.034   1.639  12.617 -1.3664 -1.1787  1.3439
10285TIP3   OH252269   3.349   1.499  12.703 -0.5411 -0.3534  0.0569
10285TIP3    H152270   3.355   1.594  12.701 -0.6037 -0.3381  0.6166
10285TIP3    H252271   3.276   1.480  12.763 -1.5275 -0.7142 -1.2248
10286TIP3   OH252272   6.427   0.283  13.912  0.3940  0.1243  0.0785
10286TIP3    H152273   6.427   0.192  13.883  2.2844 -0.2350  1.1462
10286TIP3    H252274   6.518   0.311  13.906 -0.2334  2.1110 -0.6998
10287TIP3   OH252275   2.737   6.316  11.930 -0.1613 -0.2374  0.3094
10287TIP3    H152276   2.758   6.361  12.011  0.4939  0.8128 -0.4170
10287TIP3    H252277   2.677   6.375  11.884  2.0966  0.7893 -1.4518
10288TIP3   OH252278   4.020   6.611   2.154 -0.2312  0.2189  0.1136
10288TIP3    H152279   4.009   6.674   2.083 -0.6849  0.5062  0.4371
10288TIP3    H252280   3.937   6.615   2.203 -0.9450 -1.8998 -0.8814
10289TIP3   OH252281   0.458   2.944   4.952  0.1944 -0.0196  0.0957
10289TIP3    H152282   0.473   2.858   4.990 -0.6262 -0.7025 -1.1153
10289TIP3    H252283   0.510   3.003   5.007 -0.3445 -1.0801  1.7936
10290TIP3   OH252284   0.607   6.344   5.365  0.3415  0.4819 -0.1880
10290TIP3    H152285   0.540   6.348   5.433 -0.9155  1.2894 -1.4494
10290TIP3    H252286   0.630   6.435   5.348  3.1536  0.1592  1.5389
10291TIP3   OH252287   3.385   4.162  16.930 -0.5125 -0.5473 -0.2433
10291TIP3    H152288   3.403   4.240  16.983 -1.5414  0.9848 -2.0843
10291TIP3    H252289   3.290   4.154  16.932 -0.3795 -2.1197  0.4000
10292TIP3   OH252290   0.303   4.389  14.074  0.0536  0.0198 -0.2384
10292TIP3    H152291   0.394   4.365  14.053 -0.4037 -1.4784 -0.5596
10292TIP3    H252292   0.261   4.396  13.988 -0.3825 -0.2806 -0.0449
10293TIP3   OH252293   5.533   4.384   1.683  0.5760 -0.0287 -0.1314
10293TIP3    H152294   5.575   4.332   1.750  1.1639 -1.4820 -1.6027
10293TIP3    H252295   5.465   4.327   1.646  0.8459  0.4146 -1.3650
10294TIP3   OH252296   4.229   1.733   5.028  0.1947  0.2854  0.4494
10294TIP3    H152297   4.165   1.663   5.014 -1.3944  1.3400  2.1165
10294TIP3    H252298   4.236   1.741   5.123  2.1602  0.8063  0.2855
10295TIP3   OH252299   5.147   1.870   3.419 -0.0065 -0.3228 -0.2256
10295TIP3    H152300   5.104   1.795   3.459 -1.1226 -0.1835 -1.1164
10295TIP3    H252301   5.075   1.929   3.396  0.9900  2.0535  2.5122
10296TIP3   OH252302   4.634   1.705   0.179  0.1655 -0.3093 -0.0858
10296TIP3    H152303   4.629   1.630   0.239 -2.3994 -0.5005 -0.4590
10296TIP3    H252304   4.589   1.776   0.226  2.5807  1.0481  0.2706
10297TIP3   OH252305   6.643   1.092   1.997 -0.3473  0.0770 -0.8315
10297TIP3    H152306   6.618   1.165   1.940 -0.1521  1.1297  0.4024
10297TIP3    H252307   6.722   1.123   2.042 -2.8153  0.9834  3.1429
10298TIP3   OH252308   2.930   4.585  13.012  0.2172  0.1164 -0.0077
10298TIP3    H152309   2.844   4.622  13.029  0.7596  0.7988  1.3053
10298TIP3    H252310   2.918   4.490  13.024 -0.2551  0.2496  0.6284
10299TIP3   OH252311   5.680   5.339   5.838  0.2633  0.3754 -0.2119
10299TIP3    H152312   5.739   5.363   5.909 -0.7554  2.2090  0.0364
10299TIP3    H252313   5.662   5.246   5.852  1.9012  0.1649  0.5560
10300TIP3   OH252314   5.271   6.651   2.652 -0.4278 -0.0510 -0.1765
10300TIP3    H152315   5.328   6.580   2.682 -0.6283 -0.1421 -0.0102
10300TIP3    H252316   5.234   6.687   2.733 -2.1714 -1.2966 -0.3944
10301TIP3   OH252317   4.509   3.914  10.643 -0.1291  0.5830  0.1407
10301TIP3    H152318   4.421   3.949  10.651 -0.7782 -0.9883 -0.0668
10301TIP3    H252319   4.520   3.898  10.549 -0.2620 -0.8444  0.3641
10302TIP3   OH252320   1.747   5.612   2.013 -0.2271 -0.2598  0.3780
10302TIP3    H152321   1.710   5.664   2.084 -2.1538  0.2234 -0.9326
10302TIP3    H252322   1.821   5.664   1.981 -0.1205  0.1007  1.1984
10303TIP3   OH252323   5.066   3.980  15.662 -0.1905  0.3430 -0.0968
10303TIP3    H152324   5.019   3.906  15.699 -0.8135  0.0009 -1.5395
10303TIP3    H252325   5.001   4.025  15.607  0.7311  0.7620 -0.8684
10304TIP3   OH252326   1.957   6.105   1.185 -0.0992  0.5809 -0.0207
10304TIP3    H152327   1.884   6.097   1.246  1.5996 -0.4010  1.9530
10304TIP3    H252328   1.981   6.015   1.164 -0.8630  0.9085 -2.4170
10305TIP3   OH252329   4.495   2.154   3.743 -0.4867 -0.1915  0.9226
10305TIP3    H152330   4.563   2.166   3.809  0.8445 -1.0458 -0.2557
10305TIP3    H252331   4.450   2.238   3.738  1.1603  0.7022  0.9783
10306TIP3   OH252332   4.904   5.025  13.905  0.4519 -0.0729  0.5965
10306TIP3    H152333   4.949   5.090  13.852 -0.5737 -0.6226 -0.9833
10306TIP3    H252334   4.942   4.941  13.878 -1.1771 -0.5039 -0.4557
10307TIP3   OH252335   0.310   1.473   1.004 -0.4609 -0.0284  0.2846
10307TIP3    H152336   0.284   1.381   1.001  1.6617 -0.6662  0.3880
10307TIP3    H252337   0.406   1.470   1.015 -0.6392  2.1779  3.0050
10308TIP3   OH252338   3.231   1.181  16.966 -0.4066 -0.4084  0.0067
10308TIP3    H152339   3.326   1.192  16.970 -0.0730 -2.5888 -1.3434
10308TIP3    H252340   3.212   1.168  16.873 -1.9890 -0.3582  0.3070
10309TIP3   OH252341   5.413   3.337  16.059 -0.6470 -0.5976  0.6919
10309TIP3    H152342   5.345   3.403  16.068 -0.4392 -0.3151  0.2477
10309TIP3    H252343   5.495   3.385  16.070 -0.4382 -0.4777 -1.2078
10310TIP3   OH252344   2.586   1.922  14.823 -0.4542 -0.2355  0.0263
10310TIP3    H152345   2.618   1.834  14.844  1.1687  0.1802 -0.5693
10310TIP3    H252346   2.503   1.907  14.777  0.2492 -1.5138 -0.8780
10311TIP3   OH252347   3.555   0.751   3.827  0.8579 -0.1565  0.3174
10311TIP3    H152348   3.610   0.792   3.761 -0.2980  0.5666 -0.2261
10311TIP3    H252349   3.524   0.670   3.786  1.7370 -0.7109  0.7331
10312TIP3   OH252350   6.158   0.432  14.004  1.0402 -0.1389  0.4742
10312TIP3    H152351   6.239   0.409  14.049 -0.0334 -0.9035  2.0745
10312TIP3    H252352   6.152   0.372  13.931  1.0297 -1.2922  1.4102
10313TIP3   OH252353   5.907   5.347   5.086  0.6840 -0.3618 -0.2312
10313TIP3    H152354   5.888   5.314   5.174 -0.7099  0.6811 -0.1368
10313TIP3    H252355   5.958   5.427   5.100  0.7869 -0.3969 -0.3936
10314TIP3   OH252356   5.582   3.223  17.012  0.4225 -0.5879 -0.3543
10314TIP3    H152357   5.645   3.291  17.035  0.8847 -1.0805 -0.1450
10314TIP3    H252358   5.563   3.179  17.095  0.7689 -1.2574 -0.6259
10315TIP3   OH252359   6.248   5.220   1.603 -0.2661 -0.1814  0.1782
10315TIP3    H152360   6.234   5.221   1.697  1.1584 -0.4203  0.4071
10315TIP3    H252361   6.160   5.210   1.565 -0.7864 -0.6318  1.4868
10316TIP3   OH252362   0.938   3.100   1.293  0.2063  0.2132 -0.1460
10316TIP3    H152363   1.024   3.142   1.293  0.0899  0.4545 -1.1677
10316TIP3    H252364   0.908   3.107   1.203 -0.6555 -0.3496  0.0952
10317TIP3   OH252365   6.375   0.443  16.297 -0.8060  0.1106 -0.1189
10317TIP3    H152366   6.365   0.538  16.292 -2.9227 -0.2041 -2.6560
10317TIP3    H252367   6.286   0.409  16.292 -0.1182 -2.0271  1.2995
10318TIP3   OH252368   0.515   6.557  16.297  0.5128  0.3320  0.0734
10318TIP3    H152369   0.508   6.529  16.388 -1.7350 -1.0751 -0.4991
10318TIP3    H252370   0.518   6.652  16.301  0.4900  0.2796  1.6118
10319TIP3   OH252371   1.148   2.607  12.458 -0.7868  0.1109  0.3419
10319TIP3    H152372   1.230   2.602  12.409 -1.4706  1.3725 -0.9710
10319TIP3    H252373   1.166   2.562  12.540  1.9708  2.5048  1.1182
10320TIP3   OH252374   2.881   6.116  12.269 -0.2986  0.1916 -0.1502
10320TIP3    H152375   2.802   6.066  12.247  0.9837 -1.1877 -1.7481
10320TIP3    H252376   2.912   6.150  12.185  1.0959  0.2877  0.3938
10321TIP3   OH252377   1.237   1.132   6.724  0.0842  0.3430  0.5449
10321TIP3    H152378   1.237   1.054   6.668 -0.4036  0.3513  0.5332
10321TIP3    H252379   1.327   1.136   6.758  0.1365 -0.1760  0.4822
10322TIP3   OH252380   5.857   1.426  11.385  1.3373  0.0442 -0.4790
10322TIP3    H152381   5.784   1.368  11.364  0.2498  1.3371 -0.2982
10322TIP3    H252382   5.905   1.435  11.302 -0.4369  1.6062 -1.3764
10323TIP3   OH252383   2.703   3.917  15.214 -0.0923  0.1417 -0.2178
10323TIP3    H152384   2.682   3.936  15.122 -0.1780 -0.6675 -0.3714
10323TIP3    H252385   2.618   3.910  15.257 -0.1038 -0.9988 -0.3981
10324TIP3   OH252386   2.213   1.492  15.320 -0.3855 -0.2110  0.0956
10324TIP3    H152387   2.251   1.561  15.265 -0.3375  0.2874  0.7454
10324TIP3    H252388   2.133   1.532  15.356 -0.1367 -0.3453  0.8072
10325TIP3   OH252389   5.906   1.945   2.423 -0.3307  0.8510 -0.2063
10325TIP3    H152390   5.922   2.009   2.353 -0.2079  1.2968  0.2193
10325TIP3    H252391   5.992   1.907   2.440 -0.7151 -0.7740 -1.7203
10326TIP3   OH252392   3.239   0.095  15.285  0.2808  0.0440 -0.9831
10326TIP3    H152393   3.247   0.081  15.191  0.8876  1.0219 -1.0809
10326TIP3    H252394   3.221   0.008  15.321 -3.4445  0.1416 -2.3625
10327TIP3   OH252395   1.686   5.309   6.343 -0.3700  0.1098 -0.5387
10327TIP3    H152396   1.730   5.360   6.275 -2.6524  5.1891  1.5131
10327TIP3    H252397   1.750   5.303   6.413 -0.8139  2.3019  0.1009
10328TIP3   OH252398   3.448   4.797  14.852 -0.4897 -0.7001 -0.3423
10328TIP3    H152399   3.466   4.787  14.759  0.2959 -0.1284 -0.2545
10328TIP3    H252400   3.461   4.890  14.869  2.9058 -1.3460  1.0693
10329TIP3   OH252401   5.157   4.446  11.406 -0.3830 -0.0019 -0.2218
10329TIP3    H152402   5.080   4.490  11.440 -1.1434 -0.7030 -1.0116
10329TIP3    H252403   5.162   4.364  11.455  0.6302  0.6463  0.7616
10330TIP3   OH252404   0.739   4.805  13.901  0.2178  0.5783 -0.4491
10330TIP3    H152405   0.798   4.801  13.825 -2.7337  0.8310 -2.8425
10330TIP3    H252406   0.716   4.714  13.918  0.7322  0.5386  0.0639
10331TIP3   OH252407   1.250   6.379   1.237  0.2442 -0.4142  0.4280
10331TIP3    H152408   1.184   6.428   1.286 -0.4290 -1.0327  0.1435
10331TIP3    H252409   1.289   6.320   1.302  0.6834  0.1267  0.6507
10332TIP3   OH252410   4.657   2.957  12.022 -0.5810 -0.1983 -0.1334
10332TIP3    H152411   4.588   2.892  12.009  0.2730 -1.7882  2.7394
10332TIP3    H252412   4.622   3.016  12.089  0.0063  0.2872 -0.2469
10333TIP3   OH252413   2.335   0.063   0.354  0.3462 -0.1364  0.6957
10333TIP3    H152414   2.327   0.091   0.263  1.7324 -1.2461  0.2067
10333TIP3    H252415   2.324   0.143   0.405 -0.3937  0.4983 -0.4464
10334TIP3   OH252416   2.759   3.830   1.439 -0.0943 -0.1688 -0.0689
10334TIP3    H152417   2.678   3.869   1.408 -0.0677 -0.1322 -0.0921
10334TIP3    H252418   2.827   3.893   1.416 -0.5382  2.0023  4.0361
10335TIP3   OH252419   4.038   2.297   4.895  0.4052 -0.1082 -0.6053
10335TIP3    H152420   4.093   2.375   4.902  0.0361 -0.0040  1.6214
10335TIP3    H252421   3.974   2.307   4.965 -0.3254 -1.8983 -0.9897
10336TIP3   OH252422   3.754   3.293   6.691 -0.0964  0.4187  0.3243
10336TIP3    H152423   3.844   3.269   6.669 -0.1647  0.2785  0.2015
10336TIP3    H252424   3.724   3.344   6.615 -0.2571  0.1236  0.1915
10337TIP3   OH252425   4.732   6.606  13.039  0.3051  0.1347 -0.1571
10337TIP3    H152426   4.691   6.521  13.054  1.4104 -0.3753  0.0648
10337TIP3    H252427   4.672   6.652  12.980  0.1341 -1.1643 -1.0279
10338TIP3   OH252428   1.387   1.883   0.070 -0.5883  0.0743 -0.2622
10338TIP3    H152429   1.444   1.950   0.107 -0.6637  0.5359 -0.9734
10338TIP3    H252430   1.306   1.930   0.049 -0.9099 -0.3947 -0.0667
10339TIP3   OH252431   2.312   2.138   2.491  0.0191 -0.4596 -0.0137
10339TIP3    H152432   2.272   2.099   2.569 -1.0356  0.5073 -0.0584
10339TIP3    H252433   2.245   2.131   2.423  0.9511 -1.3570 -0.8723
10340TIP3   OH252434   0.016   0.486  11.909 -0.2776  0.0269 -0.2051
10340TIP3    H152435  -0.012   0.495  12.000 -1.1711 -0.6226 -0.4097
10340TIP3    H252436  -0.045   0.423  11.871 -0.9483  1.5168 -1.6836
10341TIP3   OH252437   2.782   1.753  12.281  0.1060  0.7389  0.0573
10341TIP3    H152438   2.845   1.797  12.224 -1.6996  2.4916 -0.6610
10341TIP3    H252439   2.780   1.663  12.249  1.6688  0.8653 -0.4121
10342TIP3   OH252440   1.032   2.228   4.570  0.3128  0.2057  0.4895
10342TIP3    H152441   0.965   2.286   4.605 -0.2948 -1.2454  1.8137
10342TIP3    H252442   1.114   2.257   4.610  0.0148  0.1678  1.1217
10343TIP3   OH252443   6.550   1.454  14.284  0.3489  0.6557 -0.3701
10343TIP3    H152444   6.526   1.459  14.376 -0.8710  0.4074 -0.6690
10343TIP3    H252445   6.520   1.368  14.256  0.4302  0.8513 -1.0743
10344TIP3   OH252446   1.009   4.336  12.940  0.0867  0.1593  0.2606
10344TIP3    H152447   1.083   4.392  12.917  0.1569  0.1840  0.5385
10344TIP3    H252448   1.047   4.249  12.949 -0.1276 -0.0438 -0.7609
10345TIP3   OH252449   4.272   3.099  17.212  0.0864 -0.4777  0.2506
10345TIP3    H152450   4.305   3.119  17.300 -0.1941  0.4564  0.1431
10345TIP3    H252451   4.324   3.024  17.183 -0.2945 -1.2375  1.4955
10346TIP3   OH252452   0.002   2.772  15.037 -0.9490 -0.1984 -0.7566
10346TIP3    H152453   0.067   2.840  15.054 -0.5109 -0.4423 -1.4127
10346TIP3    H252454  -0.081   2.819  15.030 -0.6779  0.2496 -1.0057
10347TIP3   OH252455   5.401   1.851   1.310  0.7795  0.3489  0.0932
10347TIP3    H152456   5.420   1.921   1.247  0.9217 -0.6809 -1.0112
10347TIP3    H252457   5.477   1.849   1.368  1.6339 -0.1591 -1.0343
10348TIP3   OH252458   1.974   5.110   3.193 -0.8750 -0.7752  0.0320
10348TIP3    H152459   2.059   5.126   3.153  0.0259 -0.9220  1.8844
10348TIP3    H252460   1.960   5.016   3.182 -0.2582 -0.9567  0.7930
10349TIP3   OH252461   4.447   4.197  13.384 -0.5332 -0.0921 -0.8036
10349TIP3    H152462   4.496   4.136  13.438 -0.4077 -0.9478 -1.8564
10349TIP3    H252463   4.477   4.179  13.295  0.4537  2.3676 -1.0136
10350TIP3   OH252464   6.432   1.826  15.856  0.3948  0.5783 -0.4685
10350TIP3    H152465   6.506   1.839  15.915 -0.6933  1.5458  0.7048
10350TIP3    H252466   6.397   1.741  15.881  0.7076  0.4046 -0.6056
10351TIP3   OH252467   6.221   0.512  12.788 -0.0538 -0.2495 -0.6394
10351TIP3    H152468   6.216   0.437  12.848 -2.5403  0.5067  0.1560
10351TIP3    H252469   6.182   0.585  12.837  1.4219  1.3416 -1.7702
10352TIP3   OH252470   2.596   4.492   2.565  0.2613  0.4930  0.9067
10352TIP3    H152471   2.670   4.468   2.621  2.7095 -0.4575 -2.5727
10352TIP3    H252472   2.608   4.585   2.548  1.3369  0.0931 -0.5789
10353TIP3   OH252473   6.726   3.107   0.289 -0.1686 -0.3879  0.1734
10353TIP3    H152474   6.766   3.131   0.205 -0.8568 -1.6014 -0.5250
10353TIP3    H252475   6.642   3.153   0.289  0.8351  1.4814  1.2590
10354TIP3   OH252476   6.515   2.044   4.688 -0.1510  0.3275 -0.4283
10354TIP3    H152477   6.572   2.113   4.654  0.5273  0.4135  0.8597
10354TIP3    H252478   6.492   2.073   4.776 -0.9984 -0.4246 -0.3920
10355TIP3   OH252479   3.135   3.883   4.048 -0.8976  0.0020 -0.0718
10355TIP3    H152480   3.143   3.813   4.113  2.4623  1.5528  1.3154
10355TIP3    H252481   3.179   3.848   3.970  2.4990  1.1617  1.2297
10356TIP3   OH252482   6.009   4.880  16.709  0.4204 -0.3454  0.0775
10356TIP3    H152483   5.990   4.862  16.801 -1.0321 -2.6927 -0.6592
10356TIP3    H252484   6.004   4.795  16.666 -0.1945  0.9131 -2.4057
10357TIP3   OH252485   1.018   1.619   0.815 -0.0874  0.3302  0.0542
10357TIP3    H152486   1.014   1.680   0.888  1.2458 -1.1757  1.4124
10357TIP3    H252487   0.970   1.542   0.845 -0.1034 -0.0444 -0.9099
10358TIP3   OH252488   0.070   0.931  15.387 -0.4133  0.1235  0.4278
10358TIP3    H152489   0.030   0.904  15.469 -0.6304  0.3683  0.4040
10358TIP3    H252490   0.161   0.952  15.410 -0.4553  0.1216  0.5922
10359TIP3   OH252491   5.550   2.362  15.949 -0.7999 -0.1718  0.1854
10359TIP3    H152492   5.461   2.395  15.937 -0.1360  1.1033 -1.3093
10359TIP3    H252493   5.602   2.438  15.973  0.4594 -0.3278 -1.8911
10360TIP3   OH252494   3.857   0.534   3.488  0.2795 -0.0758  0.3177
10360TIP3    H152495   3.850   0.512   3.581  3.4141 -0.9674  0.4032
10360TIP3    H252496   3.881   0.626   3.487  0.3672 -0.0975  0.3934
10361TIP3   OH252497   1.037   4.707  11.058  0.4847 -0.1915  0.2026
10361TIP3    H152498   1.031   4.661  10.974 -1.0125  1.6947 -0.7856
10361TIP3    H252499   1.121   4.752  11.055  1.1166 -1.3517  0.3740
10362TIP3   OH252500   3.618   0.713   1.821  0.2119  0.1632 -0.4443
10362TIP3    H152501   3.659   0.792   1.856  2.1686 -2.0062  2.3746
10362TIP3    H252502   3.527   0.720   1.846  0.6521  0.9024  0.9871
10363TIP3   OH252503   2.399   6.463  11.600  0.1487 -0.2726  0.7174
10363TIP3    H152504   2.331   6.530  11.600  1.6695  1.3274  0.4214
10363TIP3    H252505   2.416   6.446  11.693 -2.1450 -2.2909  0.8101
10364TIP3   OH252506   2.164   3.139   5.612  0.4909 -0.1228  0.0034
10364TIP3    H152507   2.156   3.220   5.662 -0.7334 -1.4654  2.0599
10364TIP3    H252508   2.254   3.140   5.578  0.3506  2.2673 -0.3215
10365TIP3   OH252509   2.455   5.313   1.014  0.0924  0.2138 -0.1471
10365TIP3    H152510   2.494   5.273   1.092 -1.8648 -1.3908  0.0368
10365TIP3    H252511   2.415   5.394   1.046  1.4487  0.8493  0.0178
10366TIP3   OH252512   5.769   5.828  14.096 -0.0701  0.2593  0.0540
10366TIP3    H152513   5.777   5.747  14.045 -1.6347  0.6868 -0.9198
10366TIP3    H252514   5.832   5.818  14.166  2.2862 -0.2905 -2.0622
10367TIP3   OH252515   4.895   1.648  11.511 -0.0075 -0.5213  0.0105
10367TIP3    H152516   4.943   1.700  11.446  0.1109 -1.4681 -0.6775
10367TIP3    H252517   4.803   1.665  11.493  0.0178 -0.9406 -0.5636
10368TIP3   OH252518   4.738   1.464  11.110 -0.2811 -0.1624  0.1188
10368TIP3    H152519   4.743   1.553  11.073 -2.2724 -0.3477 -0.6078
10368TIP3    H252520   4.806   1.464  11.177  0.4890  1.5664 -0.5992
10369TIP3   OH252521   3.182   2.933  14.965 -0.1891  0.3815 -0.0916
10369TIP3    H152522   3.099   2.944  15.012  0.9708  2.0933  1.6375
10369TIP3    H252523   3.217   2.849  14.996 -0.9579 -0.0558 -0.3822
10370TIP3   OH252524   4.712   1.667  13.170  0.0523  0.2098  0.0044
10370TIP3    H152525   4.776   1.713  13.115 -1.2203  2.7001  0.5143
10370TIP3    H252526   4.652   1.628  13.108  0.4432  0.3048 -0.4387
10371TIP3   OH252527   1.100   1.183   1.326  0.1462  0.2830  0.0813
10371TIP3    H152528   1.097   1.195   1.421 -0.3510  2.3978 -0.1878
10371TIP3    H252529   1.176   1.126   1.311 -0.1298 -0.5559  1.7712
10372TIP3   OH252530   0.608   2.083  13.265  0.3340  0.1257 -0.0436
10372TIP3    H152531   0.652   2.062  13.347 -2.1789  2.1608  1.9178
10372TIP3    H252532   0.537   2.019  13.260  0.2838  0.2156 -0.4538
10373TIP3   OH252533   0.166   4.959  16.850 -0.1588 -0.5755 -0.3356
10373TIP3    H152534   0.203   4.984  16.935 -1.3248 -1.4739  0.4513
10373TIP3    H252535   0.233   4.986  16.786 -0.0466  1.7620  0.7051
10374TIP3   OH252536   2.507   3.029  11.489 -0.2193 -1.1379 -0.1188
10374TIP3    H152537   2.513   3.069  11.576 -0.7998  0.8994 -1.0025
10374TIP3    H252538   2.595   2.994  11.473  0.5402  0.5193  0.3218
10375TIP3   OH252539   2.884   1.970  14.810 -0.0407 -0.2940  0.2643
10375TIP3    H152540   2.977   1.990  14.801 -0.6191  2.4100 -0.3484
10375TIP3    H252541   2.881   1.887  14.857  2.6473  0.2453  1.4651
10376TIP3   OH252542   6.459   1.255  15.327  0.3085  0.8720  0.3893
10376TIP3    H152543   6.528   1.229  15.388 -0.1545  0.7468  0.8607
10376TIP3    H252544   6.506   1.295  15.254  0.9661 -0.1872  0.2123
10377TIP3   OH252545   1.066   0.322   3.638  0.3807 -0.4198  0.4062
10377TIP3    H152546   1.026   0.404   3.609  1.1942  0.0140  0.4714
10377TIP3    H252547   1.149   0.349   3.677  1.0681 -1.3605 -0.3819
10378TIP3   OH252548   3.310   1.036  15.854  0.3530 -0.6818  0.4536
10378TIP3    H152549   3.339   1.118  15.894  0.3227 -1.0462  1.2274
10378TIP3    H252550   3.294   1.058  15.762 -0.7566  0.4481  0.9079
10379TIP3   OH252551   5.443   6.559   0.879  0.5732 -0.0907  0.0247
10379TIP3    H152552   5.474   6.548   0.789 -0.4677 -0.4384 -0.2994
10379TIP3    H252553   5.499   6.628   0.915 -1.1880  2.4884 -1.9965
10380TIP3   OH252554   1.796   1.352   1.776 -0.1871 -0.4841  0.1195
10380TIP3    H152555   1.772   1.379   1.865 -0.9114 -1.5061  0.2500
10380TIP3    H252556   1.871   1.294   1.788 -0.4595 -0.8465  0.0986
10381TIP3   OH252557   4.128   0.627   1.734  0.7822 -0.1789 -0.6331
10381TIP3    H152558   4.183   0.598   1.806  0.9924  0.3385 -0.5851
10381TIP3    H252559   4.176   0.700   1.695 -0.9686  1.8730  0.9025
10382TIP3   OH252560   2.381   1.122  15.957 -0.4326 -1.0769 -0.0391
10382TIP3    H152561   2.335   1.160  16.032 -0.4072  0.4677 -0.7845
10382TIP3    H252562   2.468   1.161  15.961 -1.0599  0.6372 -2.0226
10383TIP3   OH252563   3.059   1.855   1.573 -0.2892 -0.0936 -0.0836
10383TIP3    H152564   3.147   1.890   1.561  0.2388 -1.2321  0.3391
10383TIP3    H252565   3.068   1.796   1.648 -1.8770  1.3812  1.3064
10384TIP3   OH252566   5.409   6.373  16.963 -0.8226 -0.5206  0.0797
10384TIP3    H152567   5.370   6.296  16.921 -0.5751  0.8954 -2.9039
10384TIP3    H252568   5.352   6.446  16.937  0.3755  0.6752  0.7452
10385TIP3   OH252569   0.338   1.295  15.860 -0.4757 -0.0030 -0.6608
10385TIP3    H152570   0.253   1.251  15.860 -0.2611 -0.4224 -1.0948
10385TIP3    H252571   0.363   1.300  15.768  0.4557 -0.8337 -0.4646
10386TIP3   OH252572   2.478   4.897  11.521 -0.3861 -0.1342 -0.3715
10386TIP3    H152573   2.419   4.843  11.469 -0.8249  1.6422 -1.7609
10386TIP3    H252574   2.565   4.860  11.505 -0.6483 -0.2729 -1.4772
10387TIP3   OH252575   3.240   4.821   3.120  0.0635  0.0192 -0.5090
10387TIP3    H152576   3.160   4.789   3.078 -0.3107  0.4891 -0.1509
10387TIP3    H252577   3.262   4.901   3.072 -0.4018  0.5931  0.2342
10388TIP3   OH252578   1.336   4.754  11.798 -0.6743 -0.3034 -0.2413
10388TIP3    H152579   1.404   4.712  11.850 -0.3945 -1.0900 -1.2164
10388TIP3    H252580   1.267   4.775  11.861 -0.1022 -0.7119  0.5376
10389TIP3   OH252581   4.915   5.429  14.854  0.3649 -0.3678 -0.1485
10389TIP3    H152582   4.961   5.394  14.931  0.3270  1.4835  0.7552
10389TIP3    H252583   4.840   5.476  14.891  0.7172  1.1159 -1.2766
10390TIP3   OH252584   5.202   6.335  12.223  0.4244 -0.5063 -0.4084
10390TIP3    H152585   5.286   6.355  12.266 -1.1083  0.6275  2.1908
10390TIP3    H252586   5.174   6.419  12.186  0.5810 -0.9614 -1.5713
10391TIP3   OH252587   2.068   6.445   5.018 -0.2073  0.1936  0.4060
10391TIP3    H152588   2.058   6.403   5.103  0.2019 -0.5986  0.0683
10391TIP3    H252589   2.093   6.535   5.038 -0.1049  0.0055  1.1203
10392TIP3   OH252590   4.287   2.038   0.077  0.2817 -0.3434  0.2812
10392TIP3    H152591   4.374   2.034   0.117  0.9014 -0.4477 -1.0497
10392TIP3    H252592   4.245   2.113   0.119  1.0268 -0.2520  0.8864
10393TIP3   OH252593   4.711   4.380  14.559 -0.1066  0.0686  0.6009
10393TIP3    H152594   4.638   4.441  14.551  0.8028  1.4246  2.2133
10393TIP3    H252595   4.789   4.436  14.559  1.0970 -1.4744 -2.9096
10394TIP3   OH252596   1.493   4.460   2.850 -0.2378 -0.2017 -0.2840
10394TIP3    H152597   1.492   4.548   2.889  0.4127 -1.6576  3.1481
10394TIP3    H252598   1.403   4.430   2.856  0.0143 -0.7406  0.8670
10395TIP3   OH252599   4.995   6.382  11.345  0.0870 -0.2648  0.1970
10395TIP3    H152600   4.934   6.320  11.304  0.0713 -0.8045  1.0218
10395TIP3    H252601   5.082   6.348  11.322  0.0810 -0.7999  0.9359
10396TIP3   OH252602   5.689   2.592   1.120  0.1146  0.1278  0.1815
10396TIP3    H152603   5.617   2.610   1.181 -1.4471  0.0897 -1.6319
10396TIP3    H252604   5.720   2.679   1.094 -0.1950  0.1483 -0.1165
10397TIP3   OH252605   2.021   4.821   5.716 -0.0343 -0.0660 -0.5245
10397TIP3    H152606   1.933   4.849   5.739 -0.2512 -0.5538 -0.7450
10397TIP3    H252607   2.065   4.807   5.800 -0.0570  0.5110 -0.4162
10398TIP3   OH252608   2.588   6.460  15.942  0.1669 -0.0276 -0.0279
10398TIP3    H152609   2.679   6.432  15.929  0.0720 -1.0812  1.3910
10398TIP3    H252610   2.550   6.458  15.855  1.0971 -1.1366 -0.4325
10399TIP3   OH252611   6.088   0.182   5.192  0.2770 -0.2547 -0.1774
10399TIP3    H152612   6.137   0.105   5.163 -1.3409 -1.1100 -0.7173
10399TIP3    H252613   6.004   0.147   5.223  0.1203  1.1420  1.0309
10400TIP3   OH252614   0.320   4.018   0.991 -0.0403 -0.0439  0.2817
10400TIP3    H152615   0.270   4.055   1.063  0.5516 -0.9514  1.1648
10400TIP3    H252616   0.411   4.024   1.018  0.1132 -1.5168  0.1585
10401TIP3   OH252617   2.979   2.915  11.825 -0.7029 -0.0179  0.3335
10401TIP3    H152618   2.991   2.826  11.858  0.5510 -0.5532 -1.4325
10401TIP3    H252619   2.985   2.905  11.729  1.5086  2.2342  0.2024
10402TIP3   OH252620   1.209   5.123  13.252 -0.1324 -0.3028 -0.5144
10402TIP3    H152621   1.114   5.135  13.251 -0.0099  0.9235  1.0245
10402TIP3    H252622   1.221   5.028  13.240 -1.6307 -0.7864  1.5556
10403TIP3   OH252623   3.991   4.084   2.608 -0.1622  0.2257 -0.7908
10403TIP3    H152624   3.984   4.179   2.594 -0.3366  0.3460  0.0883
10403TIP3    H252625   3.919   4.047   2.556 -0.0040  0.5595 -1.2531
10404TIP3   OH252626   5.573   1.048   1.160  0.0062  1.0413  0.0308
10404TIP3    H152627   5.666   1.045   1.180 -0.3656 -0.7634  1.5513
10404TIP3    H252628   5.534   1.091   1.236 -0.5616  0.6032 -0.0132
10405TIP3   OH252629   2.944   2.976   5.475 -0.9478 -0.1864 -0.3209
10405TIP3    H152630   2.926   2.973   5.569 -0.1339 -0.8260 -0.1775
10405TIP3    H252631   2.858   2.970   5.434 -1.2904 -0.1131  0.3797
10406TIP3   OH252632   4.042   1.948   6.102  0.1331 -0.2123 -0.1201
10406TIP3    H152633   4.037   2.040   6.131 -0.8040  0.0513 -1.1069
10406TIP3    H252634   4.022   1.898   6.181  1.1414  0.4122  0.5477
10407TIP3   OH252635   5.941   2.555  12.835  0.7803 -0.0584 -0.9903
10407TIP3    H152636   5.939   2.638  12.883 -0.0806 -0.4244 -0.3727
10407TIP3    H252637   5.933   2.580  12.743  1.0019  0.5641 -0.8480
10408TIP3   OH252638   2.120   3.236   1.970  0.0439 -0.4991 -0.0637
10408TIP3    H152639   2.121   3.311   2.030  0.0594  0.5878 -1.4143
10408TIP3    H252640   2.087   3.164   2.024  3.1056 -0.3240  2.1372
10409TIP3   OH252641   0.138   6.762  13.650 -0.5838  0.2076  0.3826
10409TIP3    H152642   0.078   6.698  13.689 -1.0314  0.9893  0.9743
10409TIP3    H252643   0.085   6.810  13.587 -0.3953  0.4299  0.3940
10410TIP3   OH252644   1.726   1.973  15.805 -0.1423  0.2324  0.2496
10410TIP3    H152645   1.634   1.998  15.804 -0.0871  0.5667  1.6136
10410TIP3    H252646   1.773   2.054  15.785 -0.1007  0.4143  1.0510
10411TIP3   OH252647   2.125   3.271   3.868 -0.7520  0.2064 -0.2403
10411TIP3    H152648   2.170   3.312   3.794 -1.4879  1.5702  0.0500
10411TIP3    H252649   2.118   3.340   3.934 -1.3639 -0.5875  0.5449
10412TIP3   OH252650   2.419   0.633   2.215 -0.7568  0.2786 -0.0395
10412TIP3    H152651   2.373   0.550   2.228  2.0256 -1.4322 -0.6885
10412TIP3    H252652   2.421   0.644   2.120 -0.9307  0.9862  0.0388
10413TIP3   OH252653   5.235   1.368  12.075 -0.0766 -0.3215 -0.2374
10413TIP3    H152654   5.323   1.341  12.103 -0.1461 -0.6563 -0.3368
10413TIP3    H252655   5.215   1.444  12.128 -0.4433 -1.2909  1.0428
10414TIP3   OH252656   6.045   1.901  12.379  0.1159  0.1197  0.8758
10414TIP3    H152657   6.026   1.819  12.424  0.3492 -0.2536  0.2918
10414TIP3    H252658   6.101   1.949  12.440 -0.0550 -0.1374  1.2345
10415TIP3   OH252659   6.669   4.103  13.422  0.1641 -0.1591  0.0910
10415TIP3    H152660   6.580   4.089  13.390  0.1496 -2.6879  1.1119
10415TIP3    H252661   6.720   4.122  13.343 -1.0187 -0.0082 -0.6528
10416TIP3   OH252662   3.891   5.991  12.080  0.7382  0.8920 -0.0510
10416TIP3    H152663   3.863   5.941  12.157  1.9214  3.9539  2.4770
10416TIP3    H252664   3.918   5.925  12.017 -1.6404 -1.7574  1.5892
10417TIP3   OH252665   6.768   4.943   4.245 -0.3922 -0.4806  0.0750
10417TIP3    H152666   6.785   4.852   4.223  0.8644 -0.5083  1.0712
10417TIP3    H252667   6.822   4.993   4.184 -0.8453 -0.4116 -0.2702
10418TIP3   OH252668   0.837   2.396  14.049  0.1353  0.0274 -0.0400
10418TIP3    H152669   0.744   2.413  14.036  0.2033  0.6311  0.2116
10418TIP3    H252670   0.847   2.302  14.035 -0.3277  0.1350 -1.0917
10419TIP3   OH252671   2.898   5.847  13.826 -0.1676 -0.3920  0.0704
10419TIP3    H152672   2.814   5.803  13.831 -1.2237  1.6942  1.7549
10419TIP3    H252673   2.952   5.805  13.892 -0.9281  0.3278  1.1590
10420TIP3   OH252674   4.026   3.317   1.374 -0.5183  0.5811  0.3174
10420TIP3    H152675   4.112   3.346   1.405 -0.1866 -0.2323  0.1890
10420TIP3    H252676   3.964   3.378   1.413  0.1367  1.2919  0.2593
10421TIP3   OH252677   3.361   2.696   3.230 -0.6615  0.2125 -0.0335
10421TIP3    H152678   3.439   2.658   3.269  0.0379 -1.3695 -2.8283
10421TIP3    H252679   3.315   2.737   3.303  2.4116  0.5696  1.7714
10422TIP3   OH252680   0.526   3.428  15.417 -0.2131  0.3903 -0.2290
10422TIP3    H152681   0.482   3.351  15.454  1.7542 -0.3960  0.5452
10422TIP3    H252682   0.463   3.464  15.356 -1.1710 -1.8883 -0.6555
10423TIP3   OH252683   1.914   0.545   5.756 -0.5215  0.6290  0.1908
10423TIP3    H152684   1.968   0.568   5.831 -1.2404 -0.7941  1.1804
10423TIP3    H252685   1.881   0.457   5.777  0.7011 -0.5658 -2.5833
10424TIP3   OH252686   3.983   0.966   1.626 -0.2787 -0.2571 -0.3345
10424TIP3    H152687   4.015   0.940   1.712 -0.5506 -0.5366 -0.3180
10424TIP3    H252688   3.899   1.008   1.643 -0.6090 -0.8368 -0.5183
10425TIP3   OH252689   2.292   2.083   0.427 -0.4749  0.3689  0.7513
10425TIP3    H152690   2.374   2.128   0.409 -1.7044  1.8116 -1.5381
10425TIP3    H252691   2.253   2.133   0.499 -0.7385  1.5641 -0.2038
10426TIP3   OH252692   4.770   3.877   5.291 -0.0692  0.0874 -0.0699
10426TIP3    H152693   4.718   3.907   5.215  1.5877 -0.7271 -1.5406
10426TIP3    H252694   4.706   3.872   5.362 -1.8087  0.1899 -1.5742
10427TIP3   OH252695   3.012   2.013  13.677 -0.2408 -0.2090 -0.1952
10427TIP3    H152696   2.938   2.002  13.617 -0.3908 -2.0883  0.3143
10427TIP3    H252697   3.035   2.106  13.669 -0.4521 -0.3434 -2.9417
10428TIP3   OH252698   2.434   6.476  14.407 -0.2311  0.0509  0.0468
10428TIP3    H152699   2.475   6.551  14.450 -0.1706  0.6873 -1.1077
10428TIP3    H252700   2.508   6.422  14.379 -0.2785 -0.6078  1.1262
10429TIP3   OH252701   1.579   2.923   3.524  0.3508  0.0038  0.0653
10429TIP3    H152702   1.522   2.969   3.585  2.1394  1.1617  0.9063
10429TIP3    H252703   1.525   2.907   3.447 -1.9867 -1.5780  1.9721
10430TIP3   OH252704   4.349   3.580   0.775 -0.0033 -0.0143  0.4148
10430TIP3    H152705   4.258   3.551   0.781  0.4605 -1.6305  0.0428
10430TIP3    H252706   4.344   3.671   0.749 -1.5572  0.4514  2.2366
10431TIP3   OH252707   3.781   1.455  14.240 -0.1919  0.2235  0.5958
10431TIP3    H152708   3.840   1.483  14.170 -1.6407 -0.7483 -1.0477
10431TIP3    H252709   3.801   1.513  14.314  1.7670  0.8621 -0.4289
10432TIP3   OH252710   4.821   6.771   0.982  0.1869 -0.4955 -0.0609
10432TIP3    H152711   4.749   6.746   0.923 -1.1465  2.5553  0.1302
10432TIP3    H252712   4.887   6.808   0.924 -0.6171  1.3949  0.1694
10433TIP3   OH252713   3.343   1.545   1.355  0.0673 -0.3285 -0.1959
10433TIP3    H152714   3.299   1.618   1.312 -0.7344 -0.0143  1.1448
10433TIP3    H252715   3.425   1.582   1.389 -0.6749  0.1239  1.1119
10434TIP3   OH252716   0.420   6.342  16.163 -0.1499  0.0142  0.0678
10434TIP3    H152717   0.448   6.434  16.165  0.6179 -0.2219  0.2597
10434TIP3    H252718   0.377   6.328  16.247  1.4231 -0.3218  0.8320
10435TIP3   OH252719   3.980   0.001  14.837 -0.2512  0.1847 -0.0753
10435TIP3    H152720   4.018   0.053  14.767  0.1603 -1.0666 -0.7992
10435TIP3    H252721   3.933  -0.069  14.793  1.2068 -1.4562  0.8745
10436TIP3   OH252722   1.365   2.133  13.189  0.5898 -0.5328 -0.1591
10436TIP3    H152723   1.420   2.086  13.252  0.7362  0.2440  0.2994
10436TIP3    H252724   1.276   2.100  13.206  0.7385 -0.8846 -0.0647
10437TIP3   OH252725   1.290   2.777  14.969 -0.4341  0.2434 -0.1864
10437TIP3    H152726   1.232   2.721  14.916  1.5479 -1.0152 -1.0883
10437TIP3    H252727   1.359   2.804  14.908  0.5962  0.7134  1.1805
10438TIP3   OH252728   5.352   0.911   2.310 -0.1806 -0.9667  0.1159
10438TIP3    H152729   5.369   0.819   2.330  0.4713 -1.0769 -0.9398
10438TIP3    H252730   5.425   0.938   2.255 -0.0125  0.3763  0.9614
10439TIP3   OH252731   3.405   1.424   6.378  0.5571  0.3123 -0.1426
10439TIP3    H152732   3.404   1.518   6.359  0.0463  0.4009  0.3177
10439TIP3    H252733   3.349   1.385   6.311 -0.5392  0.5242  0.6408
10440TIP3   OH252734   6.734   0.062  17.205 -0.6772 -0.1545 -0.4970
10440TIP3    H152735   6.655   0.053  17.258 -0.4745 -0.1734 -0.1975
10440TIP3    H252736   6.702   0.076  17.116 -1.0182 -0.9735 -0.5078
10441TIP3   OH252737   2.215   0.893   2.704  0.4170  0.0195  0.1605
10441TIP3    H152738   2.172   0.966   2.659  0.5385 -1.9611 -3.3552
10441TIP3    H252739   2.304   0.923   2.719  0.5125  0.5661 -1.4173
10442TIP3   OH252740   6.664   6.173   3.500  0.2384  0.3065  0.3855
10442TIP3    H152741   6.695   6.244   3.444  0.2127 -0.0539 -0.0866
10442TIP3    H252742   6.615   6.116   3.441  0.7707 -0.4229  0.6481
10443TIP3   OH252743   2.435   5.300   2.565  0.1861  0.5856  0.0443
10443TIP3    H152744   2.479   5.368   2.616  1.1678 -0.2409  0.3156
10443TIP3    H252745   2.406   5.344   2.485  2.1572  0.9752 -0.4693
10444TIP3   OH252746   3.751   4.572   5.060  0.0933 -0.0681 -0.2480
10444TIP3    H152747   3.732   4.630   4.986  0.4958 -0.2542 -0.5010
10444TIP3    H252748   3.665   4.542   5.089 -0.2558  2.1046  1.0768
10445TIP3   OH252749   6.196   0.570  13.125  0.3539 -0.2682  0.4222
10445TIP3    H152750   6.217   0.635  13.058 -2.9196  0.1203 -0.3513
10445TIP3    H252751   6.237   0.603  13.205  0.9494  1.3597 -0.5283
10446TIP3   OH252752   2.415   5.122  16.735 -0.0350 -0.2080 -0.4737
10446TIP3    H152753   2.349   5.178  16.776 -1.0842 -1.7963  0.0646
10446TIP3    H252754   2.499   5.159  16.763 -0.7169  0.3426  0.8957
10447TIP3   OH252755   1.401   2.791  14.312  0.0914 -0.4378 -0.5623
10447TIP3    H152756   1.480   2.754  14.272  0.5590 -1.1685  0.9753
10447TIP3    H252757   1.430   2.821  14.398 -1.4226 -1.2228  0.2485
10448TIP3   OH252758   2.347   4.782  12.962 -0.3154  0.1535  0.2103
10448TIP3    H152759   2.302   4.789  13.046 -0.0370  1.4966  0.2540
10448TIP3    H252760   2.314   4.700  12.924 -2.1020  0.6655  0.6320
10449TIP3   OH252761   1.163   5.583   4.656  0.2512 -0.7984 -0.4942
10449TIP3    H152762   1.086   5.629   4.622  0.2397 -0.1207  0.4428
10449TIP3    H252763   1.142   5.563   4.747  1.7528  0.7279  0.2319
10450TIP3   OH252764   0.240   5.368   3.411 -0.6333  0.4141  0.2531
10450TIP3    H152765   0.239   5.303   3.481 -0.5934 -0.4162 -0.5025
10450TIP3    H252766   0.163   5.422   3.427 -1.3873 -0.6047  0.1843
10451TIP3   OH252767   3.450   4.544  14.438  0.5145 -0.4140  0.2215
10451TIP3    H152768   3.416   4.584  14.358  1.3911  0.8003  0.4342
10451TIP3    H252769   3.544   4.563  14.437  0.5360 -0.3544  1.5397
10452TIP3   OH252770   5.949   3.100  14.319 -0.3502  0.1437 -0.2168
10452TIP3    H152771   6.026   3.154  14.302 -0.5765  0.1849 -1.1503
10452TIP3    H252772   5.969   3.055  14.401  0.3192  0.7723 -0.0271
10453TIP3   OH252773   3.800   0.986   0.260  0.6367 -0.7957  0.1948
10453TIP3    H152774   3.881   1.036   0.250  0.9639 -1.4083 -0.2411
10453TIP3    H252775   3.741   1.023   0.195  0.9997 -1.2251 -0.3771
10454TIP3   OH252776   4.944   0.097  16.133 -0.5087  0.3451  0.0332
10454TIP3    H152777   4.909   0.145  16.208 -0.4530  0.7230 -0.1857
10454TIP3    H252778   4.945   0.160  16.061 -2.4891 -0.5482 -0.8332
10455TIP3   OH252779   6.780   1.809   0.862  0.5275  0.6003 -0.4134
10455TIP3    H152780   6.779   1.736   0.801 -0.3366 -0.5120  0.9040
10455TIP3    H252781   6.840   1.782   0.931 -1.0413  0.4002  0.9168
10456TIP3   OH252782   2.448   3.227   3.997  0.0638  0.3183  0.0073
10456TIP3    H152783   2.519   3.172   3.965 -0.0345 -0.2472  0.7316
10456TIP3    H252784   2.434   3.291   3.928 -0.3602 -1.0581 -1.2204
10457TIP3   OH252785   0.439   1.113  13.336  0.0762  0.0070 -0.3746
10457TIP3    H152786   0.500   1.146  13.402  1.0230 -0.6704 -0.8990
10457TIP3    H252787   0.457   1.019  13.331 -1.1170 -0.2335 -0.4331
10458TIP3   OH252788   0.487   4.008   4.503  0.1182 -0.5362 -0.3812
10458TIP3    H152789   0.582   4.007   4.516 -0.0376 -0.9137  0.8319
10458TIP3    H252790   0.458   4.089   4.544 -0.1371 -0.6447 -0.3468
10459TIP3   OH252791   3.685   1.228   1.108 -0.3727 -0.1033 -0.3521
10459TIP3    H152792   3.752   1.289   1.137  0.6791 -0.7714 -1.2956
10459TIP3    H252793   3.605   1.280   1.103  0.3485  1.0223 -0.4399
10460TIP3   OH252794   1.487   3.616  17.012  0.1871  0.2840 -0.0458
10460TIP3    H152795   1.444   3.598  17.095  0.1111  2.5596  0.4496
10460TIP3    H252796   1.449   3.553  16.951 -2.3194  0.8587  0.8661
10461TIP3   OH252797   5.450   3.739   3.537 -0.0631 -0.7912  0.2427
10461TIP3    H152798   5.405   3.785   3.608  1.0618 -3.0270  2.4679
10461TIP3    H252799   5.401   3.657   3.527  0.5326 -1.0355 -0.7296
10462TIP3   OH252800   2.802   1.211  17.142 -0.1965 -0.0512  0.3188
10462TIP3    H152801   2.843   1.125  17.154  0.0203  0.0541  0.3466
10462TIP3    H252802   2.874   1.274  17.155 -0.6230  0.1876  1.5672
10463TIP3   OH252803   6.534   4.339  14.384 -0.0226 -0.0117  0.4954
10463TIP3    H152804   6.517   4.353  14.290 -2.5384 -0.3536  0.8639
10463TIP3    H252805   6.557   4.425  14.417 -1.6429  0.6222  0.0309
10464TIP3   OH252806   2.032   4.604  14.216  0.0698 -0.2077 -0.2194
10464TIP3    H152807   1.964   4.664  14.250  1.1375 -0.1639  1.9356
10464TIP3    H252808   2.103   4.661  14.189  0.4802 -0.4283  0.4009
10465TIP3   OH252809   6.135   4.990   3.682  0.4405  0.1610 -0.3434
10465TIP3    H152810   6.095   5.013   3.766  1.5368  2.4025 -0.3890
10465TIP3    H252811   6.064   4.955   3.629 -0.8811  1.5536  0.4967
10466TIP3   OH252812   1.064   6.064  16.896  0.3102  0.4403 -0.7075
10466TIP3    H152813   1.071   5.984  16.844  0.9842 -0.0853  0.1751
10466TIP3    H252814   0.971   6.071  16.916  0.5572 -1.5663  1.4051
10467TIP3   OH252815   3.050   5.531   3.720 -0.2664 -0.2674 -0.2244
10467TIP3    H152816   2.990   5.560   3.788 -0.2128  2.0595 -1.1146
10467TIP3    H252817   2.998   5.533   3.640  0.7782  1.1088 -0.8929
10468TIP3   OH252818   1.239   4.503  15.436  0.3074 -0.5049 -0.2642
10468TIP3    H152819   1.257   4.541  15.523  0.2678 -0.0191 -0.4693
10468TIP3    H252820   1.326   4.483  15.401  0.3169 -0.8848 -0.0366
10469TIP3   OH252821   2.721   5.748   0.721 -0.0624  0.5981  0.1158
10469TIP3    H152822   2.779   5.691   0.670  0.9807  0.7823  1.0864
10469TIP3    H252823   2.670   5.688   0.775 -1.2712  0.3913 -1.2162
10470TIP3   OH252824   1.045   4.234   3.578  0.0768 -0.5434 -0.2908
10470TIP3    H152825   0.955   4.225   3.610  0.0736 -0.6094 -0.3182
10470TIP3    H252826   1.090   4.285   3.645  0.4301 -1.8723  0.4812
10471TIP3   OH252827   2.530   5.385  11.042  0.0361 -0.0233 -0.0096
10471TIP3    H152828   2.489   5.414  11.124  0.0096  0.3268 -0.1464
10471TIP3    H252829   2.498   5.446  10.976 -0.0880 -0.4159 -0.3183
10472TIP3   OH252830   0.753   5.855  12.672 -0.6970 -0.3107  0.3047
10472TIP3    H152831   0.696   5.783  12.701 -1.0855  1.2029  3.5415
10472TIP3    H252832   0.698   5.905  12.612 -1.5816 -0.8132  0.6758
10473TIP3   OH252833   6.000   3.155   1.117  0.1728  0.5436  0.0329
10473TIP3    H152834   6.008   3.078   1.061  0.4615 -0.1519  0.9948
10473TIP3    H252835   6.001   3.119   1.206  2.0962  1.7787  0.5523
10474TIP3   OH252836   1.624   4.662   4.635  0.1750  0.4734  0.0234
10474TIP3    H152837   1.532   4.647   4.659  0.6805 -2.6947  0.2216
10474TIP3    H252838   1.673   4.650   4.716  0.7996  2.0550 -0.1042
10475TIP3   OH252839   2.140   0.208   0.735 -0.2680 -0.0317 -0.1528
10475TIP3    H152840   2.070   0.217   0.670 -1.3045 -0.9065  0.8021
10475TIP3    H252841   2.196   0.138   0.702  0.8072  1.4365 -1.4782
10476TIP3   OH252842   5.100   5.341  15.655 -0.1094 -0.4665 -0.1022
10476TIP3    H152843   5.091   5.396  15.732 -0.0277 -0.7057  0.0764
10476TIP3    H252844   5.149   5.395  15.592  0.0370 -0.3623  0.1013
10477TIP3   OH252845   6.180   3.329   5.956 -0.1278 -0.2286  0.0046
10477TIP3    H152846   6.274   3.345   5.970 -0.0387  1.3794 -2.2468
10477TIP3    H252847   6.175   3.236   5.935  1.2674  0.1215 -2.0629
10478TIP3   OH252848   2.419   3.610  13.154  0.4663 -0.2553  0.5387
10478TIP3    H152849   2.504   3.616  13.197  0.5499  0.0980  0.3295
10478TIP3    H252850   2.431   3.547  13.083  0.9685  0.9205 -0.4414
10479TIP3   OH252851   6.136   3.601  16.151  1.0427  0.5250  0.2777
10479TIP3    H152852   6.121   3.579  16.059  2.0697  0.6713  0.0747
10479TIP3    H252853   6.057   3.649  16.177 -0.1495 -1.2684  0.0530
10480TIP3   OH252854   0.855   0.356  13.533  0.0227 -0.3335  0.0957
10480TIP3    H152855   0.810   0.275  13.558  0.1114 -0.1386  0.8890
10480TIP3    H252856   0.948   0.334  13.540  0.0481 -0.2245  0.1004
10481TIP3   OH252857   6.786   4.499  11.926  0.2112  0.1681 -0.3328
10481TIP3    H152858   6.811   4.579  11.879  0.4627  0.0278 -0.4408
10481TIP3    H252859   6.867   4.470  11.969  0.0829  0.0580 -0.1677
10482TIP3   OH252860   1.753   4.585  15.819 -0.3670 -0.0704  0.0459
10482TIP3    H152861   1.839   4.624  15.804 -0.6324  0.0451 -1.1888
10482TIP3    H252862   1.768   4.491  15.812 -0.0367 -0.1396  1.4559
10483TIP3   OH252863   0.492   4.794   3.967 -0.5544 -0.0272  0.0962
10483TIP3    H152864   0.567   4.741   3.992 -1.0346 -1.4321 -1.3759
10483TIP3    H252865   0.417   4.734   3.972 -0.9782  0.2109 -2.5520
10484TIP3   OH252866   0.778   0.276  12.730 -0.1917  0.4472 -0.5144
10484TIP3    H152867   0.851   0.217  12.714 -0.3086 -0.5405  2.3784
10484TIP3    H252868   0.818   0.362  12.743  0.4579 -0.0457  0.7983
10485TIP3   OH252869   6.260   2.854   1.575 -0.1141  0.0662 -0.3073
10485TIP3    H152870   6.184   2.798   1.590  0.2534 -0.0571  1.1769
10485TIP3    H252871   6.270   2.902   1.657  1.7087 -0.2822 -0.3124
10486TIP3   OH252872   5.655   3.695  16.935  0.2707 -0.2613 -0.6736
10486TIP3    H152873   5.725   3.668  16.876 -1.0832  3.6482 -4.3287
10486TIP3    H252874   5.690   3.771  16.981 -0.4728 -0.2062 -0.1908
10487TIP3   OH252875   3.864   5.623  16.628  0.4544 -0.0540 -0.2797
10487TIP3    H152876   3.956   5.649  16.631  0.4038  0.0233  0.8241
10487TIP3    H252877   3.864   5.530  16.648  0.1410  0.3445  1.6592
10488TIP3   OH252878   2.991   0.076  16.418  0.8253  0.5631  0.7790
10488TIP3    H152879   3.040  -0.006  16.410  0.3527  0.3266  0.2057
10488TIP3    H252880   3.025   0.132  16.348  0.6845  0.6108  0.7484
10489TIP3   OH252881   2.098   1.289   1.891  0.1836 -0.0932  0.1737
10489TIP3    H152882   2.193   1.280   1.900  0.0898  0.5562  1.9011
10489TIP3    H252883   2.071   1.211   1.842  1.4377 -0.9185  0.7790
10490TIP3   OH252884   2.227   4.669  16.270  0.2161 -0.2844 -0.4963
10490TIP3    H152885   2.165   4.639  16.336  1.3491  1.1988  1.2841
10490TIP3    H252886   2.198   4.628  16.189 -1.9255 -1.1525  0.6889
10491TIP3   OH252887   5.492   2.407  16.296  0.5041 -0.0393 -0.3546
10491TIP3    H152888   5.550   2.439  16.365  1.2762 -1.6693 -0.2335
10491TIP3    H252889   5.549   2.359  16.236 -0.4462 -0.2013 -1.1532
10492TIP3   OH252890   4.707   4.250   2.181  0.1948 -0.0663  0.5949
10492TIP3    H152891   4.755   4.329   2.205 -1.6314  0.5942  2.1718
10492TIP3    H252892   4.632   4.282   2.130  0.1142 -0.8837  0.1941
10493TIP3   OH252893   6.668   0.078  13.949 -0.6268 -0.3561  0.2950
10493TIP3    H152894   6.735   0.134  13.910  0.3806 -0.6654  1.5465
10493TIP3    H252895   6.645   0.016  13.879 -0.4823  0.5033 -0.5245
10494TIP3   OH252896   3.740   1.078   2.982  0.1183 -0.5822 -0.0383
10494TIP3    H152897   3.737   1.173   2.975 -3.4009 -0.7333 -1.9089
10494TIP3    H252898   3.789   1.049   2.905 -0.0879 -0.3252 -0.2658
10495TIP3   OH252899   2.477   3.475  12.700 -0.2213  0.0402  0.0727
10495TIP3    H152900   2.572   3.487  12.692 -0.0221 -1.6475 -0.1057
10495TIP3    H252901   2.464   3.449  12.791 -0.4087 -0.8061 -0.1990
10496TIP3   OH252902   2.006   4.243  12.867 -0.0908 -0.8991 -0.2256
10496TIP3    H152903   1.976   4.212  12.782 -0.0392  0.6448 -0.8232
10496TIP3    H252904   1.948   4.316  12.888 -0.2395 -1.3967  1.1702
10497TIP3   OH252905   3.022   0.207  14.099  0.4023  0.0517  0.3935
10497TIP3    H152906   3.114   0.233  14.107  0.8716  0.1015 -3.8512
10497TIP3    H252907   2.992   0.253  14.020 -2.2192 -2.7969 -0.3247
10498TIP3   OH252908   0.378   3.567   1.422  0.2673 -0.2707  0.4725
10498TIP3    H152909   0.447   3.630   1.445 -0.5552 -0.3545  3.4344
10498TIP3    H252910   0.297   3.618   1.426 -0.2444 -1.1401  1.3266
10499TIP3   OH252911   5.059   3.101  14.868 -0.0988 -0.4860  0.5041
10499TIP3    H152912   5.037   3.166  14.935 -4.1901 -1.2877  0.1049
10499TIP3    H252913   5.048   3.147  14.785  1.3786 -0.4834  0.3083
10500TIP3   OH252914   4.519   3.824   5.414 -0.2039  0.1907  0.2560
10500TIP3    H152915   4.462   3.865   5.349 -0.2941  0.4309  0.4865
10500TIP3    H252916   4.487   3.734   5.419  0.2543 -0.0201 -0.5447
10501TIP3   OH252917   2.435   0.547  16.593  0.1343 -0.1536  0.0906
10501TIP3    H152918   2.501   0.614  16.615 -0.8249  0.8763 -0.1486
10501TIP3    H252919   2.447   0.479  16.660 -0.4345  1.3436  1.7599
10502TIP3   OH252920   0.597   1.733   5.359  0.6303 -0.3167  0.1308
10502TIP3    H152921   0.539   1.735   5.283 -0.3793  0.1674  0.9031
10502TIP3    H252922   0.589   1.645   5.394  0.1486 -0.1705  0.3925
10503TIP3   OH252923   2.042   1.040  11.823 -0.4243 -0.3228 -0.2568
10503TIP3    H152924   2.087   1.116  11.859 -0.9091 -0.6596  1.1193
10503TIP3    H252925   2.065   1.039  11.730 -1.9462  2.5784 -0.7116
10504TIP3   OH252926   1.915   5.506   0.890  0.1033 -0.2999  0.9146
10504TIP3    H152927   1.984   5.485   0.828  0.9695  1.6014  1.1933
10504TIP3    H252928   1.959   5.510   0.975 -0.3348  1.0133  1.0841
10505TIP3   OH252929   0.863   3.907   3.584  0.0742  0.0452 -0.0745
10505TIP3    H152930   0.786   3.871   3.539 -0.4746  0.3494  0.6089
10505TIP3    H252931   0.936   3.885   3.527 -0.7230  1.3386 -1.6577
10506TIP3   OH252932   6.577   2.491   3.412 -0.2862  0.2895  0.4223
10506TIP3    H152933   6.571   2.400   3.383 -0.0114  0.2653  0.4433
10506TIP3    H252934   6.506   2.535   3.366 -1.0993 -0.1570  1.2336
10507TIP3   OH252935   0.523   1.888   5.577  0.3130  0.2018 -0.4620
10507TIP3    H152936   0.564   1.828   5.515  1.1719  1.5379 -1.2163
10507TIP3    H252937   0.468   1.945   5.523  0.1857  0.6459  0.1281
10508TIP3   OH252938   4.406   5.867  11.380 -0.0196 -1.0046 -0.0811
10508TIP3    H152939   4.333   5.813  11.408 -0.0306 -0.4460  0.9978
10508TIP3    H252940   4.367   5.932  11.321 -0.7128  0.3703  1.8317
10509TIP3   OH252941   3.746   0.687  13.631  0.0849  0.6350 -0.2673
10509TIP3    H152942   3.652   0.697  13.649  0.1788  0.4301  0.3464
10509TIP3    H252943   3.759   0.730  13.547 -0.3635  1.6336  0.1579
10510TIP3   OH252944   2.531   2.361  14.614  0.8954 -0.4166 -0.0803
10510TIP3    H152945   2.616   2.319  14.629  1.1330  0.3088  0.6410
10510TIP3    H252946   2.540   2.448  14.653 -0.0866 -0.2269 -0.2636
10511TIP3   OH252947   1.241   6.091   1.053 -0.0580  0.2277  0.0448
10511TIP3    H152948   1.159   6.059   1.015  0.3168 -1.1476  0.3933
10511TIP3    H252949   1.277   6.150   0.986 -1.3878  0.9463 -0.0474
10512TIP3   OH252950   2.074   6.763   2.402 -0.8160  0.8899 -0.0045
10512TIP3    H152951   2.159   6.770   2.358 -1.1293 -0.5998 -0.8660
10512TIP3    H252952   2.081   6.686   2.459 -1.1061  1.6101  1.0259
10513TIP3   OH252953   2.768   0.185  14.206 -0.1467 -0.0766 -0.0385
10513TIP3    H152954   2.816   0.177  14.124  0.3240  0.7570  0.1430
10513TIP3    H252955   2.835   0.204  14.272 -0.6932  0.9546  0.2447
10514TIP3   OH252956   0.707   4.837  11.333  0.4141 -0.1493  0.0656
10514TIP3    H152957   0.772   4.866  11.269 -0.9129 -0.3391 -1.4037
10514TIP3    H252958   0.719   4.895  11.408  0.5637  1.4990 -1.2090
10515TIP3   OH252959   4.890   0.612   0.207 -0.1126  0.2383  0.1169
10515TIP3    H152960   4.831   0.680   0.240  0.4011  2.3592 -3.0920
10515TIP3    H252961   4.954   0.600   0.277 -1.2663  1.7437  1.4773
10516TIP3   OH252962   6.095   5.925   2.619 -0.5312  0.5158 -0.3032
10516TIP3    H152963   6.122   5.834   2.627 -2.4494 -0.3193 -2.8219
10516TIP3    H252964   6.004   5.926   2.650 -0.4830  1.5850 -0.1730
10517TIP3   OH252965   5.468   2.763  13.946  0.1247  0.4656  0.0427
10517TIP3    H152966   5.490   2.778  13.854 -1.3064  0.7085 -0.2728
10517TIP3    H252967   5.376   2.738  13.945  0.4181 -0.7362  1.3084
10518TIP3   OH252968   5.503   2.061  12.951  0.6716 -0.0008 -0.6941
10518TIP3    H152969   5.538   1.985  12.906 -1.4558 -1.6154  0.3195
10518TIP3    H252970   5.542   2.136  12.905  1.0113 -1.6358 -3.1526
10519TIP3   OH252971   0.791   4.736  15.054  0.2476 -0.2151  0.4187
10519TIP3    H152972   0.757   4.762  14.968 -1.2824 -0.8031  0.8366
10519TIP3    H252973   0.831   4.815  15.089  0.4828  0.1456 -0.6536
10520TIP3   OH252974   2.664   6.457   3.657 -0.7033  0.0786  0.2004
10520TIP3    H152975   2.743   6.465   3.711 -0.4786 -0.7495 -0.0068
10520TIP3    H252976   2.604   6.522   3.694 -1.1300 -1.5586  2.4779
10521TIP3   OH252977   4.365   5.491   2.550  0.2721 -0.6207  0.1068
10521TIP3    H152978   4.404   5.517   2.634  0.7714 -3.3747  0.7791
10521TIP3    H252979   4.272   5.478   2.570 -0.3087  2.1473 -0.6106
10522TIP3   OH252980   3.742   3.169  17.118  0.3436 -0.1461  0.0308
10522TIP3    H152981   3.729   3.176  17.212 -1.9360 -3.0594 -0.0173
10522TIP3    H252982   3.816   3.109  17.108  1.3963  1.1408 -0.0458
10523TIP3   OH252983   1.084   5.976  13.245 -0.3125  0.6663  0.3138
10523TIP3    H152984   1.075   5.904  13.308 -2.3553  1.2446  0.7104
10523TIP3    H252985   1.140   6.039  13.290  1.2101 -0.4996  0.1000
10524TIP3   OH252986   6.785   3.493  15.943 -0.5012  0.1633  0.0891
10524TIP3    H152987   6.774   3.399  15.930 -0.6042 -0.0827  1.8343
10524TIP3    H252988   6.876   3.503  15.972 -0.4531  0.6251 -0.2052
10525TIP3   OH252989   2.220   3.079   5.111 -0.2400  0.2064 -0.0891
10525TIP3    H152990   2.169   3.057   5.034 -2.3635  1.0342  1.0339
10525TIP3    H252991   2.208   3.005   5.170  2.1291 -0.8559 -0.8536
10526TIP3   OH252992   4.033   3.857  17.105  0.4347 -0.2619 -0.4042
10526TIP3    H152993   4.076   3.801  17.041 -0.0073  0.2116 -1.1263
10526TIP3    H252994   3.977   3.915  17.053  0.3628  0.3859  0.3744
10527TIP3   OH252995   1.750   4.591  13.797 -0.2919 -0.8415 -0.0075
10527TIP3    H152996   1.806   4.666  13.778  1.1560 -1.5487  1.3518
10527TIP3    H252997   1.804   4.515  13.777 -1.8948 -1.5488 -1.8123
10528TIP3   OH252998   4.230   4.350  13.092  0.0605 -0.0064 -0.0901
10528TIP3    H152999   4.262   4.370  13.003 -0.0635  0.1422 -0.1012
10528TIP3    H253000   4.135   4.361  13.086 -0.0133 -0.6516 -0.1039
10529TIP3   OH253001   5.424   5.592  15.080 -0.0610  0.4343  0.3379
10529TIP3    H153002   5.420   5.559  14.991 -0.2323  3.6175 -0.9218
10529TIP3    H253003   5.516   5.586  15.104 -0.3610 -2.6324  0.8828
10530TIP3   OH253004   2.082   2.797  17.117  0.0146 -0.0802 -0.0029
10530TIP3    H153005   2.052   2.706  17.111  0.8867 -0.5310  2.2275
10530TIP3    H253006   2.158   2.794  17.174  0.0335  2.0705  0.1368
10531TIP3   OH253007   2.532   0.689  12.989  0.3842 -0.5180 -0.1615
10531TIP3    H153008   2.549   0.782  13.007  1.3039 -0.9073  1.0341
10531TIP3    H253009   2.436   0.682  12.988  0.2998  0.0617  1.8522
10532TIP3   OH253010   5.248   3.841   2.660 -0.3002 -0.0267  0.2599
10532TIP3    H153011   5.266   3.935   2.663 -2.2578  0.3251  1.6010
10532TIP3    H253012   5.317   3.802   2.715 -0.1167  0.7280  0.5766
10533TIP3   OH253013   0.461   0.659   2.671  0.8744  0.3503  0.2586
10533TIP3    H153014   0.388   0.721   2.678  0.9026  0.4705 -0.4714
10533TIP3    H253015   0.451   0.602   2.748 -1.0569 -0.7818 -0.7918
10534TIP3   OH253016   3.757   4.265   0.975 -0.7616 -0.3275  0.3068
10534TIP3    H153017   3.772   4.339   0.916 -1.9440  0.4519  0.9761
10534TIP3    H253018   3.780   4.298   1.062 -3.0593 -0.1449  0.8784
10535TIP3   OH253019   2.574   3.749  14.229  0.2865  0.5224 -0.3474
10535TIP3    H153020   2.567   3.776  14.321 -0.2122 -1.6362  0.2824
10535TIP3    H253021   2.483   3.749  14.198  0.5600  2.4286 -1.2284
10536TIP3   OH253022   5.648   5.463  11.586  0.4522  0.0689 -0.6201
10536TIP3    H153023   5.731   5.503  11.610  0.8317 -0.5068 -0.9834
10536TIP3    H253024   5.661   5.430  11.497  0.0801 -0.6880 -0.4012
10537TIP3   OH253025   6.556   0.543   0.138 -0.2681 -0.3729  0.4598
10537TIP3    H153026   6.593   0.613   0.192  0.4056  1.3205 -2.1013
10537TIP3    H253027   6.467   0.532   0.171 -0.2319  1.3831  1.1884
10538TIP3   OH253028   4.595   1.786   5.798 -0.2116  0.4031  0.0835
10538TIP3    H153029   4.583   1.781   5.893 -1.1703 -0.4323 -0.0679
10538TIP3    H253030   4.620   1.876   5.782 -0.8326  0.7601  1.0606
10539TIP3   OH253031   0.786   2.624  15.201  0.2914  0.3246 -0.0243
10539TIP3    H153032   0.740   2.703  15.229  0.0006  0.3820 -0.6594
10539TIP3    H253033   0.724   2.579  15.144 -0.0510 -1.0332  1.3788
10540TIP3   OH253034   3.013   6.140   5.869 -0.4801 -0.7288  0.3717
10540TIP3    H153035   3.049   6.102   5.789  0.4894  1.1177 -0.0801
10540TIP3    H253036   2.936   6.086   5.888 -2.6237  0.7934 -3.6193
10541TIP3   OH253037   1.077   6.339  14.382 -0.1892  0.2540 -0.0499
10541TIP3    H153038   1.003   6.335  14.444  0.2086  0.5769  0.4437
10541TIP3    H253039   1.060   6.418  14.331 -1.1113 -0.6088 -1.1100
10542TIP3   OH253040   4.280   4.038  11.926 -0.6273  0.1170  0.4603
10542TIP3    H153041   4.313   4.074  12.008 -0.7748  0.2572  0.4592
10542TIP3    H253042   4.300   3.944  11.931  0.2963  0.2973  0.1980
10543TIP3   OH253043   5.045   3.098   5.227  0.3193  1.0391  0.5709
10543TIP3    H153044   5.121   3.109   5.172 -0.8239 -4.1316 -2.4008
10543TIP3    H253045   4.972   3.131   5.175 -0.3826 -1.1309  0.1216
10544TIP3   OH253046   4.643   6.614   3.593  0.0252  0.1633  0.4006
10544TIP3    H153047   4.676   6.630   3.681 -0.1131  1.4123  0.2367
10544TIP3    H253048   4.570   6.553   3.605  2.0830 -2.2700  0.7942
10545TIP3   OH253049   2.789   0.504  14.670 -0.7883 -0.1441  0.2138
10545TIP3    H153050   2.845   0.541  14.602  0.5483 -0.0843  1.3305
10545TIP3    H253051   2.829   0.531  14.752 -2.4830 -0.0710  1.0423
10546TIP3   OH253052   5.074   0.389   4.641  0.4475 -0.5341 -0.4723
10546TIP3    H153053   5.135   0.369   4.712 -0.1522 -0.7541 -0.0100
10546TIP3    H253054   5.067   0.307   4.591  0.8820 -0.3745 -0.7957
10547TIP3   OH253055   1.385   0.452   1.842  0.2729  0.1442  0.3060
10547TIP3    H153056   1.329   0.501   1.903  1.7848  2.6059 -0.2151
10547TIP3    H253057   1.471   0.493   1.850  0.9129 -0.5920 -2.2635
10548TIP3   OH253058   5.235   5.564  14.699  0.0696  0.4108  0.0866
10548TIP3    H153059   5.294   5.543  14.626  1.7480  0.0937  1.4853
10548TIP3    H253060   5.186   5.483  14.714 -0.4089  0.5309 -0.7811
10549TIP3   OH253061   0.421   4.030  14.084  0.2924  0.1532 -0.0845
10549TIP3    H153062   0.479   3.961  14.118 -0.0672  0.4303  1.1313
10549TIP3    H253063   0.476   4.107  14.078  0.6502 -0.1868 -1.2685
10550TIP3   OH253064   5.969   5.191   1.560  0.1480  0.2722 -0.4689
10550TIP3    H153065   5.915   5.202   1.638  2.7263  0.6012  1.3060
10550TIP3    H253066   5.937   5.110   1.519 -1.1430  0.0482  0.9770
10551TIP3   OH253067   2.997   0.027  13.657 -0.3170  0.0576  0.0213
10551TIP3    H153068   2.906   0.055  13.646  0.0899  1.2548 -0.4187
10551TIP3    H253069   2.991  -0.066  13.679 -1.8006  0.7693  2.9765
10552TIP3   OH253070   3.404   5.880   5.827  0.1162  0.2085  0.9671
10552TIP3    H153071   3.358   5.916   5.903 -0.8128  0.4771  0.2897
10552TIP3    H253072   3.478   5.832   5.864  0.5197  1.5539  1.9719
10553TIP3   OH253073   5.181   0.051  14.607 -0.1929 -0.2535  0.2539
10553TIP3    H153074   5.179   0.119  14.540 -1.3781 -1.6082 -1.1295
10553TIP3    H253075   5.114   0.077  14.670 -0.3344  0.0850 -0.0377
10554TIP3   OH253076   5.445   1.588  15.569 -0.4143  0.4070  0.1472
10554TIP3    H153077   5.424   1.504  15.610 -1.3455 -0.3808 -1.8680
10554TIP3    H253078   5.360   1.628  15.552 -0.0201  0.9846 -0.4762
10555TIP3   OH253079   1.195   0.575   5.945  0.2995  0.5822 -0.2723
10555TIP3    H153080   1.114   0.600   5.991  0.9979  2.2090  0.1284
10555TIP3    H253081   1.237   0.513   6.004 -0.1494  0.5532  0.0215
10556TIP3   OH253082   1.590   1.885   5.136  0.2557  0.2617  0.1155
10556TIP3    H153083   1.570   1.845   5.052  0.9856 -1.8601  0.9072
10556TIP3    H253084   1.504   1.899   5.177 -0.1463  1.9749 -1.2283
10557TIP3   OH253085   6.491   0.414   5.277 -0.6566 -0.0574 -0.4882
10557TIP3    H153086   6.482   0.368   5.193 -3.7260  0.0804 -0.2957
10557TIP3    H253087   6.585   0.411   5.296 -0.1950 -2.1210 -2.7850
10558TIP3   OH253088   5.555   6.686  14.318 -0.4429 -0.2197  0.0862
10558TIP3    H153089   5.514   6.732  14.392 -0.2279 -2.3950  1.5975
10558TIP3    H253090   5.563   6.595  14.347  2.9510 -0.4247 -1.2565
10559TIP3   OH253091   1.963   6.423  15.159  0.5471 -0.2126  0.2193
10559TIP3    H153092   1.997   6.471  15.235  1.6295  0.3631 -0.6258
10559TIP3    H253093   1.870   6.444  15.157  1.1170  2.4219 -0.5510
10560TIP3   OH253094   3.879   2.989   3.884 -0.0595  0.1881  0.2973
10560TIP3    H153095   3.892   2.909   3.833  0.2739  0.1670  0.4134
10560TIP3    H253096   3.881   3.060   3.820 -0.4710  0.0907  0.1808
10561TIP3   OH253097   4.016   0.437  12.128  0.2241  0.0409  0.1810
10561TIP3    H153098   4.041   0.485  12.207 -0.0253 -0.9307  0.8576
10561TIP3    H253099   3.922   0.420  12.139 -0.1744  1.3354 -1.0975
10562TIP3   OH253100   2.400   2.573   1.827  0.2197 -0.2460 -0.4342
10562TIP3    H153101   2.331   2.616   1.879  0.2556  0.4598 -0.9591
10562TIP3    H253102   2.428   2.499   1.881 -0.5891 -0.2318  0.0153
10563TIP3   OH253103   2.132   0.548   3.573  0.7969  0.0389  0.0762
10563TIP3    H153104   2.221   0.529   3.605  0.8120  0.8914  0.5578
10563TIP3    H253105   2.132   0.642   3.557 -0.0249  0.0440  0.0909
10564TIP3   OH253106   0.156   6.538   0.913  0.1080  0.4717 -0.2964
10564TIP3    H153107   0.186   6.488   0.837 -0.0449  0.5172 -0.3852
10564TIP3    H253108   0.169   6.629   0.889  0.8700  0.4670  0.0612
10565TIP3   OH253109   2.611   2.169   5.487  0.0788 -0.2766 -0.2942
10565TIP3    H153110   2.681   2.145   5.427 -0.9223  0.4741 -1.7913
10565TIP3    H253111   2.655   2.216   5.558  0.9960  0.9087 -1.6231
10566TIP3   OH253112   1.488   5.718  15.929 -0.8298  0.3444 -0.0522
10566TIP3    H153113   1.492   5.623  15.928 -0.7468  0.3390  0.8853
10566TIP3    H253114   1.537   5.745  15.851 -2.8153 -0.4422 -1.6330
10567TIP3   OH253115   4.850   4.210   1.105  0.1916 -0.2414  0.1659
10567TIP3    H153116   4.932   4.164   1.088  1.4348  1.1254  2.2436
10567TIP3    H253117   4.854   4.287   1.048  0.6874  0.1886  0.7756
10568TIP3   OH253118   0.662   3.270  15.060  0.3521 -0.5950 -0.4838
10568TIP3    H153119   0.616   3.206  15.006  0.0466 -0.4366 -0.4115
10568TIP3    H253120   0.606   3.348  15.057  0.0611 -0.7661  0.5065
10569TIP3   OH253121   0.474   2.181  12.121 -0.1149 -0.4998 -0.5688
10569TIP3    H153122   0.542   2.136  12.172 -1.7383 -0.4264  1.7392
10569TIP3    H253123   0.424   2.231  12.186 -0.0020  2.5785 -2.7255
10570TIP3   OH253124   4.666   5.875   2.434  0.5724 -0.0424  0.0137
10570TIP3    H153125   4.606   5.860   2.361  0.5384  0.7249 -0.1208
10570TIP3    H253126   4.753   5.859   2.398  0.4639 -0.9878  0.1637
10571TIP3   OH253127   0.247   2.876  11.600 -0.0143 -0.3981 -0.1014
10571TIP3    H153128   0.194   2.954  11.588 -0.3390 -0.7405 -0.9550
10571TIP3    H253129   0.308   2.877  11.526 -1.9927 -2.5044 -1.8671
10572TIP3   OH253130   4.782   5.828   4.738  0.5679 -0.3976 -0.3539
10572TIP3    H153131   4.702   5.781   4.712  0.1376  1.4588 -2.5434
10572TIP3    H253132   4.770   5.916   4.702  2.8260  0.4246  0.8520
10573TIP3   OH253133   3.511   4.678  11.806  0.0088  0.2454 -0.4644
10573TIP3    H153134   3.506   4.685  11.901  0.2913 -0.9493 -0.3564
10573TIP3    H253135   3.489   4.765  11.774 -2.1937  0.0997  0.6297
10574TIP3   OH253136   4.464   2.356   0.043  0.3988  0.1623  0.1968
10574TIP3    H153137   4.476   2.366   0.138  0.2697 -1.7031  0.4282
10574TIP3    H253138   4.381   2.309   0.035  0.2341  0.6395 -0.8669
10575TIP3   OH253139   3.139   4.349   5.585  0.3377  0.7887  0.0088
10575TIP3    H153140   3.125   4.301   5.503 -1.5709 -0.0159  0.7613
10575TIP3    H253141   3.054   4.391   5.602  0.9177  1.4819  1.2249
10576TIP3   OH253142   4.158   1.027  15.124  0.0244 -0.4694 -0.1603
10576TIP3    H153143   4.179   1.100  15.065 -0.5473 -0.0762  0.1114
10576TIP3    H253144   4.072   1.050  15.160 -0.3901 -1.5535 -0.4776
10577TIP3   OH253145   1.261   2.131   3.599  0.9270  0.5313  0.4336
10577TIP3    H153146   1.289   2.104   3.512  1.1510  0.1702  0.6178
10577TIP3    H253147   1.203   2.206   3.583  0.8586  0.3812 -0.0327
10578TIP3   OH253148   3.625   0.209  15.206  0.2299  0.1266  0.2133
10578TIP3    H153149   3.538   0.240  15.232 -0.2047 -2.9034  2.7354
10578TIP3    H253150   3.609   0.153  15.130  0.0798  0.2896  0.1254
10579TIP3   OH253151   5.900   1.575  14.633 -0.6437 -0.1823  0.4925
10579TIP3    H153152   5.994   1.572  14.613 -1.0905 -1.3707 -1.5562
10579TIP3    H253153   5.874   1.483  14.639 -1.5305  0.1473  1.8525
10580TIP3   OH253154   2.333   4.875  11.748 -0.1645 -0.6344  0.0363
10580TIP3    H153155   2.371   4.819  11.816 -0.5128 -0.9055  0.0084
10580TIP3    H253156   2.398   4.875  11.678 -0.2703 -1.2121 -0.0685
10581TIP3   OH253157   2.893   2.967  12.503  0.0598 -0.1224  0.1983
10581TIP3    H153158   2.955   2.895  12.495  1.3021  0.8256  1.0567
10581TIP3    H253159   2.923   3.032  12.440 -2.1441 -1.0516 -1.9382
10582TIP3   OH253160   5.465   3.657  16.733 -0.2389  0.1647  0.5304
10582TIP3    H153161   5.491   3.600  16.660  1.1886 -0.0948  1.2320
10582TIP3    H253162   5.536   3.649  16.796 -1.1762  0.8738  1.6905
10583TIP3   OH253163   4.239   5.824  12.095  0.1540  0.1187 -0.5307
10583TIP3    H153164   4.309   5.760  12.080 -0.0466 -0.0907 -0.5799
10583TIP3    H253165   4.176   5.777  12.151 -0.2075  0.1231 -0.9336
10584TIP3   OH253166   2.385   4.151  14.532 -0.0999 -0.5334  0.0238
10584TIP3    H153167   2.480   4.144  14.523 -0.1777 -2.6778  0.6537
10584TIP3    H253168   2.373   4.191  14.619  0.2185 -1.7173  0.6277
10585TIP3   OH253169   5.313   1.738  13.897  0.3830 -0.3331 -0.2210
10585TIP3    H153170   5.344   1.749  13.807 -2.8018 -1.6943 -1.5623
10585TIP3    H253171   5.300   1.827  13.929  1.5268  0.1563 -1.0850
10586TIP3   OH253172   4.903   6.305  12.926  0.4591  0.2201  0.1066
10586TIP3    H153173   4.912   6.368  12.996  1.0633 -1.6797  1.7883
10586TIP3    H253174   4.985   6.255  12.928 -0.7413 -1.8039  0.0393
10587TIP3   OH253175   1.430   1.764   4.905 -0.4341 -0.6958 -0.2005
10587TIP3    H153176   1.438   1.673   4.875  0.8686 -1.0051  1.0672
10587TIP3    H253177   1.339   1.787   4.883 -0.9636 -2.4874 -0.0353
10588TIP3   OH253178   0.927   6.425   2.725 -0.5169  0.1824  0.1504
10588TIP3    H153179   0.995   6.458   2.784  0.4357  1.1628 -1.4625
10588TIP3    H253180   0.848   6.422   2.779  0.6326 -0.2932  1.8589
10589TIP3   OH253181   0.559   0.369  15.496  0.3054  0.7004 -0.0037
10589TIP3    H153182   0.537   0.304  15.430  0.7728  1.4861 -0.9549
10589TIP3    H253183   0.621   0.325  15.554  0.7235  0.3391 -0.7181
10590TIP3   OH253184   4.737   1.201   5.784 -0.3477 -0.0111 -0.2063
10590TIP3    H153185   4.799   1.131   5.764 -0.1290  0.5596 -1.5242
10590TIP3    H253186   4.782   1.256   5.848 -0.1754 -0.5700  0.1533
10591TIP3   OH253187   2.779   1.289   4.636  0.3647  0.1260  0.7049
10591TIP3    H153188   2.768   1.210   4.582  1.5720  1.4318 -1.5013
10591TIP3    H253189   2.710   1.281   4.703 -0.0470 -2.3947  0.0601
10592TIP3   OH253190   2.101   0.059  13.295  0.2680 -0.4203  0.2206
10592TIP3    H153191   2.031   0.113  13.333  0.0041 -2.0213  2.0737
10592TIP3    H253192   2.058  -0.023  13.272  0.8724 -0.2232 -1.7125
10593TIP3   OH253193   2.554   3.021  12.925 -0.1608  0.2305 -0.5780
10593TIP3    H153194   2.639   3.045  12.960  0.2081  0.0926 -1.3698
10593TIP3    H253195   2.526   2.946  12.977  0.3093  0.1231 -0.4851
10594TIP3   OH253196   0.310   3.421   3.885 -0.0445  0.2724  0.4162
10594TIP3    H153197   0.238   3.379   3.932  0.1459  0.5990  1.0021
10594TIP3    H253198   0.371   3.449   3.953  1.0296 -0.6981 -0.1226
10595TIP3   OH253199   3.892   1.833   5.485 -0.5022  0.1084 -0.6633
10595TIP3    H153200   3.982   1.852   5.511 -0.0902 -2.0014 -0.4046
10595TIP3    H253201   3.901   1.788   5.401 -1.4660  1.7090 -1.6529
10596TIP3   OH253202   1.587   0.918  12.658  0.1064 -0.2326 -0.8006
10596TIP3    H153203   1.602   0.922  12.563 -1.2119  0.2570 -1.0030
10596TIP3    H253204   1.675   0.910  12.696  0.9109  2.4926 -1.9201
10597TIP3   OH253205   6.571   1.716   3.343  0.5689 -0.3697 -0.0657
10597TIP3    H153206   6.621   1.716   3.262  0.0236 -2.6911 -0.4382
10597TIP3    H253207   6.507   1.645   3.332  0.4291 -0.6649  2.3491
10598TIP3   OH253208   6.399   1.405  12.955  0.5242  0.5474 -0.0119
10598TIP3    H153209   6.464   1.358  13.007 -0.1258  0.9788  1.1996
10598TIP3    H253210   6.444   1.484  12.925  0.9947  0.1414 -0.3796
10599TIP3   OH253211   1.185   3.052  12.856 -0.6283 -0.4146 -0.3317
10599TIP3    H153212   1.150   3.141  12.865 -1.7430 -0.8581 -0.2399
10599TIP3    H253213   1.238   3.055  12.776  0.4088  0.6705  0.3839
10600TIP3   OH253214   3.256   3.574   3.980  0.1489 -0.0151 -0.0955
10600TIP3    H153215   3.289   3.610   4.063 -3.3868 -0.3446  1.5438
10600TIP3    H253216   3.314   3.610   3.913  1.7028  2.0958  2.3109
10601TIP3   OH253217   4.468   2.261   3.018  0.0590  0.3456 -0.4861
10601TIP3    H153218   4.530   2.200   2.980 -1.1332  0.3082 -2.4674
10601TIP3    H253219   4.388   2.210   3.031 -0.2460  0.9254 -0.0181
10602TIP3   OH253220   0.207   6.438  15.932 -0.0963  0.3248 -0.7586
10602TIP3    H153221   0.245   6.489  16.004 -0.4433  0.6707 -0.8157
10602TIP3    H253222   0.280   6.423  15.872 -0.6599  3.5821 -2.3584
10603TIP3   OH253223   1.914   1.161  16.277 -0.3166  0.4621  0.0114
10603TIP3    H153224   1.869   1.105  16.340 -1.8856  0.5106 -1.0563
10603TIP3    H253225   1.916   1.247  16.318 -2.6980  0.8463 -0.6381
10604TIP3   OH253226   1.413   1.531  16.440  0.1656  0.2828  0.5843
10604TIP3    H153227   1.431   1.618  16.475  1.9224  0.3983 -0.4847
10604TIP3    H253228   1.427   1.472  16.514 -1.7649  0.9520  1.5071
10605TIP3   OH253229   5.840   4.200  16.849  0.6200  0.1287 -0.3264
10605TIP3    H153230   5.874   4.290  16.854  0.4667  0.1786 -0.1874
10605TIP3    H253231   5.746   4.209  16.860  0.7534 -0.1863  1.2056
10606TIP3   OH253232   4.546   2.413  15.560 -0.3248  0.2236  0.3061
10606TIP3    H153233   4.567   2.493  15.511  1.6537  0.4536  1.4427
10606TIP3    H253234   4.611   2.412  15.631 -2.1485 -0.8919  2.0015
10607TIP3   OH253235   3.409   4.944   5.415 -0.3266 -0.1070 -0.1612
10607TIP3    H153236   3.316   4.930   5.435  0.3605 -1.5391  2.2766
10607TIP3    H253237   3.433   5.021   5.467 -0.0953  0.1606 -0.6583
10608TIP3   OH253238   3.520   3.490  15.376  0.3806  0.1005  0.0364
10608TIP3    H153239   3.489   3.401  15.392 -0.4188  0.2974 -0.3853
10608TIP3    H253240   3.444   3.536  15.343  0.1044  1.6506  2.6944
10609TIP3   OH253241   0.499   2.556  12.416  0.2343 -0.3550 -0.5923
10609TIP3    H153242   0.468   2.643  12.389 -0.7820  0.1435  2.0468
10609TIP3    H253243   0.545   2.522  12.339  0.3099  2.3592 -1.8038
10610TIP3   OH253244   5.922   2.399   3.977 -0.1070  0.2644 -0.4440
10610TIP3    H153245   5.913   2.469   3.912  1.3017  0.7908 -0.0800
10610TIP3    H253246   5.863   2.331   3.946  1.0636  0.2215 -2.6639
10611TIP3   OH253247   3.868   0.676   2.573  0.1509  0.7670  0.4122
10611TIP3    H153248   3.813   0.706   2.645  1.2599  2.3370  0.6349
10611TIP3    H253249   3.946   0.732   2.578  2.9120 -2.9272  1.6423
10612TIP3   OH253250   3.267   2.459  14.261  0.3011  0.1497 -0.0403
10612TIP3    H153251   3.189   2.474  14.208  0.0448  0.6724  0.4907
10612TIP3    H253252   3.323   2.534  14.243 -0.1460  0.7633  1.0844
10613TIP3   OH253253   2.331   6.142  11.118 -0.0734 -0.2697  0.4971
10613TIP3    H153254   2.254   6.195  11.097  1.3713  1.6173 -0.2280
10613TIP3    H253255   2.365   6.181  11.199  2.3969  1.5951 -1.3366
10614TIP3   OH253256   4.638   2.684   6.366 -0.1237 -0.0802  0.1524
10614TIP3    H153257   4.542   2.684   6.361 -0.1413 -0.3914  0.4680
10614TIP3    H253258   4.667   2.667   6.277 -0.3625  0.3557 -0.0069
10615TIP3   OH253259   3.521   6.522   4.848  0.4433  0.5765  0.4884
10615TIP3    H153260   3.429   6.509   4.827  0.8158 -0.7312 -0.4507
10615TIP3    H253261   3.526   6.510   4.943 -0.1130 -0.9299  0.3391
10616TIP3   OH253262   4.807   6.761  14.778 -0.1899 -0.0085  0.3363
10616TIP3    H153263   4.768   6.766  14.865  0.4186  0.3120  0.5932
10616TIP3    H253264   4.893   6.800  14.788 -0.2407  0.3262 -0.4895
10617TIP3   OH253265   5.598   6.718   5.079 -0.2509  0.4228  0.1602
10617TIP3    H153266   5.529   6.704   5.014 -0.2268 -0.3482  0.2887
10617TIP3    H253267   5.678   6.686   5.038 -0.0818  0.7232  0.2517
10618TIP3   OH253268   0.706   3.393  13.248  0.3733 -0.3314 -0.1048
10618TIP3    H153269   0.626   3.354  13.212  0.9774 -1.0264 -0.7099
10618TIP3    H253270   0.699   3.378  13.342 -0.9119  0.9333  0.0126
10619TIP3   OH253271   1.161   1.621   5.203 -0.0580  0.5345  0.1050
10619TIP3    H153272   1.093   1.688   5.197  0.2912  0.8311 -0.5966
10619TIP3    H253273   1.176   1.594   5.112  0.0669 -0.2331  0.3522
10620TIP3   OH253274   1.506   3.558  14.116  0.1408  0.1341  0.2031
10620TIP3    H153275   1.458   3.506  14.180  0.3380 -0.1774  0.1037
10620TIP3    H253276   1.591   3.574  14.156  0.0243  0.5101  0.2961
10621TIP3   OH253277   4.782   6.772  15.585 -0.0025  0.1445  0.4072
10621TIP3    H153278   4.757   6.683  15.611  1.2395 -1.2836 -3.0195
10621TIP3    H253279   4.849   6.798  15.647 -0.4271 -1.2715  1.4766
10622TIP3   OH253280   2.336   2.366   4.292 -0.1765  0.1364 -0.0200
10622TIP3    H153281   2.276   2.327   4.229  2.1027 -2.8222 -0.4864
10622TIP3    H253282   2.423   2.344   4.259  1.1423  2.0795  1.9856
10623TIP3   OH253283   0.064   4.153   5.670  0.4307 -0.4615  0.4197
10623TIP3    H153284   0.152   4.136   5.638 -0.2957 -0.9816 -1.3634
10623TIP3    H253285   0.039   4.074   5.717  0.5467 -0.6948  0.0874
10624TIP3   OH253286   3.136   6.387  11.522  0.4093 -0.6865 -0.4332
10624TIP3    H153287   3.067   6.374  11.587 -0.7024  2.2563 -0.9546
10624TIP3    H253288   3.089   6.404  11.441  1.7933 -2.7991 -1.7165
10625TIP3   OH253289   6.231   4.410  16.894  0.3429  0.0942 -0.0044
10625TIP3    H153290   6.214   4.319  16.921 -1.7537  0.2414 -0.7696
10625TIP3    H253291   6.190   4.463  16.962  2.0803  0.4937  0.7572
10626TIP3   OH253292   6.313   3.523  13.431 -0.1691 -0.0632 -0.2546
10626TIP3    H153293   6.254   3.522  13.506  0.7108 -0.9452  0.4275
10626TIP3    H253294   6.295   3.442  13.384  1.1466 -0.8203  0.4903
10627TIP3   OH253295   3.893   1.473   5.242  0.6969  0.5328  0.2903
10627TIP3    H153296   3.928   1.493   5.329  0.1640  0.2674  0.5654
10627TIP3    H253297   3.859   1.557   5.210  1.1430  0.6888  0.2220
10628TIP3   OH253298   6.777   1.200  16.287  0.4413 -0.1186  0.0578
10628TIP3    H153299   6.707   1.224  16.347 -1.2186  0.0941 -1.8887
10628TIP3    H253300   6.771   1.104  16.280  0.3585 -0.1015 -0.1007
10629TIP3   OH253301   1.512   5.685  15.101  0.4860 -0.0614 -0.0398
10629TIP3    H153302   1.498   5.764  15.153 -2.3345 -1.2803  1.1220
10629TIP3    H253303   1.445   5.689  15.033  2.5272  0.2372 -2.1108
10630TIP3   OH253304   2.560   0.790   3.700  0.1276 -0.4494  0.0425
10630TIP3    H153305   2.481   0.842   3.714  0.8280  0.3820  0.9789
10630TIP3    H253306   2.618   0.815   3.772  1.5176 -0.5167 -1.0465
10631TIP3   OH253307   3.132   3.641  11.638 -0.3500 -0.3311  0.5389
10631TIP3    H153308   3.169   3.711  11.583 -2.5181  1.5453  1.3722
10631TIP3    H253309   3.097   3.577  11.576  1.5045 -0.6242 -0.2413
10632TIP3   OH253310   1.075   3.305   2.447  0.4325 -0.2401  0.1392
10632TIP3    H153311   1.121   3.369   2.393  1.0787 -1.1253 -0.3903
10632TIP3    H253312   0.989   3.295   2.404 -0.2222  1.3380  1.0710
10633TIP3   OH253313   0.518   2.874   1.563 -0.8635 -0.0757  0.7480
10633TIP3    H153314   0.561   2.893   1.480  0.0440 -0.5445  1.1022
10633TIP3    H253315   0.493   2.960   1.597  1.0651  0.3397  1.1964
10634TIP3   OH253316   4.645   6.760  14.398 -0.0741  0.4966  0.2569
10634TIP3    H153317   4.599   6.736  14.479  1.1683 -0.5420  0.6663
10634TIP3    H253318   4.730   6.717  14.405  1.3892  3.2056 -0.0367
10635TIP3   OH253319   0.713   4.763   3.162 -0.0864 -0.2370  0.4197
10635TIP3    H153320   0.738   4.853   3.183  1.8449 -0.8810  1.0292
10635TIP3    H253321   0.722   4.757   3.067  1.5181 -0.2620  0.5582
10636TIP3   OH253322   3.560   0.456   4.605  0.3987  0.0400  0.7071
10636TIP3    H153323   3.488   0.397   4.584  2.2341 -1.2060 -2.4842
10636TIP3    H253324   3.549   0.529   4.545 -0.1000  1.4920  2.5364
10637TIP3   OH253325   4.364   4.059   3.803  0.0087  0.2065 -0.1038
10637TIP3    H153326   4.379   4.149   3.774  1.0621 -0.0405 -0.3406
10637TIP3    H253327   4.420   4.006   3.745  1.4586 -0.3787  1.7868
10638TIP3   OH253328   2.996   2.352  10.459  0.4394 -0.0829  0.1853
10638TIP3    H153329   2.971   2.270  10.418 -0.0681  0.0129  0.2987
10638TIP3    H253330   2.923   2.374  10.516  1.1375 -0.2266  1.1622
10639TIP3   OH253331   4.114   5.335   2.581 -0.1324  0.4209  0.0685
10639TIP3    H153332   4.137   5.259   2.528  2.6110 -0.4739  2.4084
10639TIP3    H253333   4.052   5.302   2.646  1.3056  0.0450  1.2887
10640TIP3   OH253334   2.448   2.388  14.373  0.4505  0.2677 -0.0698
10640TIP3    H153335   2.464   2.393  14.467  0.4148  0.1389 -0.0550
10640TIP3    H253336   2.459   2.295  14.352 -1.1721  0.0194  0.1063
10641TIP3   OH253337   5.719   1.731  14.015 -0.0884 -0.2929  0.7805
10641TIP3    H153338   5.775   1.808  14.021 -0.1429 -0.2290  0.4914
10641TIP3    H253339   5.631   1.764  14.035 -0.3854  0.0653 -1.0165
10642TIP3   OH253340   4.312   6.500  15.724 -0.3132 -0.1256 -0.0433
10642TIP3    H153341   4.222   6.532  15.721  0.3598  1.7633 -0.8558
10642TIP3    H253342   4.328   6.467  15.636 -0.3404 -0.8658  0.2267
10643TIP3   OH253343   0.237   0.335  11.391 -0.6827 -0.2994  0.4188
10643TIP3    H153344   0.323   0.295  11.377  0.0458  1.2489  0.3572
10643TIP3    H253345   0.255   0.429  11.399 -2.4941  0.1575 -0.6221
10644TIP3   OH253346   5.906   0.137   3.074 -0.1421 -0.2428 -0.0846
10644TIP3    H153347   5.859   0.056   3.055 -0.2337 -0.2418  0.1401
10644TIP3    H253348   5.920   0.135   3.168 -0.8605  0.3906  0.0435
10645TIP3   OH253349   3.638   3.780  15.169  0.1141  0.8231 -0.5945
10645TIP3    H153350   3.574   3.764  15.100 -0.3215 -0.0409  0.0041
10645TIP3    H253351   3.586   3.796  15.247  0.6221 -0.0798 -0.0609
10646TIP3   OH253352   3.053   3.870   0.444 -0.2295 -0.3971 -0.0532
10646TIP3    H153353   3.126   3.863   0.505 -0.7355  0.2824  0.6516
10646TIP3    H253354   3.055   3.789   0.393  0.6924 -0.6066  0.3173
10647TIP3   OH253355   4.267   6.657  12.688 -0.4219 -0.2369  0.1117
10647TIP3    H153356   4.317   6.732  12.720 -0.3387 -0.4203  0.4023
10647TIP3    H253357   4.181   6.694  12.666 -0.8915 -0.3390  1.7157
10648TIP3   OH253358   1.678   1.149  12.450  0.3770 -0.0648 -0.0817
10648TIP3    H153359   1.618   1.174  12.380 -0.1118  1.6119  0.9096
10648TIP3    H253360   1.634   1.176  12.530  0.8464 -2.1341  0.9142
10649TIP3   OH253361   5.834   4.052  12.124  0.0731 -0.2698 -0.7185
10649TIP3    H153362   5.854   4.145  12.136 -0.2009 -0.4815  1.4827
10649TIP3    H253363   5.751   4.052  12.076 -0.6180  0.6276  0.4585
10650TIP3   OH253364   2.578   1.799  17.046 -0.5735  0.0022 -0.1027
10650TIP3    H153365   2.597   1.772  17.136  0.4360 -0.8681 -0.5623
10650TIP3    H253366   2.664   1.803  17.004 -0.8004  2.8763 -0.3680
10651TIP3   OH253367   3.408   3.040  15.840  0.4289 -0.7528  0.5932
10651TIP3    H153368   3.480   3.097  15.812  0.6378 -1.1301  0.3679
10651TIP3    H253369   3.415   3.037  15.935  1.4599 -1.7770  0.4952
10652TIP3   OH253370   4.987   3.094  13.316  0.5860  0.1096  0.4866
10652TIP3    H153371   4.898   3.092  13.282  1.0305  1.7064 -0.8427
10652TIP3    H253372   4.981   3.148  13.395 -0.3421 -3.1484  2.7663
10653TIP3   OH253373   0.832   1.367  15.793  0.1839 -0.6702 -0.7389
10653TIP3    H153374   0.876   1.307  15.733 -2.4010  0.2454 -3.7268
10653TIP3    H253375   0.844   1.454  15.754  1.0347  0.3639  1.7303
10654TIP3   OH253376   3.703   3.635   4.433  0.3273 -0.0009 -1.1121
10654TIP3    H153377   3.705   3.705   4.498  0.9938 -0.2058 -0.9087
10654TIP3    H253378   3.711   3.680   4.349 -0.3772  0.2533 -1.0478
10655TIP3   OH253379   4.645   2.973  15.602 -0.4898  0.5037 -0.6087
10655TIP3    H153380   4.617   3.065  15.602 -2.7305 -0.1484 -0.5843
10655TIP3    H253381   4.713   2.969  15.669 -1.9500  1.7004  1.0148
10656TIP3   OH253382   0.057   4.485   3.715  0.2673  0.3310  0.2849
10656TIP3    H153383   0.057   4.458   3.624 -0.1295 -0.1198  0.4141
10656TIP3    H253384  -0.029   4.459   3.748  1.3601 -1.8931  1.4959
10657TIP3   OH253385   4.507   6.503  11.710 -0.1774 -0.0195  0.2817
10657TIP3    H153386   4.540   6.414  11.721  0.8144  0.1538 -1.1774
10657TIP3    H253387   4.478   6.507  11.619 -1.1979  0.8275  0.6381
10658TIP3   OH253388   2.581   2.099  13.382 -0.0299  0.0640 -0.1512
10658TIP3    H153389   2.663   2.054  13.363 -0.2157 -0.2303 -0.2562
10658TIP3    H253390   2.586   2.180  13.331  1.1211  1.0627  1.5104
10659TIP3   OH253391   4.763   3.518  12.831 -0.2197 -1.4482 -0.6795
10659TIP3    H153392   4.799   3.494  12.917 -1.2936 -0.6661 -0.0034
10659TIP3    H253393   4.832   3.571  12.791 -0.7263  0.3908  0.7791
10660TIP3   OH253394   4.238   3.130   4.216 -0.3045  0.0162  0.2339
10660TIP3    H153395   4.325   3.151   4.182 -0.8540  0.0745 -1.1854
10660TIP3    H253396   4.202   3.215   4.243  0.0423  0.0057  0.7237
10661TIP3   OH253397   4.839   6.129   1.441  0.4333  0.3586  0.2697
10661TIP3    H153398   4.751   6.105   1.471  0.3302  0.0129 -0.3141
10661TIP3    H253399   4.829   6.216   1.403  0.3979  0.4326  0.4470
10662TIP3   OH253400   6.541   5.181  11.635  0.2341  0.6653 -0.1573
10662TIP3    H153401   6.466   5.225  11.675 -0.0279  1.1273 -1.1467
10662TIP3    H253402   6.608   5.183  11.703 -0.3188  1.1175  0.3905
10663TIP3   OH253403   1.686   5.338   2.120 -0.1404  0.3915 -0.3432
10663TIP3    H153404   1.695   5.416   2.066 -2.6860  1.1867  0.2782
10663TIP3    H253405   1.716   5.366   2.207 -3.1801  1.4515  0.4468
10664TIP3   OH253406   3.752   2.277   3.274  0.0672 -0.7085  0.2584
10664TIP3    H153407   3.790   2.330   3.344 -3.0466  1.0079  0.7302
10664TIP3    H253408   3.817   2.278   3.204  1.0883  1.7096  1.2104
10665TIP3   OH253409   1.087   5.942  16.568 -0.4027  0.0092  0.4596
10665TIP3    H153410   1.120   6.024  16.533 -0.5184 -1.0321 -2.2011
10665TIP3    H253411   0.995   5.939  16.542 -0.7065 -0.4605  1.5291
10666TIP3   OH253412   4.781   5.752   1.054 -0.2997 -0.0912 -0.2978
10666TIP3    H153413   4.777   5.657   1.065 -0.3536 -0.1105 -0.4844
10666TIP3    H253414   4.717   5.771   0.985 -1.4552  0.2553  0.8522
10667TIP3   OH253415   0.582   1.535  14.216  0.5247  0.4830  0.2179
10667TIP3    H153416   0.493   1.544  14.250  0.5423  1.0209  0.1274
10667TIP3    H253417   0.638   1.569  14.286  0.6254  0.5876  0.0897
10668TIP3   OH253418   3.288   1.935  12.299 -0.5801 -0.2394  0.0381
10668TIP3    H153419   3.270   1.973  12.385  1.0434  0.1208  0.2377
10668TIP3    H253420   3.207   1.946  12.250 -0.2479  3.2611  0.1633
10669TIP3   OH253421   4.939   5.493  12.394  0.1785 -0.4103 -0.3869
10669TIP3    H153422   5.011   5.441  12.358  0.6019  1.1945 -1.9615
10669TIP3    H253423   4.910   5.547  12.320 -0.9207  0.8238  0.9219
10670TIP3   OH253424   3.498   2.502   4.916  0.3114 -0.1589  0.7296
10670TIP3    H153425   3.429   2.451   4.958  0.1352 -1.0561 -0.6250
10670TIP3    H253426   3.513   2.459   4.832  0.7828  1.4993 -0.0643
10671TIP3   OH253427   5.997   5.120  14.446  0.5994 -0.2087  0.1956
10671TIP3    H153428   5.956   5.179  14.381  0.6313  0.2520  0.5893
10671TIP3    H253429   6.091   5.134  14.434  0.6046 -0.1130  0.3507
10672TIP3   OH253430   3.564   1.259  16.344 -0.4562 -0.0525 -0.5168
10672TIP3    H153431   3.484   1.255  16.396 -0.4716 -1.2958 -0.6214
10672TIP3    H253432   3.584   1.168  16.324  0.4897  0.3095 -1.2542
10673TIP3   OH253433   5.248   1.929  15.558 -0.1256 -0.1625 -0.9184
10673TIP3    H153434   5.276   1.964  15.642  0.3079  1.0078 -1.5561
10673TIP3    H253435   5.164   1.886  15.578 -0.3061  0.5966 -0.0073
10674TIP3   OH253436   0.572   4.624  12.141 -0.1014 -0.1106 -0.3434
10674TIP3    H153437   0.492   4.577  12.118  0.8016 -1.2570 -1.1614
10674TIP3    H253438   0.634   4.556  12.164  0.8453  0.7457 -0.3211
10675TIP3   OH253439   0.051   4.486   2.140 -0.4908 -0.2100 -0.0624
10675TIP3    H153440  -0.022   4.488   2.078 -0.2237  1.2264 -0.3499
10675TIP3    H253441   0.090   4.573   2.134  1.6953 -1.1768 -0.4069
10676TIP3   OH253442   3.855   3.432  15.752  0.2604  0.4328 -0.3853
10676TIP3    H153443   3.800   3.397  15.683 -0.6793 -0.7212  0.9217
10676TIP3    H253444   3.945   3.419  15.720 -0.1835  0.8106 -1.7927
10677TIP3   OH253445   4.785   3.093   0.329 -0.3590  0.2541  0.2283
10677TIP3    H153446   4.819   3.142   0.254  0.8815 -0.6938  0.1579
10677TIP3    H253447   4.811   3.145   0.405 -1.7325  1.2841  0.0007
10678TIP3   OH253448   6.179   4.673  17.154  0.2939  0.3089  0.7857
10678TIP3    H153449   6.131   4.755  17.168 -0.3252  0.0184  0.3881
10678TIP3    H253450   6.139   4.612  17.215  0.1828  0.0709  0.4711
10679TIP3   OH253451   6.556   6.299  16.923  0.1889 -0.4342 -0.1831
10679TIP3    H153452   6.478   6.275  16.974  0.7460 -0.1589  0.8039
10679TIP3    H253453   6.612   6.222  16.927  0.3613 -0.3056 -0.1416
10680TIP3   OH253454   3.953   5.588   3.876  0.7257  0.1959  0.1572
10680TIP3    H153455   4.042   5.596   3.912  0.4923  2.3699  0.2970
10680TIP3    H253456   3.896   5.619   3.947 -0.0458  0.1871 -0.4578
10681TIP3   OH253457   4.574   0.560  13.486  0.3338 -0.5001 -0.1763
10681TIP3    H153458   4.515   0.486  13.471 -0.2173 -0.3796  1.3194
10681TIP3    H253459   4.661   0.524  13.475  0.0131 -0.7023 -2.3243
10682TIP3   OH253460   6.470   5.776   2.030 -0.7157  0.9423  0.9965
10682TIP3    H153461   6.545   5.834   2.042  1.5659 -1.5425 -0.6976
10682TIP3    H253462   6.505   5.688   2.046 -3.8114 -0.1106  2.3637
10683TIP3   OH253463   3.818   5.049  13.091  0.4314  0.7514  0.0092
10683TIP3    H153464   3.910   5.024  13.099  0.1669 -0.2217  0.1783
10683TIP3    H253465   3.806   5.066  12.998  0.6354  0.2513 -0.1118
10684TIP3   OH253466   2.946   2.793  17.011  0.6336  0.4321  0.6273
10684TIP3    H153467   2.958   2.886  17.033  1.1995  0.7961 -1.1321
10684TIP3    H253468   2.884   2.794  16.938  1.3153 -0.5064  0.0273
10685TIP3   OH253469   4.439   2.170  11.338 -0.5566  0.5606  0.0897
10685TIP3    H153470   4.432   2.075  11.330  0.4992  0.2884  1.9884
10685TIP3    H253471   4.378   2.205  11.273 -0.3926 -1.4026 -1.1601
10686TIP3   OH253472   4.439   6.729  15.250  0.0163  0.4344  0.1595
10686TIP3    H153473   4.452   6.814  15.292  1.3359  0.6003 -0.5840
10686TIP3    H253474   4.440   6.666  15.323  0.4262  0.9038  0.5634
10687TIP3   OH253475   2.764   6.538   0.257 -0.3620  0.4910  0.3166
10687TIP3    H153476   2.718   6.485   0.323  0.0797  0.4574  0.5987
10687TIP3    H253477   2.781   6.478   0.185 -0.2482  0.3626  0.4526
10688TIP3   OH253478   1.792   4.145  16.354 -0.5186 -0.0793  0.6835
10688TIP3    H153479   1.837   4.228  16.337  1.6686 -1.3115  0.2510
10688TIP3    H253480   1.731   4.165  16.425  0.1026  1.8608  0.7050
10689TIP3   OH253481   2.254   5.436  13.078 -0.4500 -0.2131 -0.2286
10689TIP3    H153482   2.235   5.364  13.019 -0.3638 -1.5917  1.3871
10689TIP3    H253483   2.291   5.395  13.156  1.7129  1.7510 -0.1428
10690TIP3   OH253484   3.501   3.110   4.222 -0.0504 -0.2525  0.0883
10690TIP3    H153485   3.419   3.064   4.207 -0.5107  0.4197  0.5599
10690TIP3    H253486   3.546   3.108   4.137 -1.2893  0.8621 -0.6045
10691TIP3   OH253487   1.347   5.935  15.690  0.2200  0.7060  0.1363
10691TIP3    H153488   1.400   5.983  15.627  1.5500  0.2349  0.8786
10691TIP3    H253489   1.388   5.849  15.697  0.1621  0.7808  1.7141
10692TIP3   OH253490   1.688   4.808   0.644  0.0785  0.3012  0.2401
10692TIP3    H153491   1.761   4.755   0.611 -0.5782  0.6228 -1.7410
10692TIP3    H253492   1.611   4.752   0.635 -0.2394  0.7040  0.4370
10693TIP3   OH253493   1.331   4.523  15.157  0.6710 -0.1978  0.0928
10693TIP3    H153494   1.418   4.536  15.195  0.6989  0.2371 -0.1198
10693TIP3    H253495   1.312   4.605  15.112 -0.9465  0.7081  2.3302
10694TIP3   OH253496   2.272   3.008  13.489 -0.3889 -0.0652  0.2073
10694TIP3    H153497   2.336   3.029  13.421  0.3995 -0.2755  0.8912
10694TIP3    H253498   2.188   3.011  13.443  0.0685  0.5749 -0.6076
10695TIP3   OH253499   4.895   2.510   1.677 -0.0519 -0.5311  0.3639
10695TIP3    H153500   4.835   2.583   1.660  0.6707  0.0370  0.2251
10695TIP3    H253501   4.856   2.464   1.752  0.4593  1.0750  1.6234
10696TIP3   OH253502   6.764   6.542  10.844 -0.5656 -0.0795  0.3834
10696TIP3    H153503   6.707   6.566  10.917 -0.1113 -0.2998  0.8119
10696TIP3    H253504   6.764   6.619  10.787  0.7087  0.8501  1.6329
10697TIP3   OH253505   3.957   2.970   2.235  0.3556  0.7571  0.3787
10697TIP3    H153506   3.984   3.041   2.176 -0.7751  1.4320  0.6608
10697TIP3    H253507   3.865   2.954   2.212  1.2104 -2.1995 -1.2775
10698TIP3   OH253508   2.634   2.423  12.315  0.0315  0.8463  0.1415
10698TIP3    H153509   2.600   2.482  12.382  1.5948 -1.8720  3.4585
10698TIP3    H253510   2.643   2.338  12.359  2.1559 -0.7721 -3.1883
10699TIP3   OH253511   5.638   5.819  12.915  0.1034 -0.1054  0.0342
10699TIP3    H153512   5.583   5.896  12.925  0.0769 -0.3414  1.7470
10699TIP3    H253513   5.580   5.745  12.930  0.4513 -0.4286 -0.1728
10700TIP3   OH253514   6.515   0.058  11.600 -0.0725  0.2363  0.3515
10700TIP3    H153515   6.428   0.019  11.611  0.2701 -0.5896  0.1570
10700TIP3    H253516   6.576  -0.012  11.621  0.5501  0.7611  0.3041
10701TIP3   OH253517   6.528   1.745   1.837  0.1662 -0.3632 -0.0310
10701TIP3    H153518   6.548   1.682   1.767  0.0467 -0.1279 -0.2808
10701TIP3    H253519   6.612   1.762   1.878  0.3372 -0.0565 -0.4997
10702TIP3   OH253520   4.758   1.826   1.668  0.3843  0.0532  0.0593
10702TIP3    H153521   4.711   1.797   1.746  0.8267 -2.7422 -0.6465
10702TIP3    H253522   4.821   1.889   1.700 -1.5808  1.3514  1.4881
10703TIP3   OH253523   3.203   2.357  13.049 -0.3226  0.4515  0.2434
10703TIP3    H153524   3.157   2.297  13.108  0.9926 -1.5583 -0.7246
10703TIP3    H253525   3.144   2.367  12.974 -2.0685  3.1321  1.8879
10704TIP3   OH253526   6.160   4.743  16.118 -0.3761 -0.0836  0.1927
10704TIP3    H153527   6.142   4.822  16.168 -0.8319  1.5476 -2.4751
10704TIP3    H253528   6.078   4.693  16.121 -0.6156  0.3252  0.4361
10705TIP3   OH253529   1.559   4.035   2.218  1.3849 -0.4525 -0.0362
10705TIP3    H153530   1.487   3.999   2.167  1.5444  0.6670 -1.0657
10705TIP3    H253531   1.521   4.055   2.303  0.5395 -0.1050 -0.4875
10706TIP3   OH253532   3.867   2.019   0.253 -0.2737  0.0120 -0.2305
10706TIP3    H153533   3.814   2.040   0.330  1.3820  1.1674  0.6263
10706TIP3    H253534   3.858   1.924   0.243 -2.8270  0.2395 -0.3875
10707TIP3   OH253535   3.086   6.239  16.840  0.0900 -0.1005  0.6936
10707TIP3    H153536   3.045   6.325  16.831 -2.9188 -1.6103 -0.8441
10707TIP3    H253537   3.089   6.224  16.935 -0.4976  1.1785  0.9287
10708TIP3   OH253538   0.201   2.715  16.338  0.4662  0.2930 -0.4132
10708TIP3    H153539   0.218   2.804  16.309  1.9761 -0.2344 -1.1606
10708TIP3    H253540   0.286   2.681  16.366  0.4775 -1.8292 -2.7378
10709TIP3   OH253541   5.296   1.350   2.145  0.6047  0.5988 -0.6142
10709TIP3    H153542   5.337   1.406   2.079 -0.9180  1.1391 -1.1223
10709TIP3    H253543   5.317   1.392   2.228 -0.9315  2.2076 -1.0182
10710TIP3   OH253544   6.021   1.796   2.012  0.1424  0.5309  0.4890
10710TIP3    H153545   5.976   1.747   1.943 -0.5900  1.2292  0.4702
10710TIP3    H253546   5.984   1.762   2.093 -0.6562  1.3461  0.4618
10711TIP3   OH253547   3.231   6.674  11.426  0.7067  0.4798 -0.7636
10711TIP3    H153548   3.293   6.688  11.498 -1.2963 -2.0529  1.5662
10711TIP3    H253549   3.287   6.665  11.348  3.0722  1.0472  0.8069
10712TIP3   OH253550   4.362   2.214   2.722 -0.0663 -0.1402 -0.2448
10712TIP3    H153551   4.354   2.200   2.816 -0.2570  0.9114 -0.1032
10712TIP3    H253552   4.285   2.170   2.685  0.8864 -2.0019 -0.0657
10713TIP3   OH253553   1.490   2.525   4.955  0.1632 -0.0507 -0.5514
10713TIP3    H153554   1.585   2.535   4.957  0.0938  0.7010 -0.8211
10713TIP3    H253555   1.462   2.547   5.044  0.1431  0.7599 -0.7589
10714TIP3   OH253556   1.934   4.534  12.275  0.1817 -0.1853 -0.1706
10714TIP3    H153557   1.911   4.442  12.271  1.3120 -0.5483  1.2445
10714TIP3    H253558   1.877   4.570  12.343 -0.2737  0.1734 -0.7354
10715TIP3   OH253559   6.666   0.689  11.239  0.0451  0.3074  0.8616
10715TIP3    H153560   6.609   0.707  11.165  1.3721 -0.2887 -0.3296
10715TIP3    H253561   6.635   0.605  11.273  2.0242 -1.5002 -1.6195
10716TIP3   OH253562   4.031   6.263   2.755 -0.3752 -0.0565 -0.1324
10716TIP3    H153563   4.127   6.257   2.756 -0.3098  0.9112 -0.3299
10716TIP3    H253564   4.006   6.221   2.673 -0.0982 -0.0172 -0.2402
10717TIP3   OH253565   4.425   3.583  16.484  0.3771 -0.5462 -0.5106
10717TIP3    H153566   4.422   3.677  16.464  0.6933 -0.5917 -0.7773
10717TIP3    H253567   4.398   3.577  16.576  1.0590 -0.1216 -0.2807
10718TIP3   OH253568   3.810   1.015   2.479 -0.4099  0.3367 -0.2921
10718TIP3    H153569   3.873   0.949   2.451 -1.6606 -0.3968 -1.4224
10718TIP3    H253570   3.791   1.066   2.400  0.2564  1.8298  0.4844
10719TIP3   OH253571   3.446   3.665   2.332 -0.0172  0.1166 -0.3755
10719TIP3    H153572   3.510   3.731   2.306 -0.2677  0.2245 -0.7110
10719TIP3    H253573   3.366   3.714   2.351 -0.2723 -0.1084 -0.8491
10720TIP3   OH253574   5.572   1.538   6.738 -0.2719  0.5653  0.3876
10720TIP3    H153575   5.550   1.563   6.648 -0.7580  1.0023  0.6247
10720TIP3    H253576   5.646   1.477   6.729 -0.8754 -0.0647 -0.3548
10721TIP3   OH253577   2.359   5.030  12.040 -0.7677 -0.2872  0.0718
10721TIP3    H153578   2.396   5.068  11.961  0.7535  0.2293  1.0150
10721TIP3    H253579   2.404   4.947  12.051  0.2487  0.4202  1.3162
10722TIP3   OH253580   3.845   2.511  16.628 -0.0142  0.2551  0.1357
10722TIP3    H153581   3.908   2.563  16.579  0.3702 -0.7974 -0.5051
10722TIP3    H253582   3.894   2.480  16.704  0.4143 -0.9993 -0.6366
10723TIP3   OH253583   5.233   3.719  11.854  0.0678 -0.1802 -0.5057
10723TIP3    H153584   5.154   3.678  11.888  0.5231 -0.7091 -0.0611
10723TIP3    H253585   5.296   3.712  11.926 -0.2370  2.5216  0.0529
10724TIP3   OH253586   0.220   1.063   6.756 -0.4013  0.3694 -0.5174
10724TIP3    H153587   0.300   1.023   6.791 -1.6269 -1.6443  0.0897
10724TIP3    H253588   0.239   1.080   6.664  2.0071  3.3983  0.4503
10725TIP3   OH253589   3.165   1.540   3.472 -0.0262 -0.0373 -0.5946
10725TIP3    H153590   3.188   1.592   3.549  0.4934 -2.6817  1.1126
10725TIP3    H253591   3.201   1.453   3.490 -3.6510 -1.9315 -1.8127
10726TIP3   OH253592   4.083   1.420   3.076 -0.0040 -0.8230  0.0398
10726TIP3    H153593   4.172   1.456   3.082 -1.0494  2.2628 -1.5548
10726TIP3    H253594   4.027   1.497   3.074 -3.0055 -2.7775  3.9368
10727TIP3   OH253595   0.768   5.792   3.196  0.8019 -0.2314 -0.9209
10727TIP3    H153596   0.720   5.826   3.120  0.7452 -0.7181 -1.1079
10727TIP3    H253597   0.708   5.802   3.269  0.1853 -1.3792 -1.2599
10728TIP3   OH253598   5.686   1.115  16.751 -0.1210  0.6081 -0.6095
10728TIP3    H153599   5.634   1.098  16.673  0.0681 -0.8437 -0.4409
10728TIP3    H253600   5.659   1.202  16.780 -0.9075  0.7391 -1.7291
10729TIP3   OH253601   5.155   3.601  16.064 -0.0497  0.1116 -0.3801
10729TIP3    H153602   5.241   3.638  16.043  0.1679  0.2983  0.8307
10729TIP3    H253603   5.162   3.573  16.155 -1.2257 -0.0080 -0.3193
10730TIP3   OH253604   1.267   0.242   5.345  0.0415  0.5281 -0.7543
10730TIP3    H153605   1.318   0.259   5.266  0.9655 -0.8254 -0.4711
10730TIP3    H253606   1.300   0.158   5.377 -1.1258  0.5051  0.4325
10731TIP3   OH253607   5.472   3.554   3.198  0.6350  0.8002  0.2994
10731TIP3    H153608   5.441   3.643   3.186  1.9050  1.1982 -0.0979
10731TIP3    H253609   5.488   3.522   3.109 -0.8665 -0.2146  0.3743
10732TIP3   OH253610   6.222   0.096   2.754 -0.2398 -0.4047 -0.1536
10732TIP3    H153611   6.214   0.165   2.821 -0.1143 -1.0135  0.5025
10732TIP3    H253612   6.179   0.132   2.677 -3.0250 -0.8138  1.1229
10733TIP3   OH253613   4.713   2.304   0.578  0.0513 -0.0503  0.4793
10733TIP3    H153614   4.801   2.291   0.613 -0.0446  0.2181  0.8277
10733TIP3    H253615   4.655   2.279   0.650 -0.1443  1.2082  0.7653
10734TIP3   OH253616   4.308   0.117   2.574  0.6503  0.0331 -0.0683
10734TIP3    H153617   4.310   0.050   2.505  0.2658  0.3334 -0.3734
10734TIP3    H253618   4.353   0.192   2.535 -0.4831  0.5638 -0.3702
10735TIP3   OH253619   6.180   4.459  14.008 -0.0021  0.1483 -0.0292
10735TIP3    H153620   6.220   4.504  13.933  0.4884  0.2334  0.2854
10735TIP3    H253621   6.215   4.370  14.004 -1.0922 -0.2510 -0.7381
10736TIP3   OH253622   3.800   4.965   1.895 -0.0089  0.4255  0.2439
10736TIP3    H153623   3.866   4.966   1.826 -0.7217  0.9367 -0.4253
10736TIP3    H253624   3.819   4.885   1.944  2.0919  1.3432  1.0063
10737TIP3   OH253625   0.846   1.558  12.613  0.6431 -0.0229  0.0830
10737TIP3    H153626   0.793   1.486  12.579  2.0401 -0.6692 -0.7951
10737TIP3    H253627   0.931   1.518  12.632  1.1382  1.1978  0.5028
10738TIP3   OH253628   3.639   2.128  15.516 -0.0782 -0.5091 -0.0905
10738TIP3    H153629   3.560   2.076  15.530  0.4113 -0.9373  1.1919
10738TIP3    H253630   3.710   2.064  15.517  0.5310  0.1597  1.4875
10739TIP3   OH253631   4.530   4.987  12.980  0.0134  0.0542 -0.0432
10739TIP3    H153632   4.447   5.029  12.954  0.7942  0.4793 -1.9734
10739TIP3    H253633   4.591   5.060  12.992  0.1886 -0.2757  1.0829
10740TIP3   OH253634   4.341   1.025   4.000  0.0082  0.3104 -0.4787
10740TIP3    H153635   4.393   1.060   4.072  1.4977 -0.1350 -1.3136
10740TIP3    H253636   4.405   1.003   3.933 -1.2764 -0.1772 -1.5685
10741TIP3   OH253637   1.933   6.590  12.108  0.1398  0.5789  0.8089
10741TIP3    H153638   2.025   6.610  12.125  0.5101 -0.5727  0.2484
10741TIP3    H253639   1.890   6.600  12.193  0.4927  2.6106  0.7719
10742TIP3   OH253640   4.129   6.519   1.263 -0.2521  0.0711  0.9286
10742TIP3    H153641   4.071   6.453   1.224  0.2722 -0.9980  1.9035
10742TIP3    H253642   4.117   6.509   1.357 -0.3647  1.5772  1.0789
10743TIP3   OH253643   1.687   4.921  17.064 -0.0480  0.4147 -0.0479
10743TIP3    H153644   1.750   4.991  17.079 -0.9047  1.1639  0.0323
10743TIP3    H253645   1.683   4.873  17.147 -1.8753  2.2186  0.9487
10744TIP3   OH253646   5.520   1.255  12.060  0.1699  0.7439  0.2957
10744TIP3    H153647   5.499   1.221  12.147 -0.6034  0.1370 -0.1290
10744TIP3    H253648   5.595   1.313  12.075 -1.1844  2.2176  1.6929
10745TIP3   OH253649   4.619   6.169  12.868  0.2172  0.8514 -0.0149
10745TIP3    H153650   4.612   6.245  12.926  0.1143 -0.4498  1.7248
10745TIP3    H253651   4.711   6.142  12.875  0.1686  0.6057 -0.3305
10746TIP3   OH253652   6.066   5.737   4.139  0.0566  0.7654  0.5113
10746TIP3    H153653   6.139   5.705   4.192  0.6086  0.7420 -0.2488
10746TIP3    H253654   6.024   5.804   4.193 -1.4555 -1.5750  2.3694
10747TIP3   OH253655   5.995   1.072  14.166 -0.8947 -0.3483 -0.3832
10747TIP3    H153656   5.919   1.121  14.136 -0.2484  1.3484  0.7074
10747TIP3    H253657   5.979   1.055  14.258  0.8231  1.5908  0.3213
10748TIP3   OH253658   6.278   2.897  16.649  0.2467 -0.0314 -0.6918
10748TIP3    H153659   6.304   2.829  16.587 -0.6634 -1.8908  0.9240
10748TIP3    H253660   6.358   2.948  16.663  1.0328 -0.9719 -1.6566
10749TIP3   OH253661   1.584   4.088   6.008 -0.1834 -0.0373 -0.2096
10749TIP3    H153662   1.545   4.017   5.956 -2.1315  0.2080  0.8791
10749TIP3    H253663   1.618   4.149   5.943  0.7909 -1.5485 -1.1709
10750TIP3   OH253664   6.367   3.673   3.928  0.0174 -0.0891  0.0974
10750TIP3    H153665   6.319   3.695   3.848  0.0110 -1.3941 -0.2743
10750TIP3    H253666   6.445   3.728   3.925  0.9767 -1.4868 -1.8012
10751TIP3   OH253667   4.225   2.634   2.790  0.6203 -0.0333  0.0542
10751TIP3    H153668   4.198   2.565   2.730  0.6419 -0.2697  0.3174
10751TIP3    H253669   4.148   2.691   2.797 -1.0183 -2.4545  3.3485
10752TIP3   OH253670   6.506   0.956  13.596 -0.2872 -0.0479 -0.3460
10752TIP3    H153671   6.571   0.951  13.667  1.1384 -0.3267 -1.6507
10752TIP3    H253672   6.422   0.961  13.642  0.5397 -1.2326  1.3586
10753TIP3   OH253673   1.258   2.713   4.013 -0.1376 -0.2876 -0.1559
10753TIP3    H153674   1.325   2.781   4.008 -0.1579 -0.2880 -0.4766
10753TIP3    H253675   1.185   2.749   3.961  1.0454 -1.9198 -3.0581
10754TIP3   OH253676   0.450   2.231   1.692  0.0431  0.1894 -0.5697
10754TIP3    H153677   0.537   2.224   1.652  0.5089  0.9817  0.2885
10754TIP3    H253678   0.451   2.316   1.736 -0.5217 -0.5914  0.9724
10755TIP3   OH253679   4.977   3.973  16.784 -0.0429 -0.0024 -0.1303
10755TIP3    H153680   5.009   4.062  16.797  0.1533 -0.1655  0.4980
10755TIP3    H253681   5.002   3.926  16.863  0.0671 -0.6803 -0.5617
10756TIP3   OH253682   0.992   3.223  15.580 -0.0955 -1.0275 -0.8844
10756TIP3    H153683   1.048   3.193  15.507  1.6990  2.3257 -0.9838
10756TIP3    H253684   1.053   3.261  15.643 -2.0477  0.2733  0.2742
10757TIP3   OH253685   1.210   5.730   5.636 -0.6399  0.6067 -0.6608
10757TIP3    H153686   1.273   5.778   5.582 -0.4848  1.0160 -0.1156
10757TIP3    H253687   1.205   5.780   5.717 -0.9657  0.0567 -0.3402
10758TIP3   OH253688   6.032   6.469   0.323 -0.1725  0.7871 -0.3962
10758TIP3    H153689   6.028   6.521   0.404  2.7510  1.7830 -0.8422
10758TIP3    H253690   5.978   6.392   0.342  1.7906  0.1611  3.1711
10759TIP3   OH253691   4.139   3.875   5.442  0.0177 -0.3745 -0.1482
10759TIP3    H153692   4.158   3.968   5.456  0.5767 -0.5661  0.4167
10759TIP3    H253693   4.051   3.863   5.477 -0.4646  0.1540 -1.1574
10760TIP3   OH253694   0.405   0.943   3.796  0.0644  0.3979 -0.1763
10760TIP3    H153695   0.364   0.890   3.864 -0.8448  1.6311  0.2603
10760TIP3    H253696   0.336   0.958   3.731  0.5091  0.4467 -0.6438
10761TIP3   OH253697   0.840   5.481   4.712  0.6249 -0.1076 -0.3780
10761TIP3    H153698   0.765   5.457   4.658  1.0665 -0.7448 -0.7261
10761TIP3    H253699   0.841   5.415   4.782 -0.7397  1.4918  1.2133
10762TIP3   OH253700   2.094   2.223  10.748  0.3044  0.0543  0.0690
10762TIP3    H153701   2.038   2.167  10.802 -0.5207 -0.6430 -1.4958
10762TIP3    H253702   2.170   2.169  10.728 -0.5187 -0.5725 -1.4896
10763TIP3   OH253703   2.277   0.446   2.707 -0.0610 -0.1041 -0.3148
10763TIP3    H153704   2.313   0.508   2.771 -1.6623 -0.0613  0.5530
10763TIP3    H253705   2.182   0.456   2.714 -0.3189 -2.0824 -0.7303
10764TIP3   OH253706   2.642   6.366   2.941  0.4282  0.0530  0.0301
10764TIP3    H153707   2.567   6.306   2.946 -0.3158  0.9699  0.0855
10764TIP3    H253708   2.681   6.364   3.028  0.6034 -0.6062 -0.0649
10765TIP3   OH253709   1.230   0.303   2.408  0.1658  0.3102 -0.2319
10765TIP3    H153710   1.189   0.320   2.324 -0.5584  1.4811  0.3451
10765TIP3    H253711   1.248   0.390   2.444  0.3252 -0.1778  0.8861
10766TIP3   OH253712   5.845   0.226   6.352  0.2361 -0.4244 -0.0746
10766TIP3    H153713   5.900   0.302   6.371 -1.0255  0.9489 -1.7061
10766TIP3    H253714   5.897   0.173   6.291 -0.2362  0.9172 -1.6895
10767TIP3   OH253715   4.964   3.790   3.343 -0.3322 -0.3332 -0.3235
10767TIP3    H153716   5.013   3.871   3.327 -1.9808  0.9445  0.9152
10767TIP3    H253717   5.029   3.721   3.333  1.0503  1.1080 -1.7218
10768TIP3   OH253718   6.622   1.277   3.028  0.2564  0.1065  0.3833
10768TIP3    H153719   6.642   1.246   3.116  0.4151  0.7979  0.5948
10768TIP3    H253720   6.528   1.265   3.019  0.4143 -1.0236  0.2296
10769TIP3   OH253721   3.645   4.752   4.875  0.2337  0.0517  0.3270
10769TIP3    H153722   3.586   4.808   4.926 -1.4862 -1.2560 -0.2144
10769TIP3    H253723   3.703   4.814   4.830  1.1947  1.2623  3.1098
10770TIP3   OH253724   0.051   6.273   2.049  0.1695  0.3796  0.0504
10770TIP3    H153725  -0.012   6.345   2.052  0.8631  0.9857  0.1783
10770TIP3    H253726   0.019   6.210   2.115 -0.4825  0.5197 -0.1240
10771TIP3   OH253727   2.681   4.453   0.939 -0.0038 -0.3312  0.4009
10771TIP3    H153728   2.757   4.415   0.895  0.4888  0.0589  0.9063
10771TIP3    H253729   2.708   4.460   1.031 -0.4546  0.3301  0.4808
10772TIP3   OH253730   3.577   1.618   3.753 -0.5562  0.3515 -0.0719
10772TIP3    H153731   3.618   1.704   3.763 -1.7532  0.8595  0.5629
10772TIP3    H253732   3.642   1.566   3.705  0.8170  1.1484  0.8762
10773TIP3   OH253733   0.149   5.110   5.575 -0.1356 -0.6123 -0.0801
10773TIP3    H153734   0.065   5.082   5.538  0.5266 -0.9144 -1.3941
10773TIP3    H253735   0.128   5.141   5.663 -1.7759  0.2706 -0.7687
10774TIP3   OH253736   3.833   1.397   3.478  0.3717 -0.2335 -0.1505
10774TIP3    H153737   3.831   1.469   3.415 -0.1780 -0.7250 -0.7045
10774TIP3    H253738   3.886   1.330   3.436 -0.0463 -0.5882 -0.1128
10775TIP3   OH253739   5.203   6.293   1.411  0.0373  0.0060 -0.1071
10775TIP3    H153740   5.192   6.204   1.377 -0.7834  0.0493  0.0300
10775TIP3    H253741   5.163   6.349   1.345  0.8202  0.2991 -0.3326
10776TIP3   OH253742   0.460   5.296  11.195 -0.7678 -0.6516  0.4299
10776TIP3    H153743   0.539   5.241  11.198 -1.7136 -2.1748 -1.2848
10776TIP3    H253744   0.468   5.345  11.113  1.4012  3.9622  3.2220
10777TIP3   OH253745   3.884   5.681  14.460 -0.3171 -0.7545 -0.3420
10777TIP3    H153746   3.824   5.610  14.436 -1.0578 -0.5734  0.9609
10777TIP3    H253747   3.920   5.710  14.376 -1.1204 -1.6878 -1.0298
10778TIP3   OH253748   0.258   5.391  11.361 -0.0551  0.3129  0.2304
10778TIP3    H153749   0.340   5.387  11.313 -0.2890  0.8112 -0.2094
10778TIP3    H253750   0.236   5.299  11.379 -0.0375  0.1236 -0.7268
10779TIP3   OH253751   3.687   5.402  11.423  0.1460  0.4076 -0.3890
10779TIP3    H153752   3.709   5.450  11.503  1.3306 -0.7266 -0.0166
10779TIP3    H253753   3.740   5.444  11.355  1.8135 -0.8630  0.0898
10780TIP3   OH253754   0.143   1.715  16.045 -0.2466 -0.2070 -0.3967
10780TIP3    H153755   0.166   1.624  16.060  0.1424  0.1701  1.3209
10780TIP3    H253756   0.223   1.764  16.066 -0.9025  0.6481  0.1142
10781TIP3   OH253757   3.951   3.384  14.521  0.4455 -0.0224  0.3270
10781TIP3    H153758   3.871   3.337  14.546 -1.0988  1.5101 -1.5972
10781TIP3    H253759   3.940   3.471  14.558  1.8174 -0.1912  1.1282
10782TIP3   OH253760   0.611   2.682   3.226  0.6170 -0.1631  0.1255
10782TIP3    H153761   0.616   2.675   3.322  1.6988  0.6796  0.1449
10782TIP3    H253762   0.609   2.776   3.210 -2.3093 -0.3007 -0.5718
10783TIP3   OH253763   1.478   4.431   2.520  0.4488  0.1947 -0.5724
10783TIP3    H153764   1.438   4.516   2.541 -0.2628 -0.2782  0.0261
10783TIP3    H253765   1.418   4.367   2.558  2.5337 -0.4823  1.6986
10784TIP3   OH253766   4.525   2.966  14.162 -0.4760 -0.0333  0.3894
10784TIP3    H153767   4.586   2.965  14.088  0.1600 -1.2521  0.9201
10784TIP3    H253768   4.470   2.888  14.150 -0.0092 -0.5435  1.4916
10785TIP3   OH253769   1.124   3.900  15.795 -0.1251 -0.0539 -0.2115
10785TIP3    H153770   1.185   3.829  15.777 -0.2027 -0.4221  0.9738
10785TIP3    H253771   1.173   3.962  15.848 -0.4561  0.1596 -0.1526
10786TIP3   OH253772   1.957   6.343  14.275  0.0639 -1.0754  0.1364
10786TIP3    H153773   1.930   6.251  14.279 -1.8205 -0.6212 -1.5073
10786TIP3    H253774   2.043   6.341  14.232  0.9427 -2.2120  1.8825
10787TIP3   OH253775   3.437   4.926  10.497 -0.0190  0.3966 -0.1636
10787TIP3    H153776   3.368   4.935  10.563  1.4379 -1.0982  1.6231
10787TIP3    H253777   3.492   5.003  10.510 -0.4006  0.7283 -0.4750
10788TIP3   OH253778   5.372   5.963   1.865  0.5180 -0.8162 -0.2455
10788TIP3    H153779   5.281   5.963   1.833  0.4931  1.5505 -0.2546
10788TIP3    H253780   5.425   5.975   1.786  0.7784 -1.1163 -0.1144
10789TIP3   OH253781   5.360   2.918   6.107 -0.3889 -0.3086 -0.4415
10789TIP3    H153782   5.354   2.828   6.139  1.0098  0.0914  1.0471
10789TIP3    H253783   5.364   2.910   6.012  1.5361 -1.9579 -0.2489
10790TIP3   OH253784   2.960   4.824  13.929 -0.4297 -0.1883 -0.2025
10790TIP3    H153785   2.919   4.911  13.922  3.6059  1.6224 -3.2587
10790TIP3    H253786   2.910   4.770  13.867 -1.0562  0.7809 -0.5736
10791TIP3   OH253787   0.930   3.204   1.639 -0.0255 -0.0292  0.1497
10791TIP3    H153788   0.964   3.293   1.630  0.1254 -0.1509 -0.5372
10791TIP3    H253789   0.841   3.208   1.603  0.0980 -0.2242 -0.1839
10792TIP3   OH253790   5.082   2.453   5.562 -0.4474 -0.9294  0.2637
10792TIP3    H153791   5.051   2.409   5.483 -2.5185  0.5702  0.2013
10792TIP3    H253792   5.056   2.395   5.634 -1.7675 -0.5881  0.0749
10793TIP3   OH253793   0.176   1.495   3.349  0.2737  0.6126 -0.0981
10793TIP3    H153794   0.206   1.584   3.368  1.0962  0.5325 -1.0086
10793TIP3    H253795   0.190   1.484   3.255  2.3553 -1.3054  0.4029
10794TIP3   OH253796   6.156   6.390  12.015 -0.2221 -0.1634  0.1713
10794TIP3    H153797   6.157   6.336  11.937 -0.2629  0.8843 -0.5676
10794TIP3    H253798   6.075   6.366  12.060  0.3053 -1.5002  0.4287
10795TIP3   OH253799   4.104   5.425  11.709  0.4565  0.3417 -0.0315
10795TIP3    H153800   4.184   5.430  11.656  0.6981  0.5906  0.3516
10795TIP3    H253801   4.065   5.341  11.686  0.6782  0.3484 -0.4373
10796TIP3   OH253802   1.492   1.390  16.649  0.0024 -0.5182  0.8030
10796TIP3    H153803   1.564   1.419  16.705 -1.0450 -0.3999  2.1138
10796TIP3    H253804   1.414   1.405  16.702 -0.8230 -2.6355  0.2067
10797TIP3   OH253805   0.130   6.123  14.960  0.0924 -0.0939 -0.4955
10797TIP3    H153806   0.058   6.181  14.934  0.6267  0.9311  0.2723
10797TIP3    H253807   0.095   6.035  14.949 -1.2804  0.3942 -0.1088
10798TIP3   OH253808   1.507   1.128  11.375 -0.1005 -0.0175 -0.1598
10798TIP3    H153809   1.453   1.176  11.312  0.9193 -0.8618 -1.7112
10798TIP3    H253810   1.527   1.192  11.443 -2.4446  0.5146  0.0774
10799TIP3   OH253811   1.772   5.983  15.504 -0.2867  0.2601  0.3518
10799TIP3    H153812   1.793   5.890  15.494  0.6387  0.5410 -0.4006
10799TIP3    H253813   1.843   6.018  15.558 -1.2025  0.3207  1.5334
10800TIP3   OH253814   4.383   3.661   7.036 -0.4053  0.1672 -0.4301
10800TIP3    H153815   4.401   3.658   6.942 -0.5213 -2.4491 -0.4058
10800TIP3    H253816   4.422   3.581   7.070 -0.7065  0.9115  1.6986
10801TIP3   OH253817   6.773   5.228  15.102  0.5970  0.2276 -0.5790
10801TIP3    H153818   6.753   5.312  15.142 -0.0340 -1.0261  1.8638
10801TIP3    H253819   6.864   5.211  15.125  0.8234  0.3809 -1.3451
10802TIP3   OH253820   0.900   3.129   3.497  0.0343 -0.1449  0.2296
10802TIP3    H153821   0.880   3.060   3.560  0.6523 -0.0885  0.4851
10802TIP3    H253822   0.839   3.200   3.518 -0.6998 -0.6685 -0.1273
10803TIP3   OH253823   0.877   1.563   2.508 -0.1173  0.3895 -0.0951
10803TIP3    H153824   0.826   1.497   2.554 -1.0597  0.6421 -0.7681
10803TIP3    H253825   0.905   1.521   2.427  0.1237  0.4905 -0.0655
10804TIP3   OH253826   4.335   3.320  12.178 -0.1277 -0.4391  0.8074
10804TIP3    H153827   4.354   3.392  12.238  0.0341  0.2782 -0.0739
10804TIP3    H253828   4.372   3.242  12.220  0.9007  0.2191  1.1510
10805TIP3   OH253829   0.513   1.172   3.451  0.1666  0.4553  0.1707
10805TIP3    H153830   0.421   1.163   3.476 -0.0614 -0.5112 -0.9673
10805TIP3    H253831   0.527   1.267   3.447 -1.3621  0.6386 -1.6164
10806TIP3   OH253832   4.752   4.550   4.787 -0.3230 -0.2443  0.0654
10806TIP3    H153833   4.733   4.608   4.713 -0.5360 -0.9819 -0.4661
10806TIP3    H253834   4.668   4.543   4.834  0.4596  2.3800  1.9398
10807TIP3   OH253835   5.709   5.057  14.992 -0.6559  0.0384  0.5946
10807TIP3    H153836   5.631   5.006  14.972  0.8513 -1.8707 -0.6984
10807TIP3    H253837   5.770   4.993  15.030  0.6466  1.2733  0.6291
10808TIP3   OH253838   4.892   0.617  12.230 -0.3118  0.1763 -0.7151
10808TIP3    H153839   4.828   0.642  12.297 -1.0513  0.4450 -1.5101
10808TIP3    H253840   4.972   0.662  12.256 -0.5280  0.1046  0.1063
10809TIP3   OH253841   0.306   6.377   1.987 -0.1478 -0.0844  0.1124
10809TIP3    H153842   0.375   6.334   2.037 -0.3052 -1.2512 -0.6602
10809TIP3    H253843   0.226   6.330   2.012 -0.5831  0.8715  0.5460
10810TIP3   OH253844   3.041   5.295  12.153  0.0211  0.1551  1.0871
10810TIP3    H153845   3.061   5.363  12.218  0.9054  0.7673  0.1725
10810TIP3    H253846   3.066   5.213  12.196  0.0186  0.5016  1.7577
10811TIP3   OH253847   6.048   6.749  11.327  0.2096  0.3229 -0.6137
10811TIP3    H153848   5.990   6.780  11.258  0.4039  1.9812 -0.0613
10811TIP3    H253849   6.030   6.807  11.402  0.3987 -1.0771  0.5517
10812TIP3   OH253850   0.095   6.074   1.855 -0.2974 -0.0579  0.1769
10812TIP3    H153851   0.026   6.062   1.791  0.1338  1.2733 -0.5512
10812TIP3    H253852   0.067   6.150   1.906 -0.9742 -1.5024  2.0318
10813TIP3   OH253853   2.415   4.873  15.555  0.0896  0.8383  0.2614
10813TIP3    H153854   2.436   4.872  15.649 -0.3892 -1.2290  0.3788
10813TIP3    H253855   2.473   4.807  15.517  0.3658  1.7504 -0.9457
10814TIP3   OH253856   0.917   1.673   1.539  0.6684 -0.3602  0.0400
10814TIP3    H153857   0.992   1.641   1.488  0.8135  1.2486 -0.7644
10814TIP3    H253858   0.950   1.678   1.629  2.1096  2.0349 -0.5707
10815TIP3   OH253859   5.625   2.304  14.259 -0.9909 -0.1671 -0.0920
10815TIP3    H153860   5.536   2.339  14.259 -1.4789 -1.3721 -0.6660
10815TIP3    H253861   5.660   2.329  14.173  0.2099  2.6525  1.1360
10816TIP3   OH253862   2.730   3.694   5.121 -0.4604  0.0352  0.2733
10816TIP3    H153863   2.688   3.780   5.129 -0.7637  0.1309 -1.9024
10816TIP3    H253864   2.704   3.647   5.200  0.2666  2.1648  1.8299
10817TIP3   OH253865   5.964   0.981  13.626 -0.2694  0.0743 -0.4533
10817TIP3    H153866   6.006   1.064  13.649 -1.2530 -0.2453  2.6322
10817TIP3    H253867   5.984   0.922  13.699 -0.8360 -1.9727 -1.9022
10818TIP3   OH253868   0.808   4.089  11.984  0.2805  0.5536  0.2763
10818TIP3    H153869   0.846   4.002  11.996  0.0482  0.4723  0.4221
10818TIP3    H253870   0.718   4.081  12.014 -0.9479 -0.1815 -3.3354
10819TIP3   OH253871   6.490   2.949   2.430 -0.9524 -0.2946  0.0869
10819TIP3    H153872   6.484   2.888   2.504 -0.5770 -0.8210 -0.3169
10819TIP3    H253873   6.452   2.901   2.356  0.7109 -0.6172 -0.5872
10820TIP3   OH253874   3.459   0.296   0.921 -0.3123 -0.5311 -0.1423
10820TIP3    H153875   3.383   0.263   0.969  1.0825 -3.5729  0.0982
10820TIP3    H253876   3.465   0.240   0.844  1.1865  0.2196 -0.5830
10821TIP3   OH253877   6.177   2.708  13.619  0.2589 -0.0637  0.1114
10821TIP3    H153878   6.249   2.648  13.638  0.7871 -0.0530 -1.7045
10821TIP3    H253879   6.118   2.657  13.564  0.0289  0.6407 -0.3035
10822TIP3   OH253880   4.755   1.019  16.907 -0.5670  0.0189  0.0843
10822TIP3    H153881   4.740   1.089  16.970  0.3402 -0.2968  0.6638
10822TIP3    H253882   4.690   1.033  16.839 -1.3273  0.5684  0.9233
10823TIP3   OH253883   6.150   3.387   2.150 -0.1098  0.1433  0.0057
10823TIP3    H153884   6.159   3.292   2.145  1.4711  0.2287  1.1193
10823TIP3    H253885   6.196   3.420   2.072  2.5504  0.1609  1.5308
10824TIP3   OH253886   2.717   0.002  13.273  0.1577 -0.7470  0.3001
10824TIP3    H153887   2.778  -0.031  13.207  0.9177  0.4745  0.3668
10824TIP3    H253888   2.633   0.010  13.228  0.6938  0.1622 -0.5479
10825TIP3   OH253889   1.952   0.101  16.037 -0.2212 -0.0163 -0.2558
10825TIP3    H153890   1.937   0.193  16.014  0.5974 -0.3344 -2.1255
10825TIP3    H253891   1.876   0.077  16.091 -0.1154  1.9293  0.7941
10826TIP3   OH253892   6.157   0.988  16.037 -0.3251  0.0767 -0.1049
10826TIP3    H153893   6.221   1.030  16.094 -0.7991 -0.2296  0.6671
10826TIP3    H253894   6.190   0.899  16.026 -1.6086 -0.6857  1.8999
10827TIP3   OH253895   3.156   0.788  11.124 -0.5212 -0.9082  0.1995
10827TIP3    H153896   3.110   0.859  11.170  0.8541  1.1412 -1.4921
10827TIP3    H253897   3.092   0.754  11.062 -1.0401 -0.8138  0.6790
10828TIP3   OH253898   2.762   4.934  15.727 -0.1384 -0.0699 -0.1952
10828TIP3    H153899   2.763   4.839  15.719  0.1255 -0.0703 -0.1617
10828TIP3    H253900   2.829   4.953  15.794 -1.9393 -0.0358  1.6556
10829TIP3   OH253901   6.104   3.446   0.723 -0.4385 -0.7403  0.4903
10829TIP3    H153902   6.094   3.485   0.636  0.2907  1.8009  1.4999
10829TIP3    H253903   6.104   3.352   0.707 -0.5732 -0.3272 -2.2270
10830TIP3   OH253904   4.333   6.609  13.595 -0.0497  0.7415 -0.4523
10830TIP3    H153905   4.276   6.623  13.519  0.5128 -2.5367 -1.5542
10830TIP3    H253906   4.282   6.554  13.654  0.4585  1.1973  0.4305
10831TIP3   OH253907   4.622   1.521   5.003 -0.2097 -0.0032  0.2200
10831TIP3    H153908   4.679   1.454   5.042 -0.0102  0.5670  0.9254
10831TIP3    H253909   4.553   1.471   4.958 -0.5672 -0.6802  1.4925
10832TIP3   OH253910   5.038   6.122   2.338  0.3664  0.0270  0.1102
10832TIP3    H153911   5.053   6.109   2.432  0.6583 -1.3352 -0.1201
10832TIP3    H253912   5.086   6.202   2.317  1.2202 -0.2727  0.8890
10833TIP3   OH253913   1.148   6.105   0.614  0.1261 -0.3479 -0.0673
10833TIP3    H153914   1.206   6.098   0.539  2.0294 -0.7590  1.4221
10833TIP3    H253915   1.159   6.194   0.645  0.1452 -0.4991  0.3624
10834TIP3   OH253916   1.267   5.845  14.102  0.2298 -0.0880 -0.7205
10834TIP3    H153917   1.361   5.830  14.094 -0.1358 -1.9522 -1.7723
10834TIP3    H253918   1.235   5.851  14.012 -0.5354  1.5070 -0.3728
10835TIP3   OH253919   6.471   3.550  11.740 -0.1751 -0.4245  0.4911
10835TIP3    H153920   6.459   3.580  11.650 -2.0821 -2.4358  0.0384
10835TIP3    H253921   6.472   3.630  11.792  0.2723  0.7229 -1.2472
10836TIP3   OH253922   2.521   6.018   0.287 -0.0073 -0.1281 -0.3055
10836TIP3    H153923   2.447   5.998   0.344  0.9511 -2.9338  0.0442
10836TIP3    H253924   2.598   5.995   0.339  0.9077 -2.0358 -2.4160
10837TIP3   OH253925   0.203   4.333   2.804 -0.4055  0.3606  0.0475
10837TIP3    H153926   0.282   4.280   2.790 -0.0147  0.7636  0.7052
10837TIP3    H253927   0.133   4.282   2.763 -0.1362 -0.9596  1.1791
10838TIP3   OH253928   1.970   1.126  13.289  0.5040 -0.0839  0.0675
10838TIP3    H153929   2.043   1.177  13.254  0.6351 -1.1991 -1.3432
10838TIP3    H253930   1.952   1.165  13.375 -0.2874  3.1662 -1.5001
10839TIP3   OH253931   3.800   3.378  13.399 -0.5929 -0.8950  0.4005
10839TIP3    H153932   3.853   3.329  13.462  1.5719 -1.7544 -1.9729
10839TIP3    H253933   3.807   3.328  13.318 -2.6942  0.5739 -0.7410
10840TIP3   OH253934   2.795   0.795  11.092 -0.0034 -0.5015 -0.2093
10840TIP3    H153935   2.821   0.736  11.021 -0.3180 -0.3851 -0.4259
10840TIP3    H253936   2.823   0.751  11.172 -0.6355 -1.1588 -0.3412
10841TIP3   OH253937   6.744   1.669   2.226  0.1209 -0.0389  0.2888
10841TIP3    H153938   6.753   1.680   2.132 -0.2047  2.6977  0.5459
10841TIP3    H253939   6.664   1.619   2.238  0.0294 -0.1653 -0.8697
10842TIP3   OH253940   1.749   4.993  14.441 -0.1831 -0.1077 -0.8314
10842TIP3    H153941   1.660   5.028  14.441 -0.4109 -0.6331  1.2143
10842TIP3    H253942   1.802   5.065  14.476 -0.6243 -1.6287  3.2134
10843TIP3   OH253943   1.877   4.553  11.308 -0.6089 -0.0567  0.0361
10843TIP3    H153944   1.921   4.468  11.304  0.0488  0.2899 -0.1111
10843TIP3    H253945   1.786   4.533  11.286 -0.5097 -0.7632  0.2607
10844TIP3   OH253946   5.217   5.524  17.166  0.4485  0.1641 -0.3961
10844TIP3    H153947   5.264   5.528  17.249  2.5230  0.7672 -1.5455
10844TIP3    H253948   5.144   5.585  17.176 -0.0060 -0.6588  1.3745
10845TIP3   OH253949   5.847   0.176  12.953 -0.2483 -0.5104  0.1077
10845TIP3    H153950   5.885   0.133  12.877  0.2679 -0.1639  0.1715
10845TIP3    H253951   5.787   0.242  12.917  2.2879  1.7899 -0.0597
10846TIP3   OH253952   0.171   1.283   5.976  0.4438 -0.3991 -0.0182
10846TIP3    H153953   0.146   1.357   6.032  1.0346 -0.9444  0.9637
10846TIP3    H253954   0.264   1.296   5.960  0.2255 -0.0769 -1.1584
10847TIP3   OH253955   0.450   0.950   3.227 -0.4442  0.4944  1.0865
10847TIP3    H153956   0.372   1.002   3.211  1.2128  2.2386 -1.6902
10847TIP3    H253957   0.496   0.997   3.297  0.6664  2.4170 -0.8865
10848TIP3   OH253958   3.568   0.759  15.416  0.0533 -0.3869  0.9278
10848TIP3    H153959   3.603   0.670  15.406 -0.9464 -0.7175  0.2549
10848TIP3    H253960   3.589   0.802  15.333 -0.4914 -0.3545  0.8093
10849TIP3   OH253961   4.844   4.644   3.470 -0.1842 -0.2897 -0.1942
10849TIP3    H153962   4.883   4.731   3.476 -1.6231  0.3405  0.4373
10849TIP3    H253963   4.830   4.630   3.377 -0.8898  0.6027 -0.2325
10850TIP3   OH253964   1.190   1.473   0.676  0.2340  0.2856  0.5113
10850TIP3    H153965   1.128   1.527   0.725  1.0894  1.3729  0.4134
10850TIP3    H253966   1.275   1.514   0.691  0.4171  1.1561 -2.5620
10851TIP3   OH253967   3.298   4.133  15.507  0.2482  0.2751  0.1010
10851TIP3    H153968   3.259   4.073  15.571  0.6412 -1.2242 -1.0201
10851TIP3    H253969   3.353   4.191  15.558  0.6767 -1.0056  1.1064
10852TIP3   OH253970   1.160   4.074  14.114  0.0253 -0.1318  0.1290
10852TIP3    H153971   1.238   4.077  14.058 -1.1233  0.0474 -1.4805
10852TIP3    H253972   1.136   3.981  14.116 -0.3418 -0.0456 -0.2495
10853TIP3   OH253973   3.664   4.360  15.319  0.6291  0.0399 -0.1231
10853TIP3    H153974   3.578   4.404  15.323 -0.0291 -1.2511  0.1105
10853TIP3    H253975   3.705   4.396  15.241 -0.1182  0.6937 -0.2295
10854TIP3   OH253976   2.199   2.231   5.607  0.0659 -0.4284 -0.0936
10854TIP3    H153977   2.105   2.229   5.589  0.2802  0.9413 -1.4008
10854TIP3    H253978   2.228   2.141   5.593 -1.0325 -0.8434  0.2551
10855TIP3   OH253979   2.472   3.510  15.332  0.1943  0.3015 -0.2643
10855TIP3    H153980   2.452   3.573  15.401 -1.1999  0.1505 -0.5053
10855TIP3    H253981   2.386   3.482  15.299  0.7796 -1.7755 -0.1123
10856TIP3   OH253982   0.094   2.004   2.803  0.1729  0.4038  1.1293
10856TIP3    H153983   0.109   1.934   2.867 -1.4446  0.2109  1.3268
10856TIP3    H253984   0.180   2.044   2.790  1.6325 -3.1905 -0.8651
10857TIP3   OH253985   6.312   5.101   0.302 -0.1796 -0.5797 -0.6012
10857TIP3    H153986   6.275   5.157   0.234  0.0302  0.7120  0.3401
10857TIP3    H253987   6.349   5.162   0.367 -0.3067 -1.7897  0.6332
10858TIP3   OH253988   5.657   0.883   1.977 -0.5745  0.2248  0.0996
10858TIP3    H153989   5.688   0.838   1.898  0.6743  0.5528  0.3919
10858TIP3    H253990   5.614   0.815   2.028  0.5959 -0.4893  0.1665
10859TIP3   OH253991   5.040   1.258   2.194  0.2441  0.0111  0.6434
10859TIP3    H153992   5.130   1.277   2.170 -1.0368  2.6295 -2.5093
10859TIP3    H253993   4.988   1.286   2.118 -3.2700 -0.9437  2.5514
10860TIP3   OH253994   2.035   6.569  10.849 -0.2629 -0.2740  0.4277
10860TIP3    H153995   1.947   6.598  10.873 -1.1684 -2.1926 -0.4272
10860TIP3    H253996   2.084   6.649  10.835 -1.6751  0.8268  1.6342
10861TIP3   OH253997   1.227   4.052   5.002  0.1731  0.0056 -0.2217
10861TIP3    H153998   1.263   3.977   5.049  1.0735 -0.5132 -1.6844
10861TIP3    H253999   1.145   4.020   4.966 -0.7997  0.5756  1.4373
10862TIP3   OH254000   5.297   5.723  16.724  0.1696 -0.1616  0.5493
10862TIP3    H154001   5.340   5.679  16.650 -0.8251  1.3229 -0.9538
10862TIP3    H254002   5.212   5.679  16.730 -0.7238  1.3248 -0.7883
10863TIP3   OH254003   0.799   5.492  12.312 -0.5400  0.2299  0.3706
10863TIP3    H154004   0.815   5.430  12.242  0.2832  2.0060 -1.0539
10863TIP3    H254005   0.758   5.441  12.381  0.5706 -1.9774 -0.5752
10864TIP3   OH254006   4.559   4.611   1.366 -0.1554  0.4526 -0.3627
10864TIP3    H154007   4.650   4.620   1.392  0.6569 -1.0854 -2.6050
10864TIP3    H254008   4.516   4.689   1.403  1.7913  0.5912  1.7045
10865TIP3   OH254009   6.763   3.687   3.812  0.0223  0.2124 -0.2966
10865TIP3    H154010   6.743   3.594   3.803 -1.1010  0.4438 -0.2601
10865TIP3    H254011   6.748   3.724   3.725 -0.5329  0.5408 -0.0635
10866TIP3   OH254012   1.793   5.507  14.671 -0.5174  0.0085  0.2945
10866TIP3    H154013   1.707   5.465  14.665 -1.1399  1.2720  0.0572
10866TIP3    H254014   1.775   5.593  14.709  0.5658  0.5084 -0.2917
10867TIP3   OH254015   4.009   5.815   6.052  0.0182 -0.3825 -0.0231
10867TIP3    H154016   4.021   5.767   5.970  0.1968 -0.3750 -0.0025
10867TIP3    H254017   3.988   5.904   6.026 -1.4084 -0.7260 -0.0684
10868TIP3   OH254018   1.919   6.241   3.848 -0.5162  0.3805 -0.1809
10868TIP3    H154019   1.893   6.193   3.927  1.3514 -0.4729 -0.0790
10868TIP3    H254020   1.846   6.302   3.833 -1.7883 -0.7914  1.0718
10869TIP3   OH254021   4.357   1.161  12.923  0.1187 -0.3324  0.7043
10869TIP3    H154022   4.287   1.203  12.872 -0.5138  0.2690  2.0351
10869TIP3    H254023   4.378   1.082  12.874 -2.0583 -0.9290  0.6845
10870TIP3   OH254024   3.326   6.132  15.628  0.7734 -0.7499 -0.0545
10870TIP3    H154025   3.395   6.106  15.690  1.8555  1.4635 -0.2809
10870TIP3    H254026   3.244   6.109  15.672  1.5600 -0.1321  1.7539
10871TIP3   OH254027   6.515   5.340  13.674  0.7371 -0.0050  0.0360
10871TIP3    H154028   6.523   5.430  13.706  1.1900  0.8292 -2.3583
10871TIP3    H254029   6.599   5.300  13.695  0.1643 -0.2226  2.0642
10872TIP3   OH254030   2.153   1.812   3.325 -1.0885  1.2117  0.4217
10872TIP3    H154031   2.139   1.731   3.374 -0.8907  0.3028 -1.0071
10872TIP3    H254032   2.245   1.832   3.338 -0.5271 -0.1876 -1.3101
10873TIP3   OH254033   3.855   1.712  12.803  0.1520  0.1500  0.4502
10873TIP3    H154034   3.778   1.767  12.785  0.3029  0.0975 -0.3645
10873TIP3    H254035   3.894   1.750  12.881 -0.1880  0.7367  0.3362
10874TIP3   OH254036   0.922   0.747  15.846 -0.4070  0.4979 -0.2233
10874TIP3    H154037   0.961   0.684  15.907 -0.3290  0.5392 -0.2291
10874TIP3    H254038   0.941   0.832  15.885  0.8866  0.5866 -1.0128
10875TIP3   OH254039   0.537   6.483  11.939 -1.2416 -0.1613  0.5160
10875TIP3    H154040   0.481   6.420  11.893  0.1440 -0.0047 -1.5052
10875TIP3    H254041   0.607   6.429  11.977 -1.1721 -0.0658  0.5229
10876TIP3   OH254042   1.082   6.493  11.330 -0.8501 -0.2264  0.0764
10876TIP3    H154043   1.151   6.438  11.292 -0.3673 -0.0543  0.7011
10876TIP3    H254044   1.118   6.523  11.414 -1.2493  0.7729 -0.1056
10877TIP3   OH254045   3.963   1.555  16.011 -0.0479 -0.4392  0.1223
10877TIP3    H154046   3.906   1.492  15.968 -0.2569 -0.9988  1.1846
10877TIP3    H254047   3.922   1.570  16.097  1.7320 -1.3766  1.1756
10878TIP3   OH254048   3.631   0.918   4.689  0.1733  0.3590  0.0473
10878TIP3    H154049   3.612   0.973   4.613  0.0768  0.5764  0.2272
10878TIP3    H254050   3.726   0.928   4.702  0.3433 -0.3579 -0.5667
10879TIP3   OH254051   4.663   1.223  15.958 -0.1256 -0.2172 -0.1234
10879TIP3    H154052   4.666   1.312  15.993  0.1491 -0.7380  1.2075
10879TIP3    H254053   4.713   1.228  15.876  1.2328  0.5117  0.7350
10880TIP3   OH254054   1.993   6.763  15.762  0.7344  0.3926  0.5286
10880TIP3    H154055   2.023   6.676  15.788  0.2120 -0.1202 -0.5679
10880TIP3    H254056   1.955   6.800  15.842  2.0245  0.0809  1.3078
10881TIP3   OH254057   0.292   2.287   3.349  0.0215 -0.0892  0.2550
10881TIP3    H154058   0.369   2.342   3.335 -0.8449  0.9627 -0.4379
10881TIP3    H254059   0.313   2.237   3.428  1.8346 -0.5673 -0.4943
10882TIP3   OH254060   6.430   3.519   5.331  0.0765 -0.4165 -0.0463
10882TIP3    H154061   6.374   3.591   5.303 -1.3331 -1.4800 -0.0035
10882TIP3    H254062   6.446   3.468   5.251  1.9016  0.4834 -0.2797
10883TIP3   OH254063   1.196   3.782   2.862  0.0223 -0.1662  0.6130
10883TIP3    H154064   1.210   3.697   2.903  0.3362  0.3314  1.5394
10883TIP3    H254065   1.235   3.773   2.775 -2.0278 -1.7301 -0.2037
10884TIP3   OH254066   5.119   2.286  14.390  0.0870 -0.5629 -0.1430
10884TIP3    H154067   5.186   2.314  14.326  0.1330  0.8292  0.4978
10884TIP3    H254068   5.064   2.364  14.402 -0.6028 -1.1756  0.6665
10885TIP3   OH254069   2.190   2.521   5.968 -0.7081  0.1724 -0.0697
10885TIP3    H154070   2.139   2.545   5.891 -0.4229  1.4553  0.1434
10885TIP3    H254071   2.280   2.517   5.938 -0.4029  2.1791  0.5282
10886TIP3   OH254072   1.251   2.002  11.513  0.5505 -0.1311  0.0723
10886TIP3    H154073   1.211   1.928  11.467 -1.7080  0.4231  1.0563
10886TIP3    H254074   1.270   2.066  11.444  2.3311 -1.5306 -0.7533
10887TIP3   OH254075   2.613   1.878   5.492 -0.1550 -0.3064  0.8355
10887TIP3    H154076   2.576   1.898   5.578 -1.1354 -0.4595  0.4577
10887TIP3    H254077   2.571   1.940   5.432  1.7392  0.8996  0.7034
10888TIP3   OH254078   2.886   0.307  13.764  0.4792  0.2854  0.3359
10888TIP3    H154079   2.792   0.321  13.777  0.3455 -0.3975  0.1489
10888TIP3    H254080   2.924   0.394  13.761 -0.0222  0.5369  1.3958
10889TIP3   OH254081   3.883   4.282  14.845  0.1176 -0.8693 -0.7533
10889TIP3    H154082   3.893   4.356  14.784 -0.3068  0.3798  0.6640
10889TIP3    H254083   3.839   4.215  14.794 -0.9944  0.4761 -1.5945
10890TIP3   OH254084   1.896   5.615   5.266  0.4404  0.5826 -0.8298
10890TIP3    H154085   1.944   5.556   5.324  1.1005  1.4726 -0.4667
10890TIP3    H254086   1.902   5.701   5.307 -0.8014  0.8581 -1.1848
10891TIP3   OH254087   1.014   1.855   5.169 -0.2599  0.0632 -0.1490
10891TIP3    H154088   1.012   1.906   5.088 -1.4393 -2.5533 -1.8531
10891TIP3    H254089   0.979   1.914   5.235  0.1764  2.0763 -1.6757
10892TIP3   OH254090   1.281   0.031  12.834  0.4655 -0.1559  0.6631
10892TIP3    H154091   1.288  -0.064  12.841  2.5212 -0.1530 -1.0176
10892TIP3    H254092   1.259   0.047  12.743 -1.3714  0.9404  1.2765
10893TIP3   OH254093   3.563   4.405   6.222  0.3643  0.0487 -0.5990
10893TIP3    H154094   3.645   4.449   6.199 -0.2095  0.1513 -2.5526
10893TIP3    H254095   3.590   4.324   6.265  1.4679  0.6977 -0.0465
10894TIP3   OH254096   2.905   5.415   2.178  0.6295  0.1234 -0.1468
10894TIP3    H154097   2.824   5.377   2.145  1.1974 -0.3790 -0.9738
10894TIP3    H254098   2.934   5.355   2.246  0.2798  0.3349  0.1901
10895TIP3   OH254099   5.825   2.281   0.320 -0.3387  0.1327  0.2945
10895TIP3    H154100   5.859   2.231   0.246  0.2283  0.9950 -0.0322
10895TIP3    H254101   5.904   2.310   0.367 -0.6906 -1.5668  2.0268
10896TIP3   OH254102   5.707   1.734   5.170 -0.3113  0.6269 -0.4014
10896TIP3    H154103   5.795   1.710   5.198 -0.4651 -1.1577 -1.3470
10896TIP3    H254104   5.720   1.776   5.085 -0.3014  0.9743 -0.2243
10897TIP3   OH254105   0.646   2.593   4.473  0.4350  0.6713  0.2866
10897TIP3    H154106   0.617   2.537   4.545  1.2668  0.7818  0.7238
10897TIP3    H254107   0.683   2.533   4.409 -0.6518  0.5402 -0.2242
10898TIP3   OH254108   2.893   2.259  14.611  0.0905 -0.6973  0.4755
10898TIP3    H154109   2.985   2.246  14.586  0.3857  2.0005  0.0308
10898TIP3    H254110   2.897   2.309  14.692 -0.9962 -0.3157  0.3033
10899TIP3   OH254111   5.446   1.198   5.306 -0.1653 -0.1824  0.2914
10899TIP3    H154112   5.396   1.128   5.347  0.1351 -0.6482 -0.1262
10899TIP3    H254113   5.534   1.190   5.344  0.0620 -0.4918 -0.2890
10900TIP3   OH254114   3.167   4.827   3.392  0.1387  0.1452  0.5301
10900TIP3    H154115   3.188   4.881   3.316  1.3953 -0.9335  0.0753
10900TIP3    H254116   3.091   4.775   3.365  1.6010 -1.4392 -0.6187
10901TIP3   OH254117   2.604   3.307  12.258  0.5484  0.1264  0.3705
10901TIP3    H154118   2.530   3.279  12.312 -0.5327  0.5198 -0.8791
10901TIP3    H254119   2.617   3.399  12.281  1.5141 -0.2936  1.5529
10902TIP3   OH254120   5.795   6.267  16.173  0.1021 -0.1999 -0.7308
10902TIP3    H154121   5.806   6.351  16.127  0.1854  1.1693  1.7116
10902TIP3    H254122   5.877   6.221  16.159  1.2803  1.4804  0.5610
10903TIP3   OH254123   3.640   0.165   0.237  0.1947 -0.3951 -0.0171
10903TIP3    H154124   3.616   0.236   0.178  0.2160  0.3477  0.8678
10903TIP3    H254125   3.673   0.096   0.179  1.6598  0.9099 -0.7510
10904TIP3   OH254126   3.664   0.084   5.395  0.1647  0.7299 -0.0592
10904TIP3    H154127   3.664  -0.002   5.352  1.0181  0.6759  0.0485
10904TIP3    H254128   3.752   0.093   5.432  0.3987  2.0710 -0.9039
10905TIP3   OH254129   6.588   6.209   4.512  0.5212  0.8165  0.1088
10905TIP3    H154130   6.533   6.273   4.467  0.5183  1.1678  0.6132
10905TIP3    H254131   6.665   6.259   4.540 -0.0978  0.9152  1.6965
10906TIP3   OH254132   5.880   4.296   1.718  0.3395  0.0127 -0.1672
10906TIP3    H154133   5.847   4.245   1.644  1.7518 -0.2643 -0.6336
10906TIP3    H254134   5.893   4.384   1.682  0.8696 -0.0813 -0.2200
10907TIP3   OH254135   2.616   4.683  15.463  0.2674  0.7537 -0.6324
10907TIP3    H154136   2.711   4.690  15.455  0.2422  0.6042 -1.0208
10907TIP3    H254137   2.601   4.595  15.498  0.3225  1.0904  0.2708
10908TIP3   OH254138   4.676   5.696  13.201  0.1139 -0.3368 -0.4585
10908TIP3    H154139   4.654   5.606  13.177 -0.6415 -0.0445 -0.8937
10908TIP3    H254140   4.668   5.698  13.296 -0.0641 -0.6772 -0.4637
10909TIP3   OH254141   5.283   3.200  12.153 -0.3978 -0.4395 -0.4983
10909TIP3    H154142   5.228   3.258  12.101  0.7107  0.2811 -0.8830
10909TIP3    H254143   5.292   3.244  12.237 -0.7740 -0.7748 -0.2816
10910TIP3   OH254144   3.618   1.424   3.205 -0.5681 -0.0513  0.2460
10910TIP3    H154145   3.585   1.506   3.166  2.5949  1.8783  1.5050
10910TIP3    H254146   3.681   1.391   3.140 -0.7578 -0.7390  0.4105
10911TIP3   OH254147   2.249   5.910  11.282  0.3458 -0.3007 -0.2654
10911TIP3    H154148   2.180   5.847  11.262  0.0370  0.2909 -1.0561
10911TIP3    H254149   2.259   5.963  11.203  1.1880  0.1065  0.0968
10912TIP3   OH254150   1.109   3.600  11.938  1.1052 -0.1337  0.0358
10912TIP3    H154151   1.066   3.527  11.982  0.7936 -0.1181 -0.2467
10912TIP3    H254152   1.203   3.580  11.945  0.9755 -1.3218 -1.3454
10913TIP3   OH254153   4.334   2.990  12.005 -0.4985 -0.4559  0.0381
10913TIP3    H154154   4.366   2.916  11.954  0.2100 -0.6171  0.7189
10913TIP3    H254155   4.350   3.066  11.950  0.9416 -0.5472  0.3085
10914TIP3   OH254156   2.595   5.481   2.691  0.0788  0.1814 -0.2880
10914TIP3    H154157   2.542   5.529   2.754 -0.7859  1.6070 -2.0374
10914TIP3    H254158   2.653   5.426   2.744 -2.1318 -0.3232  1.6982
10915TIP3   OH254159   5.073   6.744   4.603  0.1158  0.0578 -0.5638
10915TIP3    H154160   5.061   6.658   4.562  0.3306 -1.0551  1.6179
10915TIP3    H254161   5.111   6.724   4.688 -0.8471  2.2609  0.4159
10916TIP3   OH254162   4.399   6.584   1.394  0.3193  0.2215 -0.1027
10916TIP3    H154163   4.486   6.581   1.355  0.7215  2.1774  0.5860
10916TIP3    H254164   4.340   6.560   1.322  1.3286  0.0058 -0.8765
10917TIP3   OH254165   2.535   4.384  13.469 -0.0817  0.1100  0.5725
10917TIP3    H154166   2.487   4.314  13.426 -1.2248  0.8334  0.6506
10917TIP3    H254167   2.583   4.341  13.540 -2.2080 -0.3421  1.7920
10918TIP3   OH254168   1.909   1.607   1.738 -0.1797  0.1398  0.5739
10918TIP3    H154169   1.943   1.616   1.649 -0.4103  0.5770  0.5264
10918TIP3    H254170   1.869   1.520   1.741  1.6945 -0.7299  0.8843
10919TIP3   OH254171   4.959   6.283  12.112  0.0845  0.3589 -0.6480
10919TIP3    H154172   5.040   6.276  12.163  1.2732  2.3838 -2.1918
10919TIP3    H254173   4.890   6.255  12.173  1.8074 -0.3275  1.0400
10920TIP3   OH254174   5.986   1.713   3.313  0.2345  0.0698 -0.0182
10920TIP3    H154175   6.007   1.644   3.375 -0.1204 -0.7190 -0.7693
10920TIP3    H254176   6.049   1.782   3.332 -0.3048  0.1301  1.6807
10921TIP3   OH254177   6.157   3.842  13.433  0.2027  0.4432 -0.1158
10921TIP3    H154178   6.243   3.878  13.411  0.3049  0.4636  0.3120
10921TIP3    H254179   6.158   3.835  13.528 -0.8973  2.0086  0.0367
10922TIP3   OH254180   1.110   3.966   5.519 -0.0834 -0.1349 -0.0195
10922TIP3    H154181   1.032   3.912   5.509  0.4107 -0.7175 -0.7965
10922TIP3    H254182   1.144   3.976   5.430  0.9515 -0.2412  0.3578
10923TIP3   OH254183   6.377   2.922  16.055 -0.5615 -0.1021 -0.4094
10923TIP3    H154184   6.313   2.975  16.101  0.4099  1.9734 -1.3774
10923TIP3    H254185   6.335   2.900  15.971 -1.1043 -1.2214  0.1380
10924TIP3   OH254186   0.415   0.360  16.631  0.3151  0.7152 -0.1733
10924TIP3    H154187   0.382   0.441  16.670  1.5207  1.0088  0.2741
10924TIP3    H254188   0.346   0.332  16.571 -0.9764  1.0105  1.1379
10925TIP3   OH254189   3.468   0.194  16.402  0.7001  0.2815  0.0428
10925TIP3    H154190   3.440   0.131  16.468  1.2597 -0.4475 -0.4077
10925TIP3    H254191   3.535   0.148  16.352  0.8944  1.1291 -0.4887
10926TIP3   OH254192   4.894   0.307  14.255 -0.3135  0.1677 -0.7594
10926TIP3    H154193   4.854   0.256  14.326  0.9935  0.3666  0.1258
10926TIP3    H254194   4.819   0.347  14.210 -1.0847  2.1335  2.0746
10927TIP3   OH254195   2.737   1.183   4.023  0.5749 -0.7381  0.1900
10927TIP3    H154196   2.790   1.189   4.103  1.8998  0.4031 -0.7462
10927TIP3    H254197   2.647   1.195   4.053  0.9483 -1.4551  1.6507
10928TIP3   OH254198   3.816   2.785  12.645  0.2114  0.1501  0.0024
10928TIP3    H154199   3.773   2.764  12.727 -1.9769  1.3135 -0.8005
10928TIP3    H254200   3.811   2.705  12.593 -0.0360 -0.0457  0.3317
10929TIP3   OH254201   2.735   4.512  16.748 -0.4004 -0.4185  0.3862
10929TIP3    H154202   2.782   4.542  16.826 -0.5281  1.6126 -0.2733
10929TIP3    H254203   2.658   4.569  16.744 -2.2610 -2.8275  0.7186
10930TIP3   OH254204   1.643   5.847  11.523  0.1963 -0.4121 -0.7405
10930TIP3    H154205   1.599   5.802  11.451  2.1276 -0.8025 -1.7095
10930TIP3    H254206   1.660   5.935  11.491  1.8574 -0.8494 -1.1399
10931TIP3   OH254207   4.494   3.932   1.423  0.3465  0.4109  0.8747
10931TIP3    H154208   4.461   4.016   1.393  1.3683  0.3821 -0.3559
10931TIP3    H254209   4.572   3.953   1.475  1.9139  0.1197 -1.2863
10932TIP3   OH254210   6.075   2.980   5.356  0.0974 -0.8157  0.2889
10932TIP3    H154211   6.156   3.017   5.391  0.1316  0.5220 -1.1326
10932TIP3    H254212   6.101   2.895   5.319  0.2852 -1.6764  2.3215
10933TIP3   OH254213   4.515   4.834   3.732  0.3319  0.3626  0.4015
10933TIP3    H154214   4.535   4.741   3.743 -3.2631 -0.8640 -2.6706
10933TIP3    H254215   4.569   4.861   3.658  0.5434  0.4656  0.5914
10934TIP3   OH254216   5.192   3.313   1.275  0.0359  0.3726 -0.3133
10934TIP3    H154217   5.249   3.255   1.326 -0.5907  0.3113  0.3160
10934TIP3    H254218   5.252   3.379   1.239  0.6013 -0.0669 -0.1988
10935TIP3   OH254219   4.188   0.055  12.272 -0.7725  0.2654 -0.4780
10935TIP3    H154220   4.231  -0.009  12.328 -0.2504  0.7693 -0.2899
10935TIP3    H254221   4.247   0.131  12.273 -1.8281  1.1004  0.0744
10936TIP3   OH254222   2.257   3.352  13.354  0.6665  0.3453  0.0073
10936TIP3    H154223   2.278   3.296  13.429 -0.8753 -0.6002 -0.2385
10936TIP3    H254224   2.236   3.437  13.392 -0.7607 -0.3179  0.6987
10937TIP3   OH254225   0.039   3.410  13.058  0.1922 -0.4648 -0.0559
10937TIP3    H154226  -0.042   3.363  13.042  0.1138  0.1892 -1.7133
10937TIP3    H254227   0.012   3.493  13.096 -0.0048  0.1534 -1.5069
10938TIP3   OH254228   2.980   5.185  13.662  0.3003  0.2676  0.0220
10938TIP3    H154229   2.952   5.271  13.631  0.8069  0.1670 -0.7330
10938TIP3    H254230   2.941   5.177  13.749  0.2863  1.2768  0.1146
10939TIP3   OH254231   1.450   1.237  11.829 -0.4685  0.1838 -0.2056
10939TIP3    H154232   1.437   1.188  11.911 -1.0780 -0.0089 -0.4121
10939TIP3    H254233   1.518   1.300  11.849  2.3945 -2.6036 -0.7049
10940TIP3   OH254234   1.736   4.336   0.671 -0.2024 -0.4058 -0.1986
10940TIP3    H154235   1.674   4.409   0.668 -2.0842 -1.9115  0.4237
10940TIP3    H254236   1.800   4.361   0.738 -2.3246 -0.4283  1.9104
10941TIP3   OH254237   2.367   1.732   1.943  0.1300  0.1409 -0.7035
10941TIP3    H154238   2.275   1.704   1.939  0.4446 -0.8878 -0.9841
10941TIP3    H254239   2.368   1.816   1.899 -1.0535  1.1587  1.1281
10942TIP3   OH254240   3.557   3.972   2.929 -0.6030  0.1705  0.5245
10942TIP3    H154241   3.501   3.980   2.852  1.2900 -0.2248 -0.9080
10942TIP3    H254242   3.496   3.969   3.003 -2.4966 -1.0581 -1.0606
10943TIP3   OH254243   3.821   6.538   4.082 -0.5106  0.2131  0.2618
10943TIP3    H154244   3.824   6.566   4.174 -1.9899 -2.8311  1.2958
10943TIP3    H254245   3.900   6.486   4.071 -0.1933  0.8064 -0.2864
10944TIP3   OH254246   0.542   0.172   1.967 -0.2670 -0.4393  0.1046
10944TIP3    H154247   0.568   0.086   1.934  1.2203  0.1977 -0.4432
10944TIP3    H254248   0.612   0.197   2.027 -0.3233  0.7070 -0.3000
10945TIP3   OH254249   3.150   4.332   1.894 -0.4018  0.3872  0.2560
10945TIP3    H154250   3.143   4.426   1.911 -0.2098  0.4325  0.0915
10945TIP3    H254251   3.068   4.296   1.925 -1.1741  0.8413 -1.1966
10946TIP3   OH254252   2.184   4.570   3.692 -0.5438  0.0377  0.2433
10946TIP3    H154253   2.140   4.538   3.614  0.0240  1.6099 -0.7476
10946TIP3    H254254   2.131   4.537   3.765 -0.3670 -2.4988 -0.7359
10947TIP3   OH254255   5.698   2.032   4.209  0.2117 -0.2253  0.0594
10947TIP3    H154256   5.788   2.063   4.197  0.1019 -0.9235 -2.8218
10947TIP3    H254257   5.706   1.938   4.226 -0.0292 -0.5843 -1.7171
10948TIP3   OH254258   0.283   5.525  14.891  0.1232 -0.3606 -0.5732
10948TIP3    H154259   0.310   5.578  14.816  0.3936 -1.2743 -1.1319
10948TIP3    H254260   0.190   5.543  14.902  0.8395  2.4997  1.0993
10949TIP3   OH254261   1.136   0.055  12.558 -0.6122  0.1021  0.1148
10949TIP3    H154262   1.203   0.017  12.502 -2.7061 -0.7773 -1.8620
10949TIP3    H254263   1.103   0.129  12.508 -0.7972  0.8183  1.2892
10950TIP3   OH254264   3.186   5.852   5.216 -0.1286 -0.2203  0.1176
10950TIP3    H154265   3.206   5.777   5.273 -1.0773 -0.9353 -0.4821
10950TIP3    H254266   3.249   5.919   5.242  1.7890 -1.7712 -0.4220
10951TIP3   OH254267   2.681   2.393  17.012  0.0509  0.0257  0.7324
10951TIP3    H154268   2.701   2.303  16.989  0.8384  0.2137  0.6632
10951TIP3    H254269   2.756   2.422  17.063  0.5822  1.1585 -0.6526
10952TIP3   OH254270   3.199   2.826  13.933  0.3039  0.1493  0.3859
10952TIP3    H154271   3.126   2.785  13.979  0.4942  0.0508  0.5991
10952TIP3    H254272   3.171   2.829  13.841  0.6045 -1.1560  0.2477
10953TIP3   OH254273   1.820   1.390   5.345 -0.2818 -0.2324 -0.0067
10953TIP3    H154274   1.890   1.381   5.280  1.3112  0.9047  1.4946
10953TIP3    H254275   1.797   1.483   5.342 -1.3294 -0.4958 -0.0890
10954TIP3   OH254276   3.185   5.098   0.377  0.0268 -0.2361 -0.2555
10954TIP3    H154277   3.238   5.026   0.344 -0.7508 -1.1339  0.4300
10954TIP3    H254278   3.107   5.056   0.414  0.7067  0.7198  2.4205
10955TIP3   OH254279   0.707   5.282  12.989 -0.9058 -0.2704 -0.2906
10955TIP3    H154280   0.704   5.200  13.037  0.0226 -0.6841 -0.9219
10955TIP3    H254281   0.788   5.278  12.939  1.0715  2.6560  2.5199
10956TIP3   OH254282   4.018   6.311  16.855  0.0644  0.2058 -0.2842
10956TIP3    H154283   4.078   6.332  16.926  0.1754  0.4341 -0.4469
10956TIP3    H254284   3.935   6.289  16.899  0.5418 -1.0842 -0.0085
10957TIP3   OH254285   4.090   3.661  11.735 -0.1252  0.4267  0.3989
10957TIP3    H154286   4.050   3.635  11.819 -0.1896 -2.8087 -0.5883
10957TIP3    H254287   4.183   3.672  11.755  0.1185 -1.8545  0.5915
10958TIP3   OH254288   3.604   4.264   5.406  0.4383 -0.4769 -0.3511
10958TIP3    H154289   3.677   4.291   5.349  0.9435 -1.7154 -0.2916
10958TIP3    H254290   3.532   4.323   5.382  1.2942  0.4047 -0.7809
10959TIP3   OH254291   4.922   3.189  16.543 -0.2060  0.1526  0.4853
10959TIP3    H154292   4.933   3.259  16.479 -0.3988 -0.5937 -0.3721
10959TIP3    H254293   4.980   3.119  16.512 -0.3418 -0.2335  1.0941
10960TIP3   OH254294   6.130   2.722   5.149 -0.0462  0.3261  0.1173
10960TIP3    H154295   6.212   2.758   5.115 -0.0013  1.3110  1.2400
10960TIP3    H254296   6.062   2.762   5.095 -0.0782  3.0096  2.0040
10961TIP3   OH254297   3.610   4.227  14.201  0.7998  0.4564  0.0242
10961TIP3    H154298   3.585   4.148  14.154 -0.4556  0.1606  1.1370
10961TIP3    H254299   3.550   4.295  14.169 -0.5133  0.0954  1.6350
10962TIP3   OH254300   6.748   3.093  13.029  0.5945  0.2403 -0.2920
10962TIP3    H154301   6.823   3.121  13.082  0.4640  0.4064 -0.1998
10962TIP3    H254302   6.685   3.164  13.037  0.1265 -0.2317  0.2228
10963TIP3   OH254303   0.546   0.919  11.769 -0.4288  0.5105 -0.0741
10963TIP3    H154304   0.455   0.936  11.743 -0.0929  1.9888 -0.3258
10963TIP3    H254305   0.548   0.944  11.862 -0.2665  0.5396 -0.0860
10964TIP3   OH254306   5.788   1.353  15.147  0.2507 -0.4534 -0.4044
10964TIP3    H154307   5.774   1.432  15.199  1.3441  0.0313 -0.8554
10964TIP3    H254308   5.831   1.292  15.207  1.4645  0.0877 -0.7120
10965TIP3   OH254309   0.115   6.193  10.844 -0.6212  0.0524 -0.0681
10965TIP3    H154310   0.030   6.225  10.815 -0.9371 -0.4566  0.2939
10965TIP3    H254311   0.176   6.262  10.819 -1.1467  0.4525 -0.2605
10966TIP3   OH254312   6.044   2.008  13.176 -0.0991 -0.3704  0.4199
10966TIP3    H154313   6.049   2.071  13.104 -1.2244 -1.8260 -0.9854
10966TIP3    H254314   5.950   1.996  13.190  0.1164  0.0535  2.2729
10967TIP3   OH254315   5.264   3.782  15.535  0.2904 -0.5189  0.1712
10967TIP3    H154316   5.338   3.833  15.570  1.2877 -0.9788 -1.2636
10967TIP3    H254317   5.193   3.799  15.597  1.1319  1.2068  0.6971
10968TIP3   OH254318   0.242   4.450   6.271  0.3054 -0.1546 -0.2921
10968TIP3    H154319   0.228   4.427   6.363  0.6183 -0.8806 -0.4274
10968TIP3    H254320   0.161   4.426   6.227  0.6824 -1.1296 -0.4577
10969TIP3   OH254321   6.562   4.076  11.363 -0.0530  0.7877  0.7524
10969TIP3    H154322   6.603   4.126  11.293  0.2311 -0.5800 -0.0848
10969TIP3    H254323   6.491   4.028  11.320  0.0121  0.0747  1.4231
10970TIP3   OH254324   0.907   6.096  14.571 -0.4896 -0.3861 -0.5409
10970TIP3    H154325   0.911   6.079  14.477 -0.3772 -0.9949 -0.4280
10970TIP3    H254326   0.827   6.148  14.582 -0.8672 -0.8873 -0.8850
10971TIP3   OH254327   1.970   4.357   6.199  0.5829  0.2450 -0.0024
10971TIP3    H154328   1.950   4.291   6.265  1.3759  1.1705  1.1933
10971TIP3    H254329   2.030   4.417   6.243 -1.4577  2.7471 -0.4664
10972TIP3   OH254330   1.855   5.119  13.442 -0.5198  0.2911 -0.3453
10972TIP3    H154331   1.792   5.140  13.373 -0.7191  0.5486 -0.0843
10972TIP3    H254332   1.802   5.084  13.513 -0.4254  0.9408  0.0533
10973TIP3   OH254333   4.452   0.384   2.548 -0.5635  0.3689  0.3249
10973TIP3    H154334   4.506   0.419   2.619 -1.4038  0.0222  1.1359
10973TIP3    H254335   4.373   0.438   2.549 -0.9824 -0.2354  0.2684
10974TIP3   OH254336   1.409   0.940   3.942 -0.3185  0.2848  0.4489
10974TIP3    H154337   1.451   0.955   4.026 -1.6582 -0.6379  1.3064
10974TIP3    H254338   1.327   0.895   3.963 -0.9227  0.4905 -1.3032
10975TIP3   OH254339   3.165   0.711   3.756 -0.1788  0.1570  0.6695
10975TIP3    H154340   3.230   0.779   3.745  1.4488 -1.5327 -0.5320
10975TIP3    H254341   3.127   0.700   3.668  0.5900 -1.4266  0.5116
10976TIP3   OH254342   0.022   1.495  15.886  0.2009  0.2289  0.5548
10976TIP3    H154343  -0.000   1.409  15.853  3.2092 -0.5205  0.3430
10976TIP3    H254344  -0.011   1.496  15.976 -0.6083 -0.7807  0.2749
10977TIP3   OH254345   5.796   6.314   3.037  0.2661 -0.2349  0.0517
10977TIP3    H154346   5.849   6.275   2.967 -0.1352  0.8815 -0.8843
10977TIP3    H254347   5.856   6.319   3.112  1.5718  1.2496 -1.0728
10978TIP3   OH254348   2.603   6.271   1.488  0.5026 -0.0444 -0.0811
10978TIP3    H154349   2.669   6.214   1.448  0.8058 -0.5012  1.0476
10978TIP3    H254350   2.542   6.290   1.417  2.0145  0.6358 -1.2239
10979TIP3   OH254351   4.890   3.851   4.722 -1.1687  0.6049 -0.0517
10979TIP3    H154352   4.974   3.807   4.737 -0.9134  0.0865 -2.6433
10979TIP3    H254353   4.846   3.849   4.806  1.5390  1.1319  1.4415
10980TIP3   OH254354   3.141   4.552  11.830 -0.3558 -0.8776 -0.1211
10980TIP3    H154355   3.223   4.512  11.803  0.3436  0.2596  0.3034
10980TIP3    H254356   3.082   4.478  11.846  0.5681 -1.6910 -0.4480
10981TIP3   OH254357   3.054   1.078   5.670 -0.1221 -0.4739  0.1862
10981TIP3    H154358   3.036   0.992   5.708 -0.2345  0.6890  2.9393
10981TIP3    H254359   3.150   1.086   5.675 -0.0407 -0.7853 -0.8673
10982TIP3   OH254360   4.404   4.485  11.143  0.4674  0.5005 -0.3017
10982TIP3    H154361   4.364   4.407  11.181 -0.0163  1.1923  0.6276
10982TIP3    H254362   4.339   4.554  11.153  0.9614  1.0810 -0.9454
10983TIP3   OH254363   6.321   5.906   4.091 -0.4237  0.2831 -0.0867
10983TIP3    H154364   6.285   5.831   4.042 -2.2995  2.2663 -1.8465
10983TIP3    H254365   6.416   5.893   4.089 -0.7452 -3.5859  2.2004
10984TIP3   OH254366   6.375   1.770  11.401  0.1148  0.2470 -0.7631
10984TIP3    H154367   6.448   1.770  11.462 -0.8809  3.7917  0.5401
10984TIP3    H254368   6.415   1.754  11.315  2.1946  0.5939  0.1225
10985TIP3   OH254369   3.959   2.522  13.593  0.3182 -0.2693 -0.0851
10985TIP3    H154370   4.046   2.542  13.628 -0.9396 -0.4162  3.3334
10985TIP3    H254371   3.941   2.433  13.624 -1.0178 -0.2697 -0.8240
10986TIP3   OH254372   4.628   3.558   3.846 -0.0998  0.2039  0.6367
10986TIP3    H154373   4.630   3.570   3.751 -1.2336 -0.1251  0.5761
10986TIP3    H254374   4.564   3.622   3.878 -0.8219 -0.7102  1.0324
10987TIP3   OH254375   3.814   4.183  15.681  0.0674  0.1961 -0.5637
10987TIP3    H154376   3.743   4.205  15.622 -1.3852  1.6365  1.6336
10987TIP3    H254377   3.772   4.135  15.753  1.2949  0.9897  0.7325
10988TIP3   OH254378   3.386   4.748   0.512  0.4169  0.3899 -0.2181
10988TIP3    H154379   3.366   4.781   0.425 -2.9086 -0.3671  0.1908
10988TIP3    H254380   3.411   4.657   0.499  0.2405  0.3718 -0.4265
10989TIP3   OH254381   2.396   5.555  12.560  0.1976  0.2332 -0.3075
10989TIP3    H154382   2.469   5.602  12.601  1.1020  0.1752 -1.7792
10989TIP3    H254383   2.439   5.492  12.501 -1.0251 -1.2672  0.3802
10990TIP3   OH254384   6.019   2.179  14.035 -0.3390 -0.3417  0.0795
10990TIP3    H154385   6.008   2.224  14.119  2.0588  0.2967  0.0868
10990TIP3    H254386   5.993   2.089  14.053 -1.5233  0.1916  1.0570
10991TIP3   OH254387   0.842   2.113  14.004 -0.1880 -0.2956 -0.3687
10991TIP3    H154388   0.916   2.053  13.999 -0.2905 -0.4778  0.2975
10991TIP3    H254389   0.784   2.085  13.933  0.8639  0.5150 -1.5750
10992TIP3   OH254390   1.565   1.853   1.692  0.2538  0.0205 -0.0413
10992TIP3    H154391   1.573   1.777   1.635 -1.5959  0.0980 -0.4147
10992TIP3    H254392   1.605   1.925   1.643 -0.8346 -0.0308 -0.9991
10993TIP3   OH254393   5.011   3.098   4.806  0.5068  0.0276 -0.8444
10993TIP3    H154394   5.033   3.168   4.744  1.5053 -0.9509 -1.6182
10993TIP3    H254395   5.039   3.132   4.891 -1.0724  1.4699 -0.8791
10994TIP3   OH254396   3.725   2.455   0.785  0.1304  0.0586 -0.4756
10994TIP3    H154397   3.762   2.517   0.722  0.4168  1.0661  0.6673
10994TIP3    H254398   3.727   2.371   0.740 -0.8668  0.9795 -2.2956
10995TIP3   OH254399   0.243   0.505  12.235  0.8678  0.1162 -0.1705
10995TIP3    H154400   0.207   0.496  12.323  0.0535  0.0491 -0.5043
10995TIP3    H254401   0.333   0.534  12.249  0.9213 -0.4448  0.6939
10996TIP3   OH254402   4.710   6.510  15.615  0.0847 -0.0638 -0.0080
10996TIP3    H154403   4.741   6.477  15.530  0.1797 -1.0399  0.4040
10996TIP3    H254404   4.734   6.442  15.678 -0.7596  0.2648  0.6830
10997TIP3   OH254405   3.005   1.666  16.661  0.4665 -0.2862  0.3038
10997TIP3    H154406   2.959   1.731  16.714  1.8129  1.6531 -0.8529
10997TIP3    H254407   2.937   1.629  16.605 -0.2870  0.2339  0.8670
10998TIP3   OH254408   1.011   0.962  15.971 -0.0871 -0.4482  0.5707
10998TIP3    H154409   1.106   0.970  15.980 -0.2646  1.7784  0.9541
10998TIP3    H254410   0.977   1.043  16.009 -2.0379 -0.3503 -1.2736
10999TIP3   OH254411   0.086   2.378   1.708 -0.4377  0.0103 -0.0326
10999TIP3    H154412   0.072   2.392   1.802 -0.8383  1.0634 -0.2517
10999TIP3    H254413   0.166   2.427   1.688 -0.0906 -0.5974 -0.1464
11000TIP3   OH254414   0.294   2.950   2.446  0.2390  0.9469 -0.5555
11000TIP3    H154415   0.308   3.044   2.456  1.0016  1.0375 -2.4044
11000TIP3    H254416   0.368   2.920   2.393 -1.9208 -0.0718 -3.0843
11001TIP3   OH254417   2.458   1.649  12.217  0.6558  0.5912  0.2505
11001TIP3    H154418   2.516   1.682  12.149  0.7528  0.2740  0.1795
11001TIP3    H254419   2.504   1.667  12.299  2.0497 -2.0118  0.0732
11002TIP3   OH254420   1.370   4.244   0.898 -0.1595  0.3458  0.2974
11002TIP3    H154421   1.404   4.231   0.986 -0.9581  0.5644  0.6440
11002TIP3    H254422   1.419   4.182   0.844  0.5546  0.4358  0.8359
11003TIP3   OH254423   1.518   0.746   2.080 -0.1738 -0.1313  0.3148
11003TIP3    H154424   1.534   0.788   2.165 -1.3213  2.1093 -0.5397
11003TIP3    H254425   1.471   0.665   2.101  0.6068 -0.1956  1.8837
11004TIP3   OH254426   5.936   2.277  15.965 -1.1672 -0.0746 -0.2236
11004TIP3    H154427   5.982   2.194  15.950 -1.7313 -0.2527 -1.0071
11004TIP3    H254428   5.883   2.289  15.886  0.6846  2.2188 -1.1584
11005TIP3   OH254429   2.219   6.026  13.917 -1.0856 -0.2367  0.4931
11005TIP3    H154430   2.230   5.999  13.826  2.6413  0.5901  0.6239
11005TIP3    H254431   2.180   6.114  13.912 -2.0487 -0.7112 -0.2606
11006TIP3   OH254432   4.848   4.204   4.540  0.4782  0.4965  0.0709
11006TIP3    H154433   4.839   4.109   4.532  1.4143  0.4732 -0.7128
11006TIP3    H254434   4.767   4.231   4.583  1.3536 -0.9635  2.7609
11007TIP3   OH254435   5.672   3.449  16.029 -0.0725 -0.6010 -0.4629
11007TIP3    H154436   5.651   3.401  15.949 -0.3118 -0.8677 -0.2400
11007TIP3    H254437   5.734   3.516  16.001  0.2918 -1.0618 -0.7702
11008TIP3   OH254438   1.392   5.649   4.153 -0.0070  0.3107  0.0315
11008TIP3    H154439   1.329   5.599   4.102 -0.4534  0.0520  0.8181
11008TIP3    H254440   1.338   5.705   4.209  0.4884  2.6502 -1.7630
11009TIP3   OH254441   0.492   4.291   0.702 -0.2611 -0.4249  0.6375
11009TIP3    H154442   0.445   4.307   0.784 -1.1463 -1.9469  0.4572
11009TIP3    H254443   0.425   4.253   0.643  0.3090  0.8290 -0.8525
11010TIP3   OH254444   3.224   2.481  10.539  0.2811  0.0549 -0.0677
11010TIP3    H154445   3.140   2.464  10.497  0.8782  0.2124 -1.3531
11010TIP3    H254446   3.254   2.394  10.568 -0.7844  0.1320  1.3180
11011TIP3   OH254447   2.811   4.781   1.981  0.1100  0.1762  0.1280
11011TIP3    H154448   2.831   4.873   2.000 -0.6355  0.6646 -1.3804
11011TIP3    H254449   2.746   4.756   2.047 -0.7382  1.1544 -0.3252
11012TIP3   OH254450   4.144   4.599  16.057 -0.4487  0.5869  0.5181
11012TIP3    H154451   4.063   4.610  16.106 -0.2076  1.0076  0.8203
11012TIP3    H254452   4.195   4.678  16.076  0.0237  0.3337  0.3137
11013TIP3   OH254453   0.683   4.192  11.251  0.4681 -0.0934  0.0813
11013TIP3    H154454   0.622   4.266  11.255  0.7935  0.0698  2.7167
11013TIP3    H254455   0.770   4.232  11.247  0.7729 -0.2669  3.7697
11014TIP3   OH254456   2.747   6.144   1.108 -0.2272  0.7985 -0.4170
11014TIP3    H154457   2.684   6.129   1.178 -1.6461 -0.1090 -1.8505
11014TIP3    H254458   2.798   6.063   1.104 -1.7466 -0.1385 -1.9810
11015TIP3   OH254459   0.546   4.521  14.258  0.0941 -0.1279 -0.1385
11015TIP3    H154460   0.537   4.451  14.322 -0.6607  0.3545  0.2952
11015TIP3    H254461   0.517   4.483  14.176 -0.6562 -0.2281  0.1674
11016TIP3   OH254462   1.135   4.759  11.986  0.2128 -1.0785 -0.1323
11016TIP3    H154463   1.103   4.704  11.914 -1.1490 -0.3055 -0.1294
11016TIP3    H254464   1.064   4.758  12.050 -0.3589  1.6692 -0.6636
11017TIP3   OH254465   1.193   6.016   0.271 -0.0551  0.3928  0.3750
11017TIP3    H154466   1.273   5.984   0.230 -1.0939 -0.0019 -1.4027
11017TIP3    H254467   1.140   5.937   0.285 -0.4879  0.7414  0.7488
11018TIP3   OH254468   1.498   3.562   2.799 -0.3758  0.3739  0.2768
11018TIP3    H154469   1.489   3.597   2.710  0.8964 -1.7840 -0.7396
11018TIP3    H254470   1.409   3.540   2.826 -0.5647 -0.8013 -1.2583
11019TIP3   OH254471   0.665   3.579   4.874 -0.0198  0.0309 -0.2765
11019TIP3    H154472   0.570   3.566   4.866  0.2007 -0.4876 -2.2510
11019TIP3    H254473   0.690   3.624   4.793  1.5671 -0.6531 -0.1784
11020TIP3   OH254474   5.751   5.627   1.899 -0.0629  0.0372 -0.1828
11020TIP3    H154475   5.844   5.625   1.874  0.0513 -0.2670  0.2576
11020TIP3    H254476   5.750   5.596   1.990 -0.6032 -0.0145 -0.2050
11021TIP3   OH254477   4.856   5.412   2.502  0.2990  0.0312 -0.2803
11021TIP3    H154478   4.873   5.507   2.503  1.8592 -0.1983 -2.1234
11021TIP3    H254479   4.820   5.394   2.589  1.1871  2.0967  0.5707
11022TIP3   OH254480   2.529   5.118  11.109  0.7582 -0.1638 -0.1907
11022TIP3    H154481   2.522   5.202  11.064 -0.3679  0.2585  0.7613
11022TIP3    H254482   2.443   5.104  11.148  1.2590 -1.2618  0.5406
11023TIP3   OH254483   3.160   1.212   2.652 -0.2209 -0.1914 -0.1737
11023TIP3    H154484   3.243   1.164   2.651 -0.7952 -1.2527  1.6316
11023TIP3    H254485   3.146   1.237   2.560  1.0773 -1.7563 -0.8312
11024TIP3   OH254486   3.559   2.283   0.504  0.0303 -0.4083 -0.3669
11024TIP3    H154487   3.500   2.212   0.478 -1.4068 -0.1227  1.9387
11024TIP3    H254488   3.585   2.261   0.594 -1.4540  2.5604  0.8764
11025TIP3   OH254489   6.505   0.327  11.317 -0.2688  0.1603  0.6498
11025TIP3    H154490   6.416   0.291  11.318 -0.5351  0.6491 -1.7184
11025TIP3    H254491   6.561   0.251  11.300 -0.2677 -0.0550  1.5737
11026TIP3   OH254492   0.495   3.169  16.453  0.4280  0.5937  0.1539
11026TIP3    H154493   0.428   3.227  16.490 -0.0656  0.5080 -0.5910
11026TIP3    H254494   0.577   3.215  16.468 -0.1182  2.4198 -2.1383
11027TIP3   OH254495   1.804   3.689   6.428 -0.2433 -0.0023 -0.2176
11027TIP3    H154496   1.856   3.756   6.471 -0.6334 -0.2513  0.6492
11027TIP3    H254497   1.719   3.731   6.410 -0.7738 -0.4985  1.0631
11028TIP3   OH254498   5.919   3.711  14.492  0.3195 -0.1198 -0.0195
11028TIP3    H154499   6.005   3.696  14.454 -0.7202  1.0742 -2.9854
11028TIP3    H254500   5.891   3.624  14.522  2.1064 -0.6807  0.0804
11029TIP3   OH254501   1.629   3.569   5.603  0.2301 -0.2985 -0.4500
11029TIP3    H154502   1.633   3.647   5.658  0.4567  0.0257 -0.9185
11029TIP3    H254503   1.653   3.600   5.515  1.9677 -1.1828 -0.3209
11030TIP3   OH254504   5.359   3.398  13.754 -0.4791  0.4601  0.0027
11030TIP3    H154505   5.364   3.476  13.698 -1.1102  0.5565  0.0712
11030TIP3    H254506   5.439   3.401  13.806  0.4339  0.0227 -1.3412
11031TIP3   OH254507   2.028   4.405   0.725  0.3882 -0.1112 -0.1237
11031TIP3    H154508   1.979   4.472   0.772  0.3252 -0.5289  0.4162
11031TIP3    H254509   1.995   4.408   0.636  0.8761  1.0520 -0.2764
11032TIP3   OH254510   5.024   6.553   2.600 -0.2611  0.2298  0.4988
11032TIP3    H154511   5.110   6.585   2.625 -1.4018  2.9794  1.0447
11032TIP3    H254512   4.968   6.571   2.675 -1.4209 -1.1581  0.0004
11033TIP3   OH254513   5.977   4.637  13.862  0.4343 -0.7139 -0.3034
11033TIP3    H154514   6.072   4.622  13.867  0.0769 -3.0035 -0.3089
11033TIP3    H254515   5.946   4.625  13.952  0.0479 -0.5348 -0.4083
11034TIP3   OH254516   0.747   5.507   1.828 -0.3228  0.4794  0.9645
11034TIP3    H154517   0.725   5.484   1.919  0.3591  1.6879  1.4489
11034TIP3    H254518   0.839   5.482   1.819 -1.2260 -2.6087 -0.4123
11035TIP3   OH254519   5.919   5.543  15.001 -0.2264 -0.1745 -0.3857
11035TIP3    H154520   5.907   5.448  15.002 -0.2891 -0.1657 -0.3602
11035TIP3    H254521   5.863   5.574  14.929 -1.0009 -0.0471  0.2632
11036TIP3   OH254522   5.189   1.814  13.109 -0.6256  0.3966 -0.1715
11036TIP3    H154523   5.099   1.794  13.136 -0.7505  1.0861 -0.0768
11036TIP3    H254524   5.210   1.896  13.154  0.7807 -0.8312  1.4668
11037TIP3   OH254525   2.459   5.222   5.712  0.2688 -0.3006 -0.0379
11037TIP3    H154526   2.398   5.263   5.650 -0.1079 -2.4495 -1.1216
11037TIP3    H254527   2.413   5.144   5.742  1.5534 -0.6950  0.9260
11038TIP3   OH254528   0.876   1.378   2.940 -0.1926  0.4419 -0.2355
11038TIP3    H154529   0.939   1.368   2.868 -1.2826 -0.1592 -1.1307
11038TIP3    H254530   0.875   1.292   2.982  0.4707  0.8051  0.5332
11039TIP3   OH254531   6.185   3.397  11.492 -0.7508 -0.0161 -0.5007
11039TIP3    H154532   6.159   3.403  11.401  0.0298  0.6713 -0.6877
11039TIP3    H254533   6.225   3.482  11.512  1.5984 -1.1218 -0.3353
11040TIP3   OH254534   2.138   0.330  15.710 -0.0356 -0.1695 -0.1043
11040TIP3    H154535   2.182   0.303  15.790  1.0473 -1.9992 -1.2829
11040TIP3    H254536   2.162   0.423  15.699  1.4354 -0.4514  0.6394
11041TIP3   OH254537   0.171   2.169  11.362  0.3578  0.9249  0.1948
11041TIP3    H154538   0.189   2.113  11.438 -1.2933  0.5645  0.3568
11041TIP3    H254539   0.200   2.117  11.287 -1.8681 -0.5537  0.2806
11042TIP3   OH254540   3.428   5.742  15.598  0.6339 -0.2284 -0.0385
11042TIP3    H154541   3.458   5.775  15.683  0.9637 -1.5233  0.3574
11042TIP3    H254542   3.440   5.647  15.604 -0.3437 -0.4254 -1.1391
11043TIP3   OH254543   1.710   2.243  13.208  0.6438  0.1273 -0.7286
11043TIP3    H154544   1.661   2.189  13.270 -0.5252  1.1004 -0.8004
11043TIP3    H254545   1.645   2.274  13.146  1.7924 -0.7964 -2.4402
11044TIP3   OH254546   0.906   5.887  15.396 -0.3984  0.0718  0.4624
11044TIP3    H154547   0.832   5.828  15.409 -0.3782 -0.0514  0.0348
11044TIP3    H254548   0.978   5.846  15.444  0.6278 -2.2235 -2.7864
11045TIP3   OH254549   2.998   5.931   6.694  0.7355  0.4518 -0.0290
11045TIP3    H154550   2.917   5.909   6.648  0.0345  0.7499  1.0358
11045TIP3    H254551   2.976   6.007   6.747  1.2738 -0.3754  1.4241
11046TIP3   OH254552   3.900   0.990  12.521 -0.3112  0.2695 -0.3120
11046TIP3    H154553   3.926   0.958  12.435 -1.6036 -0.7865 -0.3276
11046TIP3    H254554   3.805   0.986  12.521 -0.3685  1.1484  0.8358
11047TIP3   OH254555   6.261   4.285   3.263 -0.1706  0.3778  0.3204
11047TIP3    H154556   6.174   4.260   3.232 -0.1809 -0.0841  0.7179
11047TIP3    H254557   6.304   4.202   3.285  1.1723  0.4471 -1.9404
11048TIP3   OH254558   3.851   2.474   5.879 -0.0323 -0.0164  0.6548
11048TIP3    H154559   3.922   2.458   5.817  0.3271  0.3549  0.9623
11048TIP3    H254560   3.849   2.569   5.889 -0.4540 -0.0375  0.7888
11049TIP3   OH254561   4.858   6.491   0.453  0.2642  0.4848  0.3302
11049TIP3    H154562   4.920   6.543   0.506  0.8924 -0.6195  0.7083
11049TIP3    H254563   4.776   6.496   0.501  0.0152  2.0449 -0.2217
11050TIP3   OH254564   1.814   0.319   6.078  0.7996  0.4305 -0.8872
11050TIP3    H154565   1.868   0.376   6.133  1.4720 -0.5248 -0.5432
11050TIP3    H254566   1.753   0.278   6.138  2.1777 -1.3592 -0.6838
11051TIP3   OH254567   2.596   0.941  16.117  0.1997  0.2246  0.2280
11051TIP3    H154568   2.584   1.031  16.087  3.6280  0.3832 -0.9690
11051TIP3    H254569   2.684   0.918  16.087 -0.6161 -3.5545  0.4682
11052TIP3   OH254570   3.032   4.567   1.257 -0.1410  0.5026  0.0874
11052TIP3    H154571   3.096   4.501   1.233 -0.1245  0.2050  0.9378
11052TIP3    H254572   3.075   4.651   1.241  0.2657  0.3013  0.1444
11053TIP3   OH254573   0.533   2.558  15.048 -0.7049  0.4713  0.2289
11053TIP3    H154574   0.535   2.493  14.978  4.4328  0.8282 -0.0838
11053TIP3    H254575   0.497   2.637  15.006 -1.2173 -0.3748 -0.9584
11054TIP3   OH254576   1.280   3.493   5.756 -0.2446 -0.0051  0.7133
11054TIP3    H154577   1.281   3.420   5.694  1.1062  0.1532  0.5497
11054TIP3    H254578   1.271   3.451   5.841 -2.7956 -0.1938  0.3933
11055TIP3   OH254579   3.986   1.336  11.088 -0.5903  0.2174 -0.8095
11055TIP3    H154580   3.980   1.345  10.992  0.2006  0.7835 -0.8181
11055TIP3    H254581   3.986   1.426  11.120 -0.3857  0.0403 -0.3130
11056TIP3   OH254582   4.182   6.011   0.413 -0.4131  0.1914 -0.2081
11056TIP3    H154583   4.164   5.977   0.325 -0.8108  0.6655 -0.3099
11056TIP3    H254584   4.150   5.942   0.472  0.1965 -0.2925 -0.4393
11057TIP3   OH254585   2.603   0.260   0.390  0.4364  0.3273 -0.2254
11057TIP3    H154586   2.546   0.200   0.342  0.4118 -0.1859  0.4428
11057TIP3    H254587   2.561   0.346   0.381  0.5355  0.2734 -1.2883
11058TIP3   OH254588   2.442   4.277  12.148 -0.1477 -0.4047  0.0446
11058TIP3    H154589   2.505   4.347  12.161 -0.7947  0.3571 -0.7951
11058TIP3    H254590   2.425   4.277  12.054 -1.0607 -0.8851  0.1973
11059TIP3   OH254591   6.558   1.973  11.141 -0.2404 -0.5126  0.2665
11059TIP3    H154592   6.649   2.000  11.126 -0.8515  1.4451 -0.0522
11059TIP3    H254593   6.562   1.878  11.149  1.6759 -0.5545 -0.9343
11060TIP3   OH254594   0.104   6.075  11.750  0.2720 -0.2153  0.1408
11060TIP3    H154595   0.064   6.145  11.801 -0.6572 -1.9941  1.9225
11060TIP3    H254596   0.031   6.023  11.718  0.8617  0.6680 -2.7957
11061TIP3   OH254597   2.095   0.367   0.309 -0.0900 -0.3165  0.6587
11061TIP3    H154598   2.119   0.456   0.333  1.1213 -0.7028  0.9181
11061TIP3    H254599   2.070   0.373   0.217  0.0783  0.2709  0.6491
11062TIP3   OH254600   0.529   4.723   4.309  0.1672  0.3147  0.4305
11062TIP3    H154601   0.496   4.714   4.398 -0.2443 -1.0079  0.1596
11062TIP3    H254602   0.503   4.811   4.282 -0.1054  0.5494  1.4571
11063TIP3   OH254603   3.334   3.739  14.996  0.6319 -0.1719 -0.1257
11063TIP3    H154604   3.246   3.713  14.968  1.2427 -1.6776 -0.7355
11063TIP3    H254605   3.366   3.795  14.926 -0.2232  1.2496  0.5950
11064TIP3   OH254606   4.959   0.283   6.581  0.4477  0.1598  0.2972
11064TIP3    H154607   5.014   0.353   6.616  0.4908  0.0249  0.4972
11064TIP3    H254608   4.973   0.209   6.640  0.8533 -0.2021 -0.2600
11065TIP3   OH254609   6.684   5.978   3.868 -0.1820 -0.2499 -0.3227
11065TIP3    H154610   6.648   6.015   3.949 -1.0012 -1.7333  0.0253
11065TIP3    H254611   6.608   5.938   3.825  0.3419  0.0897 -1.5816
11066TIP3   OH254612   6.567   5.470   2.930 -0.0364 -0.4583 -0.4058
11066TIP3    H154613   6.544   5.391   2.880  1.1031 -1.3631  0.4640
11066TIP3    H254614   6.502   5.472   3.000  0.7376 -1.3861  0.3533
11067TIP3   OH254615   0.996   2.548  16.249  0.2473  0.4683  0.3645
11067TIP3    H154616   0.944   2.557  16.328  0.8844 -1.9295  1.0888
11067TIP3    H254617   0.982   2.630  16.202 -0.7973  1.5883  2.5483
11068TIP3   OH254618   6.739   2.704  14.398 -0.8420  0.3363 -0.2263
11068TIP3    H154619   6.812   2.736  14.451  0.2706 -3.1301  0.4772
11068TIP3    H254620   6.661   2.743  14.437  0.4834  2.9292 -0.0800
11069TIP3   OH254621   5.812   1.499   0.231  0.6799 -0.1314 -0.3730
11069TIP3    H154622   5.853   1.584   0.245  1.9827 -0.9278  0.8342
11069TIP3    H254623   5.718   1.514   0.245  0.8297  1.2337 -0.8292
11070TIP3   OH254624   3.129   0.164  11.545 -0.7044 -0.0560 -0.1364
11070TIP3    H154625   3.142   0.205  11.460 -1.1331 -1.7117 -1.0167
11070TIP3    H254626   3.175   0.080  11.539  1.1721  0.7759  2.0425
11071TIP3   OH254627   4.720   3.313  11.262  0.0901  0.3401  0.0003
11071TIP3    H154628   4.698   3.261  11.184  2.1644  1.5777 -1.4581
11071TIP3    H254629   4.694   3.257  11.336 -0.1055 -1.6823 -1.5489
11072TIP3   OH254630   4.643   2.019  12.117 -0.3919  0.9207 -0.2572
11072TIP3    H154631   4.641   2.020  12.021  1.0822  4.5595 -0.3037
11072TIP3    H254632   4.727   1.979  12.139 -1.3137 -1.2009 -0.3831
11073TIP3   OH254633   0.309   2.785   4.070 -0.1606  0.8535 -1.0916
11073TIP3    H154634   0.227   2.751   4.034 -0.0661 -2.2170  1.3937
11073TIP3    H254635   0.377   2.726   4.037  0.2965 -0.1206  1.4940
11074TIP3   OH254636   1.418   3.298  14.018  0.2918  0.0332 -0.4419
11074TIP3    H154637   1.445   3.389  14.024  0.6982 -0.2582  2.4832
11074TIP3    H254638   1.480   3.260  13.955  0.2262  1.6890 -1.5534
11075TIP3   OH254639   1.257   0.544   3.875 -0.2088  0.1104 -0.4689
11075TIP3    H154640   1.287   0.593   3.798 -1.8701  1.1713 -0.4546
11075TIP3    H254641   1.234   0.457   3.841 -1.2308  0.6698 -1.2380
11076TIP3   OH254642   4.575   2.490  11.005 -0.3705 -0.2543  0.2386
11076TIP3    H154643   4.568   2.572  10.956 -2.4928 -0.7623 -0.3816
11076TIP3    H254644   4.519   2.429  10.957 -0.5025 -1.4534  1.8918
11077TIP3   OH254645   1.242   5.183  11.199 -0.0115 -0.5295 -0.1443
11077TIP3    H154646   1.155   5.186  11.239  0.2439 -1.7190  0.5308
11077TIP3    H254647   1.248   5.263  11.147 -1.1898 -0.0357  0.4720
11078TIP3   OH254648   6.262   2.599  17.191  0.1380  0.4830 -0.5343
11078TIP3    H154649   6.304   2.537  17.250  1.5749  1.8535 -0.1045
11078TIP3    H254650   6.174   2.612  17.228 -0.5138 -1.9603 -1.1291
11079TIP3   OH254651   5.550   1.673   4.400  0.2367  0.0381  0.0585
11079TIP3    H154652   5.632   1.684   4.352 -0.1808 -0.6751 -0.8266
11079TIP3    H254653   5.576   1.637   4.484  0.6960 -1.6579 -0.7965
11080TIP3   OH254654   0.002   6.393  15.485 -0.0323 -0.5745 -0.1855
11080TIP3    H154655  -0.054   6.461  15.522  1.0334  0.4043 -0.3276
11080TIP3    H254656  -0.024   6.312  15.531  0.0278  0.2836  1.3953
11081TIP3   OH254657   1.986   4.224   5.954  0.7300 -0.0706  0.1212
11081TIP3    H154658   2.056   4.159   5.960 -0.1470 -1.0011  0.4528
11081TIP3    H254659   1.994   4.276   6.034 -0.7981 -2.0868  1.6341
11082TIP3   OH254660   4.808   0.190  14.474 -0.0112 -0.5831 -0.3313
11082TIP3    H154661   4.724   0.147  14.460 -0.7243  0.1014  1.6896
11082TIP3    H254662   4.799   0.232  14.560  1.9967  0.4233 -0.5997
11083TIP3   OH254663   6.245   4.770  12.107  0.5732 -0.1294  0.2358
11083TIP3    H154664   6.196   4.745  12.028 -0.8435 -0.4290  1.1910
11083TIP3    H254665   6.277   4.859  12.088 -1.6267  0.6836  0.1558
11084TIP3   OH254666   2.810   3.662  12.066  0.0189  0.0604 -0.9874
11084TIP3    H154667   2.772   3.637  11.982 -1.7750  1.4165 -0.5921
11084TIP3    H254668   2.775   3.749  12.083  1.1077  0.1733  0.7381
11085TIP3   OH254669   4.187   0.212  14.348 -0.5179  0.2085 -0.4383
11085TIP3    H154670   4.176   0.190  14.256  2.1592 -0.9048 -0.5487
11085TIP3    H254671   4.243   0.290  14.348  1.4907 -1.1839  0.2446
11086TIP3   OH254672   0.316   3.928  11.196 -0.3372  0.4712  0.1830
11086TIP3    H154673   0.357   4.002  11.240  0.6132 -0.7185  1.3350
11086TIP3    H254674   0.345   3.935  11.105  0.6375  0.8915  0.5160
11087TIP3   OH254675   4.437   2.888  17.197  0.0441  0.1500  1.0120
11087TIP3    H154676   4.379   2.813  17.205 -0.7857  0.5801 -0.8558
11087TIP3    H254677   4.525   2.851  17.198 -0.2044 -0.5074  3.8275
11088TIP3   OH254678   4.765   6.224  15.405  0.3020  0.3210 -0.0242
11088TIP3    H154679   4.705   6.191  15.338  0.4766  0.4678 -0.2526
11088TIP3    H254680   4.800   6.305  15.369  3.2867 -1.4898 -1.4458
11089TIP3   OH254681   3.956   2.854  15.406  0.1297 -0.4374 -0.2368
11089TIP3    H154682   3.916   2.835  15.491  0.5459 -0.3745 -0.0288
11089TIP3    H254683   3.979   2.946  15.410  0.3037 -0.4757 -0.3589
11090TIP3   OH254684   3.325   2.857  14.722  0.3485  0.6598  0.4123
11090TIP3    H154685   3.284   2.878  14.806 -0.6498  0.1051  0.0637
11090TIP3    H254686   3.256   2.869  14.657  0.5081 -1.0254 -0.0917
11091TIP3   OH254687   0.749   4.787  14.765  0.4511  0.2038 -0.2054
11091TIP3    H154688   0.667   4.820  14.727  0.4170 -0.3025 -0.5775
11091TIP3    H254689   0.771   4.712  14.711  0.8695  0.0032  0.2476
11092TIP3   OH254690   3.126   6.221  13.335 -0.5380 -0.1608 -0.1106
11092TIP3    H154691   3.084   6.224  13.249 -0.7970  0.5685  0.0360
11092TIP3    H254692   3.206   6.171  13.321 -0.8704 -0.5583 -0.6470
11093TIP3   OH254693   4.302   5.368   3.597 -0.0424 -0.1343  0.1593
11093TIP3    H154694   4.269   5.366   3.508 -0.1161  0.7072  0.1635
11093TIP3    H254695   4.233   5.411   3.648  0.0859 -0.4200  0.5774
11094TIP3   OH254696   5.474   0.483  17.189 -0.1348 -0.5554 -0.4173
11094TIP3    H154697   5.463   0.392  17.217 -0.1002 -0.9042 -1.5360
11094TIP3    H254698   5.565   0.504  17.210 -1.0209  0.3062  2.9389
11095TIP3   OH254699   5.888   6.244   0.391  0.6699 -0.4057 -0.4607
11095TIP3    H154700   5.884   6.175   0.325 -2.2327 -0.5035 -0.2346
11095TIP3    H254701   5.838   6.209   0.465  2.0544  0.5811  0.9791
11096TIP3   OH254702   0.629   6.229  15.540  0.2906 -0.4119  0.2774
11096TIP3    H154703   0.572   6.201  15.468 -0.4420 -2.1277  1.4709
11096TIP3    H254704   0.716   6.200  15.515 -0.2623 -2.7337  0.9119
11097TIP3   OH254705   1.154   0.885   0.331 -0.2001 -0.2054 -0.6735
11097TIP3    H154706   1.236   0.925   0.304 -1.0325  0.8482 -1.6855
11097TIP3    H254707   1.097   0.958   0.355 -1.1778 -0.8605 -0.9478
11098TIP3   OH254708   3.662   5.767   5.248  0.3328 -0.1962 -0.0953
11098TIP3    H154709   3.729   5.701   5.232  0.0314 -0.6659  0.5452
11098TIP3    H254710   3.587   5.718   5.281  0.5147  0.5785  1.5551
11099TIP3   OH254711   2.702   3.169  13.636  0.3708 -0.3578 -0.5729
11099TIP3    H154712   2.780   3.222  13.650 -0.2287  0.0771  1.2766
11099TIP3    H254713   2.638   3.230  13.600  0.6938 -0.5814 -1.5360
11100TIP3   OH254714   5.858   4.641  12.154 -0.2229  0.2926 -0.5127
11100TIP3    H154715   5.772   4.630  12.194 -0.4178 -1.4260 -1.3796
11100TIP3    H254716   5.914   4.673  12.225 -0.8571 -1.5488  0.8445
11101TIP3   OH254717   2.758   5.115  12.086 -0.6080  0.2307 -0.1435
11101TIP3    H154718   2.726   5.096  12.174  1.3945 -0.3479  0.4986
11101TIP3    H254719   2.764   5.211  12.083 -1.2551  0.2808  0.1355
11102TIP3   OH254720   3.504   5.204   4.593 -0.2991  0.4870 -0.0226
11102TIP3    H154721   3.543   5.121   4.621  1.9747  1.1069 -1.1955
11102TIP3    H254722   3.506   5.259   4.672  0.9734  0.4137  0.0045
11103TIP3   OH254723   4.167   1.592   1.147 -0.0626 -0.5633  0.4238
11103TIP3    H154724   4.132   1.572   1.234 -2.0031 -1.0378 -0.4334
11103TIP3    H254725   4.242   1.534   1.138  0.1176 -0.5552  1.7600
11104TIP3   OH254726   1.608   5.015   2.572  0.7715  0.3167 -0.3758
11104TIP3    H154727   1.681   5.056   2.526  1.3674  0.5198  0.7135
11104TIP3    H254728   1.561   4.965   2.505  0.6321  1.9523 -1.5121
11105TIP3   OH254729   1.422   0.168  16.175  0.5372 -0.6526  0.5312
11105TIP3    H154730   1.445   0.080  16.146  0.0904 -1.2542  1.9447
11105TIP3    H254731   1.340   0.188  16.131 -0.5878 -1.9031  2.0132
11106TIP3   OH254732   0.159   6.093   5.010 -0.2359  0.6923  0.3913
11106TIP3    H154733   0.189   6.174   4.967 -0.0981  0.7978  0.6814
11106TIP3    H254734   0.148   6.031   4.939  0.4517  0.7263  0.2467
11107TIP3   OH254735   2.135   0.752  11.262  0.5919  0.5257 -0.3165
11107TIP3    H154736   2.122   0.761  11.356 -1.0262 -1.1210 -0.3659
11107TIP3    H254737   2.049   0.767  11.224  0.6765 -1.3700 -1.3234
11108TIP3   OH254738   4.820   6.124   4.347  0.2299 -0.4904  0.3557
11108TIP3    H154739   4.864   6.158   4.269  0.4566  2.3078  1.6520
11108TIP3    H254740   4.761   6.056   4.313  0.2159  0.7684 -2.2741
11109TIP3   OH254741   1.197   1.445   3.143  0.0516 -0.1494  0.0343
11109TIP3    H154742   1.226   1.489   3.063  0.1060 -0.5826 -0.1866
11109TIP3    H254743   1.156   1.364   3.112 -0.6920  0.0825  0.3890
11110TIP3   OH254744   3.075   2.044  12.072 -1.2861  0.1726 -0.2788
11110TIP3    H154745   3.168   2.035  12.053 -1.4068 -0.5728 -0.5315
11110TIP3    H254746   3.040   2.097  12.000 -0.8219  1.5677  0.5026
11111TIP3   OH254747   1.267   6.488   6.405 -0.9847  0.3552  0.0791
11111TIP3    H154748   1.298   6.560   6.460  0.6064 -0.9309  0.9224
11111TIP3    H254749   1.340   6.470   6.346 -1.8382  0.2322 -0.9477
11112TIP3   OH254750   4.795   1.226   1.395  0.0748  0.0605  0.0367
11112TIP3    H154751   4.834   1.304   1.433  1.1319 -0.6855  0.4784
11112TIP3    H254752   4.796   1.161   1.465 -2.0192  0.0336  0.0910
11113TIP3   OH254753   3.994   0.604   0.927 -0.0766 -0.2438 -0.4615
11113TIP3    H154754   3.902   0.586   0.908 -0.0907  0.3593 -0.9790
11113TIP3    H254755   3.992   0.665   1.001 -0.0829 -0.4526 -0.2881
11114TIP3   OH254756   4.450   6.486  11.996  0.0437  0.2109  0.2529
11114TIP3    H154757   4.501   6.411  11.966 -2.0659 -1.3472  0.4035
11114TIP3    H254758   4.438   6.540  11.918 -0.0111 -0.5632 -0.2760
11115TIP3   OH254759   4.448   3.538  15.997  0.0658 -0.5021 -0.3673
11115TIP3    H154760   4.511   3.483  16.044 -0.1495 -0.7958 -0.4173
11115TIP3    H254761   4.373   3.481  15.982 -0.7547  0.2369  0.8680
11116TIP3   OH254762   1.383   0.902   4.408 -0.1308 -0.0967  0.2405
11116TIP3    H154763   1.412   0.899   4.499 -0.7273 -1.5811  0.3978
11116TIP3    H254764   1.287   0.898   4.413 -0.1335 -0.9388 -0.4802
11117TIP3   OH254765   6.606   4.591  11.125  0.2840 -0.1005  0.0274
11117TIP3    H154766   6.597   4.678  11.163 -1.7230 -1.0732  1.9179
11117TIP3    H254767   6.638   4.606  11.036 -1.4464  2.6506 -0.1796
11118TIP3   OH254768   2.742   1.272  14.452 -0.6773 -0.0136  0.2889
11118TIP3    H154769   2.651   1.249  14.471 -0.8441  0.6079  0.2576
11118TIP3    H254770   2.786   1.188  14.439 -1.4585 -0.2879 -0.6492
11119TIP3   OH254771   4.714   2.775  14.613  0.6753  0.0494 -0.0049
11119TIP3    H154772   4.803   2.778  14.647  1.2918 -0.4974 -1.5104
11119TIP3    H254773   4.705   2.686  14.577 -0.9532 -0.3722  1.3699
11120TIP3   OH254774   4.084   6.215   0.611  0.0023  0.2518  0.0766
11120TIP3    H154775   4.136   6.230   0.689 -2.1999  1.6278  1.3324
11120TIP3    H254776   4.116   6.132   0.576  0.1923 -1.0073  3.1215
11121TIP3   OH254777   4.159   3.261  15.702 -0.0434  0.0440  0.0600
11121TIP3    H154778   4.197   3.192  15.757 -0.2178 -0.4079 -0.3805
11121TIP3    H254779   4.171   3.229  15.613 -0.1288  0.5889 -0.1464
11122TIP3   OH254780   4.823   6.188  11.228  0.3987 -0.5665  0.2186
11122TIP3    H154781   4.737   6.154  11.203 -0.0361  0.4027  0.3523
11122TIP3    H254782   4.843   6.145  11.311  0.0165 -0.7583  0.2103
11123TIP3   OH254783   4.314   6.204  16.946  0.3083 -0.3254  0.0740
11123TIP3    H154784   4.300   6.257  17.025  2.3410 -0.3704  0.4931
11123TIP3    H254785   4.409   6.209  16.930 -0.2863  1.0866 -3.3602
11124TIP3   OH254786   4.734   6.599  15.045 -0.4012  0.0544 -0.9754
11124TIP3    H154787   4.664   6.664  15.046 -0.6989 -0.2629 -1.1186
11124TIP3    H254788   4.815   6.651  15.048 -0.6531  0.3448  2.7896
11125TIP3   OH254789   4.159   6.729   3.121 -0.2432  0.0911  0.2623
11125TIP3    H154790   4.131   6.820   3.120 -0.1328  0.1189 -1.0402
11125TIP3    H254791   4.254   6.732   3.118 -0.1112 -0.0356  3.0579
11126TIP3   OH254792   6.607   2.984   2.082 -0.5340  0.2794  0.0260
11126TIP3    H154793   6.608   3.010   1.989 -0.8165  0.9098  0.1943
11126TIP3    H254794   6.514   2.984   2.105 -0.3185  3.1864  1.1449
11127TIP3   OH254795   2.451   4.795  14.373  0.5445 -0.3845 -0.7482
11127TIP3    H154796   2.399   4.764  14.299 -0.1776 -0.0404 -0.3948
11127TIP3    H254797   2.438   4.728  14.441  0.4969 -0.2601 -0.6339
11128TIP3   OH254798   6.076   3.844  11.747 -0.8589 -0.0776  0.5230
11128TIP3    H154799   6.085   3.760  11.792 -1.4650 -0.4432 -0.0247
11128TIP3    H254800   6.147   3.844  11.683 -1.5391 -0.6766 -0.2483
11129TIP3   OH254801   4.210   6.154  11.819 -0.4164  0.5717 -0.0734
11129TIP3    H154802   4.191   6.212  11.893 -2.3394  0.4282 -0.4145
11129TIP3    H254803   4.275   6.092  11.853  0.1083  1.6606  0.9221
11130TIP3   OH254804   3.290   2.700   1.339 -0.4975  0.3301 -0.1788
11130TIP3    H154805   3.210   2.752   1.332 -0.1271  1.0120  0.5971
11130TIP3    H254806   3.343   2.728   1.264  0.5103  2.4870  1.3067
11131TIP3   OH254807   5.943   0.912  14.412  0.3774  0.2685 -1.1642
11131TIP3    H154808   5.970   0.925  14.503 -1.7961 -0.0453 -0.4492
11131TIP3    H254809   5.982   0.828  14.387 -1.7052 -1.2887  0.5812
11132TIP3   OH254810   5.952   4.101  12.578  0.0242 -0.9610  0.4780
11132TIP3    H154811   5.862   4.074  12.596  0.0336 -1.4794 -0.2664
11132TIP3    H254812   5.984   4.133  12.663 -1.3298  0.6051  0.4263
11133TIP3   OH254813   4.233   2.053   2.077 -0.2153  0.6949 -0.0076
11133TIP3    H154814   4.214   2.118   2.009 -0.9496 -0.3238 -0.8019
11133TIP3    H254815   4.262   1.976   2.028  2.6163  1.0497  1.0038
11134TIP3   OH254816   0.381   4.855  12.589 -0.6989  0.1931 -0.1978
11134TIP3    H154817   0.361   4.787  12.654 -1.9017  0.1114 -0.6345
11134TIP3    H254818   0.318   4.840  12.519  0.8341  0.0479 -1.5743
11135TIP3   OH254819   5.651   3.695  11.758  0.1354 -0.7426 -0.1826
11135TIP3    H154820   5.699   3.776  11.773 -0.5677 -0.6502  1.7582
11135TIP3    H254821   5.574   3.722  11.707 -0.4359 -0.0582  1.0150
11136TIP3   OH254822   4.313   4.680  12.907  0.2276  0.1391 -0.4391
11136TIP3    H154823   4.263   4.702  12.829  2.8038  0.0356 -2.1777
11136TIP3    H254824   4.330   4.586  12.900 -1.0642 -0.2305  1.1834
11137TIP3   OH254825   4.552   5.196   2.691 -0.3817  0.5557 -0.0319
11137TIP3    H154826   4.520   5.281   2.719  1.5873  0.8249  1.5405
11137TIP3    H254827   4.533   5.138   2.764  0.5204  0.2081 -0.0582
11138TIP3   OH254828   6.317   3.846   2.684 -0.4119 -0.3915  0.7600
11138TIP3    H154829   6.321   3.939   2.661 -3.9031  0.6324  3.7729
11138TIP3    H254830   6.395   3.831   2.739  0.7963  0.4148 -0.7037
11139TIP3   OH254831   2.257   1.244  16.240  0.7065 -0.1680  0.1776
11139TIP3    H154832   2.237   1.248  16.333 -0.9835 -0.2953 -0.1652
11139TIP3    H254833   2.253   1.335  16.211 -0.3254 -0.2861 -0.0744
11140TIP3   OH254834   3.393   4.641   2.729  0.4856  0.3339  0.2580
11140TIP3    H154835   3.476   4.607   2.761  0.8904 -0.8713 -2.0049
11140TIP3    H254836   3.329   4.612   2.794  1.7162  0.7101  1.6725
11141TIP3   OH254837   6.221   6.691  13.671  0.6208  0.2507  0.1163
11141TIP3    H154838   6.256   6.615  13.717  1.4547  0.3146 -0.4023
11141TIP3    H254839   6.158   6.654  13.609 -0.0055  0.1074  0.8327
11142TIP3   OH254840   1.854   1.929  10.596 -0.3285  0.6343  0.2235
11142TIP3    H154841   1.933   1.981  10.580 -1.0571  1.5393 -0.4909
11142TIP3    H254842   1.811   1.974  10.669  0.0234 -0.1040  0.8950
11143TIP3   OH254843   4.615   1.751   5.176  0.3814 -0.5624  0.1315
11143TIP3    H154844   4.589   1.678   5.119  2.4867 -0.1529 -1.3919
11143TIP3    H254845   4.707   1.735   5.195 -0.1396 -0.3394  2.9635
11144TIP3   OH254846   0.152   4.645  14.649 -0.0849 -0.0399 -0.1762
11144TIP3    H154847   0.180   4.681  14.566 -0.7193 -0.8692 -0.7600
11144TIP3    H254848   0.229   4.598  14.682  0.1120  0.1479 -0.3717
11145TIP3   OH254849   4.548   5.696   4.179  1.1044 -0.2187  0.1259
11145TIP3    H154850   4.520   5.783   4.208  1.0626  0.5694 -2.1653
11145TIP3    H254851   4.505   5.636   4.241 -2.0801  1.1931 -0.5849
11146TIP3   OH254852   6.392   6.250   1.266 -0.3345 -0.1708 -0.0713
11146TIP3    H154853   6.471   6.283   1.308 -0.8361  1.2690 -0.2389
11146TIP3    H254854   6.349   6.198   1.334  0.4436 -0.4588  0.2083
11147TIP3   OH254855   0.062   4.138   4.527 -0.1929 -0.4656 -0.6488
11147TIP3    H154856  -0.022   4.180   4.547  0.6076  0.8390  0.0625
11147TIP3    H254857   0.041   4.045   4.517 -1.3884 -0.4775  1.6720
11148TIP3   OH254858   3.403   5.842  17.044 -0.4306 -0.1530  0.0441
11148TIP3    H154859   3.382   5.832  17.137 -0.1064 -0.5033  0.0798
11148TIP3    H254860   3.383   5.757  17.005 -0.5917  0.0006 -0.2132
11149TIP3   OH254861   2.229   2.856  16.366  0.2876  0.6081 -0.1054
11149TIP3    H154862   2.264   2.907  16.293 -0.4807  1.5880  0.2141
11149TIP3    H254863   2.276   2.889  16.443 -0.8055  1.4247  0.2209
11150TIP3   OH254864   3.420   2.084   4.632  0.3842  0.1902 -0.0382
11150TIP3    H154865   3.432   2.112   4.722 -2.1871 -0.0887  0.4213
11150TIP3    H254866   3.487   2.017   4.618  0.9184  0.3764  1.5992
11151TIP3   OH254867   1.277   1.941   2.271 -0.6920  0.1311  0.0162
11151TIP3    H154868   1.270   1.946   2.366 -1.0906 -2.1288  0.1452
11151TIP3    H254869   1.347   1.878   2.256  1.1781  2.4350 -1.2237
11152TIP3   OH254870   5.289   0.967  13.476 -0.2098  0.3541  0.0664
11152TIP3    H154871   5.243   0.885  13.460  0.6057  0.1305 -1.1884
11152TIP3    H254872   5.340   0.952  13.555 -0.2127 -0.2722 -0.0541
11153TIP3   OH254873   1.043   4.882   1.616 -0.6391  0.0863 -0.0514
11153TIP3    H154874   1.112   4.847   1.673 -0.1675  3.0010  1.2881
11153TIP3    H254875   1.084   4.889   1.530  0.1848  0.1116  0.3346
11154TIP3   OH254876   1.608   2.043   0.407  0.3679  0.4477  0.1860
11154TIP3    H154877   1.542   2.061   0.474  0.6266  1.2751  0.2295
11154TIP3    H254878   1.619   1.948   0.409 -0.2183  0.3869  0.7527
11155TIP3   OH254879   3.062   5.674   2.651  0.4710 -0.4441  0.1737
11155TIP3    H154880   2.968   5.679   2.668  0.3385 -1.4078 -0.2600
11155TIP3    H254881   3.088   5.765   2.633 -0.0788  0.0584  1.8037
11156TIP3   OH254882   6.510   1.917  16.980 -0.5247 -0.1303 -0.0657
11156TIP3    H154883   6.512   1.976  16.904 -0.8356  0.4578  0.3800
11156TIP3    H254884   6.495   1.975  17.055  0.7766 -0.5885  0.5662
11157TIP3   OH254885   2.556   5.173   5.219  0.3355  0.2877 -0.6835
11157TIP3    H154886   2.504   5.092   5.213 -0.0891  0.5348 -0.3615
11157TIP3    H254887   2.630   5.158   5.160 -0.5333  0.2655 -1.7782
11158TIP3   OH254888   5.308   0.591   0.176  0.1285  0.3140  0.3567
11158TIP3    H154889   5.334   0.506   0.212  1.0109  0.9820  1.3186
11158TIP3    H254890   5.340   0.589   0.086 -2.2583 -1.4462 -0.5196
11159TIP3   OH254891   1.043   2.499  15.619 -0.2365  0.0136 -0.4247
11159TIP3    H154892   1.096   2.578  15.620 -0.5693  0.3497 -3.5290
11159TIP3    H254893   1.106   2.428  15.610 -0.1084  0.1489 -0.5881
11160TIP3   OH254894   1.816   0.940   3.918  0.5481 -0.0561  0.2542
11160TIP3    H154895   1.816   0.959   3.824  1.2285 -0.1219  0.2398
11160TIP3    H254896   1.765   0.860   3.926 -0.8232  0.7841  0.1172
11161TIP3   OH254897   1.977   4.003  15.244  0.6126  0.4677 -0.1790
11161TIP3    H154898   2.009   4.085  15.281 -1.5215  1.3756 -0.2829
11161TIP3    H254899   1.916   4.030  15.175 -0.6824 -1.1772  0.2774
11162TIP3   OH254900   5.349   3.472  17.122  0.5301  0.3644 -0.0585
11162TIP3    H154901   5.441   3.446  17.127 -0.1858 -1.9449  2.3447
11162TIP3    H254902   5.334   3.491  17.029  2.7297 -1.8923 -0.9285
11163TIP3   OH254903   4.436   3.620  13.177  0.0082 -0.1935 -0.5021
11163TIP3    H154904   4.486   3.626  13.259  0.6489 -1.3611 -0.8011
11163TIP3    H254905   4.497   3.580  13.115 -0.1878  1.4511 -1.7886
11164TIP3   OH254906   2.830   0.992   1.381 -0.1055  0.8643  0.2020
11164TIP3    H154907   2.840   1.083   1.354 -1.7345  1.4242  1.4188
11164TIP3    H254908   2.886   0.983   1.458  1.1468  0.4317 -0.7309
11165TIP3   OH254909   3.219   1.049   1.394  0.2675  0.1479  0.3592
11165TIP3    H154910   3.177   1.134   1.384  0.0465  0.1359  1.1910
11165TIP3    H254911   3.267   1.036   1.312 -1.4156  0.1195 -0.6336
11166TIP3   OH254912   3.586   2.594  12.188 -0.6242 -0.2178  0.1782
11166TIP3    H154913   3.578   2.687  12.211 -1.6923 -0.2937  0.1371
11166TIP3    H254914   3.496   2.561  12.194 -0.4352 -0.9533 -1.0487
11167TIP3   OH254915   6.535   1.715   1.131 -0.0157 -0.7266  0.3868
11167TIP3    H154916   6.545   1.759   1.046 -0.1002 -0.6727  0.4042
11167TIP3    H254917   6.466   1.765   1.175  1.4571  0.5366  1.3252
11168TIP3   OH254918   1.547   5.405  14.757  0.1959  0.3408 -0.1450
11168TIP3    H154919   1.492   5.475  14.723  0.3407  0.9113  0.7929
11168TIP3    H254920   1.485   5.336  14.782  0.0440  0.2078 -0.8647
11169TIP3   OH254921   6.675   3.730  12.065 -0.2151  0.2774  0.3540
11169TIP3    H154922   6.696   3.822  12.049 -1.5494  0.2489 -1.6624
11169TIP3    H254923   6.589   3.717  12.025  0.0710 -1.9279  0.3754
11170TIP3   OH254924   4.524   2.162  15.459  0.2644 -1.2579 -0.3771
11170TIP3    H154925   4.432   2.144  15.436  0.1577 -0.2283 -0.7749
11170TIP3    H254926   4.520   2.240  15.514  1.0885  0.1656 -2.2951
11171TIP3   OH254927   6.600   3.978   4.906 -0.0691 -0.1622  0.0897
11171TIP3    H154928   6.614   3.916   4.978  1.2112  0.1571  0.1294
11171TIP3    H254929   6.547   3.930   4.843 -1.0874 -0.4957  1.1821
11172TIP3   OH254930   0.072   2.995   3.445  0.6187 -0.8105 -0.3703
11172TIP3    H154931   0.141   2.929   3.451  0.5768 -0.7866  0.5087
11172TIP3    H254932   0.003   2.954   3.394  1.1223 -0.9741 -0.9314
11173TIP3   OH254933   5.804   4.961  13.959 -0.0018  0.1129 -0.1913
11173TIP3    H154934   5.768   4.875  13.938 -0.2844  0.3960 -0.9223
11173TIP3    H254935   5.745   4.997  14.025  1.0348 -0.8961  1.3184
11174TIP3   OH254936   0.400   5.690   4.812  0.4868  0.8593 -0.2465
11174TIP3    H154937   0.419   5.650   4.727 -1.5495 -1.4521  0.3277
11174TIP3    H254938   0.450   5.637   4.875 -0.1553  0.8211  0.2430
11175TIP3   OH254939   1.253   2.210   4.041 -0.1971 -0.3199 -0.4482
11175TIP3    H154940   1.247   2.173   4.129  1.0172 -0.6146 -0.4728
11175TIP3    H254941   1.263   2.304   4.055 -0.8491 -0.2677 -0.3073
11176TIP3   OH254942   4.322   5.144  12.760 -0.0143  0.0071 -0.4698
11176TIP3    H154943   4.235   5.168  12.793  1.0677  1.1465  1.6412
11176TIP3    H254944   4.333   5.196  12.681 -0.2882  1.7135  0.5973
11177TIP3   OH254945   1.600   0.106   1.429 -0.1725 -0.8632  0.4164
11177TIP3    H154946   1.599   0.015   1.399  0.0921 -1.4914  2.2602
11177TIP3    H254947   1.519   0.116   1.480  0.3140 -0.3798  1.1124
11178TIP3   OH254948   1.626   3.735   5.002  0.0849 -0.2932 -0.2276
11178TIP3    H154949   1.710   3.706   4.967  0.7114  1.4129 -0.1499
11178TIP3    H254950   1.575   3.759   4.924  0.2072  0.1153 -0.1805
11179TIP3   OH254951   3.817   0.535  11.206 -0.0216 -0.0996 -0.3789
11179TIP3    H154952   3.825   0.441  11.189  1.0173 -0.4086  1.5790
11179TIP3    H254953   3.902   0.571  11.179 -0.5351  0.3225 -1.4251
11180TIP3   OH254954   3.213   4.370   1.237  0.4367  0.8911 -0.0130
11180TIP3    H154955   3.299   4.362   1.279  0.7065  0.3933 -0.6421
11180TIP3    H254956   3.196   4.282   1.203  0.3947  1.3781 -1.2723
11181TIP3   OH254957   3.094   4.750   2.512  0.3782 -0.1672 -0.2003
11181TIP3    H154958   3.048   4.677   2.471  0.4091 -1.3209  1.7708
11181TIP3    H254959   3.186   4.737   2.487  0.4353 -1.0067  0.4126
11182TIP3   OH254960   3.644   1.622   0.886 -0.3413  0.2398 -0.2478
11182TIP3    H154961   3.703   1.686   0.845 -0.2204  1.2040  1.3794
11182TIP3    H254962   3.683   1.537   0.866  0.9898  0.8168 -0.1466
11183TIP3   OH254963   2.540   1.338  11.342 -0.1031 -0.5497 -0.2815
11183TIP3    H154964   2.529   1.279  11.268 -0.2603 -2.5177  1.2703
11183TIP3    H254965   2.609   1.398  11.314  0.0788 -1.4683 -1.8894
11184TIP3   OH254966   4.919   0.139   3.429  0.4298 -0.1182  0.4473
11184TIP3    H154967   4.833   0.161   3.393 -0.0318 -0.0515  1.5855
11184TIP3    H254968   4.903   0.066   3.489  1.8314 -3.2789 -2.7526
11185TIP3   OH254969   5.643   5.447  12.155  0.4379 -0.6664  0.0326
11185TIP3    H154970   5.736   5.460  12.176  0.6668  0.9425 -1.7627
11185TIP3    H254971   5.644   5.413  12.065 -0.7483  2.2261 -1.1573
11186TIP3   OH254972   6.326   2.039  16.454  0.3420  0.1087 -0.1949
11186TIP3    H154973   6.411   2.005  16.482 -0.6647 -1.9249  0.4843
11186TIP3    H254974   6.288   2.077  16.533  0.6030  0.9880 -0.4899
11187TIP3   OH254975   6.481   3.676  16.685  0.0158  0.4827 -0.0640
11187TIP3    H154976   6.502   3.697  16.594  1.2939  1.9504  0.5533
11187TIP3    H254977   6.562   3.692  16.733 -0.5801 -0.4957  1.3066
11188TIP3   OH254978   4.979   3.110  15.603 -0.1276 -0.8533  0.4656
11188TIP3    H154979   4.926   3.174  15.555 -0.1535 -1.1029  0.1607
11188TIP3    H254980   5.021   3.162  15.672  1.9744  0.0440 -1.4252
11189TIP3   OH254981   3.781   4.798   0.279 -0.1411  0.1852  0.1366
11189TIP3    H154982   3.743   4.880   0.246  1.3395  0.8854  0.1181
11189TIP3    H254983   3.727   4.729   0.240 -0.8695  1.1275 -0.5539
11190TIP3   OH254984   3.342   1.793   2.576  0.7844 -0.2249 -0.1098
11190TIP3    H154985   3.358   1.851   2.501  1.2472 -0.8123 -0.4735
11190TIP3    H254986   3.283   1.725   2.543  2.2165 -1.3658 -0.3917
11191TIP3   OH254987   1.683   6.191  15.298 -0.1617 -0.0166  0.4741
11191TIP3    H154988   1.627   6.152  15.231  0.1169  0.0080  0.2256
11191TIP3    H254989   1.715   6.117  15.350 -0.8948  0.0189  0.9829
11192TIP3   OH254990   3.529   6.582   0.433 -0.5487  0.3965 -0.9598
11192TIP3    H154991   3.507   6.524   0.360 -0.8398  0.0812 -0.6229
11192TIP3    H254992   3.530   6.525   0.510  0.5919  0.5665 -0.8399
11193TIP3   OH254993   4.844   6.401   1.371 -0.2605  0.2171 -0.2398
11193TIP3    H154994   4.878   6.458   1.441 -0.4109  0.4908 -0.3899
11193TIP3    H254995   4.917   6.393   1.310 -0.0784 -0.1445  0.0224
11194TIP3   OH254996   5.991   6.564   5.406 -0.2981 -0.4328  0.3733
11194TIP3    H154997   5.954   6.568   5.318 -0.9471 -2.8608  0.4850
11194TIP3    H254998   6.061   6.630   5.406 -0.2599 -0.4190 -1.9598
11195TIP3   OH254999   4.065   2.612   1.667 -0.1293 -0.0036 -0.1542
11195TIP3    H155000   4.104   2.535   1.707 -0.8684 -0.1837  0.2388
11195TIP3    H255001   4.139   2.669   1.645  0.4362 -0.9376 -0.6886
11196TIP3   OH255002   4.859   1.440   1.044  0.3427  0.3705 -0.2332
11196TIP3    H155003   4.869   1.347   1.064  0.4512  0.6044  0.8537
11196TIP3    H255004   4.778   1.445   0.992  0.7079 -0.4019 -0.8925
11197TIP3   OH255005   5.927   1.638   0.617  0.2568  0.2289 -0.7209
11197TIP3    H155006   5.998   1.601   0.669  1.2400 -0.2054 -2.3102
11197TIP3    H255007   5.861   1.569   0.614  1.3073 -0.7480 -2.1671
11198TIP3   OH255008   3.318   0.876   4.460 -0.0836  1.2891  0.0517
11198TIP3    H155009   3.284   0.860   4.372  1.9486  1.7553 -0.8624
11198TIP3    H255010   3.406   0.912   4.445  0.4893  0.8871  2.2782
11199TIP3   OH255011   0.836   5.678  16.405  0.0181  0.1084 -0.5501
11199TIP3    H155012   0.899   5.750  16.406  0.5650 -0.3768  0.8614
11199TIP3    H255013   0.790   5.688  16.321 -0.3600  2.4543 -0.1043
11200TIP3   OH255014   3.262   1.170  16.678  0.0378  0.1319  0.3317
11200TIP3    H155015   3.264   1.220  16.596  2.5008 -0.0739  0.2199
11200TIP3    H255016   3.327   1.100  16.665 -0.9852 -1.1163  1.7231
11201TIP3   OH255017   2.378   4.214  12.691 -0.4092  0.5450 -0.3980
11201TIP3    H155018   2.339   4.266  12.620 -1.0518 -0.8787 -1.1168
11201TIP3    H255019   2.342   4.252  12.771 -1.1581  0.9802 -0.9370
11202TIP3   OH255020   2.884   1.685  12.517 -0.3580  0.2937  0.3914
11202TIP3    H155021   2.813   1.621  12.530 -0.6951  0.7754  0.9167
11202TIP3    H255022   2.855   1.737  12.442 -0.6373  0.5932  0.7064
11203TIP3   OH255023   0.660   4.427   2.024 -0.0667  0.1147  0.1696
11203TIP3    H155024   0.633   4.416   1.933  0.4503 -0.7532  0.1070
11203TIP3    H255025   0.746   4.470   2.018 -0.8920  1.7939  0.3213
11204TIP3   OH255026   0.522   6.157  15.302 -0.4531  0.1157  0.5839
11204TIP3    H155027   0.434   6.181  15.274 -0.6030 -0.3768  0.6335
11204TIP3    H255028   0.579   6.190  15.233 -0.7738 -0.5776 -0.0079
11205TIP3   OH255029   0.100   3.838   0.947 -0.1817  0.4769 -0.6334
11205TIP3    H155030   0.187   3.873   0.962  0.3508 -1.1040  0.1063
11205TIP3    H255031   0.087   3.846   0.852  0.1715  2.0430 -0.5599
11206TIP3   OH255032   0.545   3.694  11.288  0.1402 -0.6251  0.1550
11206TIP3    H155033   0.511   3.685  11.199  0.4673 -2.2382  0.1711
11206TIP3    H255034   0.473   3.666  11.344 -0.0461  0.3327  0.4011
11207TIP3   OH255035   2.306   5.343   0.546  0.6507 -0.2945 -0.0914
11207TIP3    H155036   2.383   5.364   0.600  0.4914 -0.2754  0.1277
11207TIP3    H255037   2.343   5.314   0.462  0.8730  1.3386 -0.5722
11208TIP3   OH255038   5.359   6.207   0.739 -0.4869 -0.6007 -0.3141
11208TIP3    H155039   5.282   6.227   0.685 -0.4717 -2.1688 -0.9558
11208TIP3    H255040   5.322   6.180   0.824 -0.5158  1.7215  0.4442
11209TIP3   OH255041   3.470   0.235  13.166  0.3857  0.4477  0.5157
11209TIP3    H155042   3.389   0.269  13.205  0.3816 -1.0902  1.8960
11209TIP3    H255043   3.486   0.153  13.212  3.5388  1.4579  1.3174
11210TIP3   OH255044   2.678   4.116   2.450 -0.0274  0.1575  0.8009
11210TIP3    H155045   2.629   4.191   2.418  0.5104  0.0600 -0.2705
11210TIP3    H255046   2.750   4.154   2.501 -1.7671  0.2850  3.2717
11211TIP3   OH255047   4.720   1.040  14.647  0.1289  0.0891 -0.8928
11211TIP3    H155048   4.656   1.102  14.609  0.4149  0.8587 -0.1334
11211TIP3    H255049   4.800   1.057  14.598  0.4563  0.9776 -0.0811
11212TIP3   OH255050   2.037   0.955  15.178 -0.2829  0.3711  0.3262
11212TIP3    H155051   2.100   0.888  15.153 -3.5345 -2.3506 -0.9562
11212TIP3    H255052   2.089   1.034  15.192  3.4921 -2.0756  0.5557
11213TIP3   OH255053   6.199   1.233  14.626  0.1921  0.1232  0.4836
11213TIP3    H155054   6.181   1.139  14.631 -0.1504  0.2164  1.0335
11213TIP3    H255055   6.289   1.242  14.656  1.0230 -0.2900 -1.7902
11214TIP3   OH255056   0.469   5.494  10.973 -0.0346 -0.1402 -0.3059
11214TIP3    H155057   0.523   5.552  10.921  0.4428  0.2877  0.6500
11214TIP3    H255058   0.385   5.539  10.981  0.5204  0.7210  0.9285
11215TIP3   OH255059   2.781   2.124  11.423 -0.0442 -0.3004  0.2905
11215TIP3    H155060   2.727   2.140  11.345  0.7205  0.5072 -0.0672
11215TIP3    H255061   2.717   2.108  11.493 -0.7789  1.8143  0.1201
11216TIP3   OH255062   6.268   2.012  11.940  0.4615  0.0803  0.1284
11216TIP3    H155063   6.263   2.027  12.034  0.5681  1.2660 -0.0440
11216TIP3    H255064   6.314   2.089  11.906  0.0814 -0.1560 -0.9364
11217TIP3   OH255065   5.511   5.349   2.757 -0.1986 -0.2912  0.8744
11217TIP3    H155066   5.551   5.378   2.675 -1.0749  1.3873  1.0118
11217TIP3    H255067   5.433   5.300   2.730  1.7147 -3.3529  0.6147
11218TIP3   OH255068   0.806   6.140   5.450  0.0543 -1.0212  0.0851
11218TIP3    H155069   0.734   6.192   5.414  0.4597  0.0877  0.8416
11218TIP3    H255070   0.866   6.128   5.376  0.1999  0.0277  0.0177
11219TIP3   OH255071   4.298   5.538   2.117 -0.7091  0.0550 -0.7162
11219TIP3    H155072   4.232   5.471   2.135 -0.1038 -0.1163  0.9720
11219TIP3    H255073   4.350   5.543   2.198  1.1385  0.4075 -1.8955
11220TIP3   OH255074   6.017   1.787   4.066  0.6042  0.0589  0.2019
11220TIP3    H155075   6.064   1.868   4.087  0.5862  0.0864  0.1355
11220TIP3    H255076   6.086   1.724   4.046  0.6547 -0.2014  1.1670
11221TIP3   OH255077   2.289   4.078   0.881  0.2859  0.0380 -0.5365
11221TIP3    H155078   2.333   4.076   0.796 -0.3243 -1.7317 -0.8352
11221TIP3    H255079   2.315   4.161   0.920  2.0405  0.0464 -1.6755
11222TIP3   OH255080   0.400   0.560  12.587  0.7374 -0.1017  0.2835
11222TIP3    H155081   0.450   0.484  12.619  0.8176 -0.4319 -0.6125
11222TIP3    H255082   0.451   0.592  12.512  0.7198  0.8607  0.6818
11223TIP3   OH255083   3.491   1.623   4.238  0.3982  0.2730  0.3567
11223TIP3    H155084   3.491   1.717   4.220  2.7136  0.5945  1.7860
11223TIP3    H255085   3.489   1.617   4.334  1.1142 -1.1106  0.3030
11224TIP3   OH255086   0.027   2.244   1.297 -0.3125 -0.4903  0.5527
11224TIP3    H155087   0.112   2.284   1.316 -1.6013  1.3654  2.7831
11224TIP3    H255088   0.035   2.155   1.330  0.9900 -0.5347  0.1455
11225TIP3   OH255089   5.026   1.767  16.680  0.6805  1.0348  0.2681
11225TIP3    H155090   5.019   1.819  16.601  1.3177  0.9690  0.1692
11225TIP3    H255091   5.026   1.676  16.649  0.4095  0.9955  0.3819
11226TIP3   OH255092   2.365   6.320   5.003  0.4683 -0.2627  0.2815
11226TIP3    H155093   2.396   6.297   5.090  1.1777 -1.1246 -0.1827
11226TIP3    H255094   2.290   6.377   5.018  0.1169 -1.0079  1.4652
11227TIP3   OH255095   2.663   4.858  10.733  0.5766 -0.4408  0.1798
11227TIP3    H155096   2.686   4.932  10.791  1.1725 -0.7452  0.3420
11227TIP3    H255097   2.734   4.856  10.669 -0.6874  0.6156 -1.2647
11228TIP3   OH255098   3.089   3.307  11.063  0.0484 -0.4604  0.1442
11228TIP3    H155099   3.042   3.390  11.074  0.7155 -0.2767  1.7267
11228TIP3    H255100   3.167   3.330  11.012 -1.0867 -0.6150 -1.7332
11229TIP3   OH255101   5.926   4.429  15.673  0.5447  0.1622  0.3761
11229TIP3    H155102   5.887   4.484  15.605  1.8146  2.0083  1.1143
11229TIP3    H255103   5.962   4.354  15.625 -0.0264  0.6142 -0.7892
11230TIP3   OH255104   5.964   6.515  12.305  0.0555  0.4294  0.6813
11230TIP3    H155105   6.014   6.558  12.374 -0.4583 -0.2399  1.4675
11230TIP3    H255106   6.015   6.438  12.282 -0.4312 -0.0650  1.2420
11231TIP3   OH255107   2.785   5.677  12.557 -0.7521  0.1007 -0.0544
11231TIP3    H155108   2.857   5.627  12.596 -0.8654  0.2257  0.3177
11231TIP3    H255109   2.718   5.680  12.626 -0.1569  2.0192  0.4698
11232TIP3   OH255110   5.093   3.492  12.608  0.0154 -0.1565 -0.2161
11232TIP3    H155111   5.060   3.402  12.609 -0.9516  0.1851  1.7029
11232TIP3    H255112   5.150   3.497  12.532  0.1972 -2.4417 -0.2346
11233TIP3   OH255113   0.190   0.058  14.386 -0.6525 -0.0773 -0.5529
11233TIP3    H155114   0.282   0.084  14.391 -0.9604  1.2315 -1.4923
11233TIP3    H255115   0.190  -0.018  14.328 -0.1213 -0.2678 -0.3015
11234TIP3   OH255116   6.061   3.063  12.665 -0.8500 -0.1241 -0.3393
11234TIP3    H155117   6.031   3.118  12.737 -1.3256  0.7233 -1.1700
11234TIP3    H255118   6.062   3.121  12.589  2.1218 -0.3458 -0.5093
11235TIP3   OH255119   1.064   4.525   1.535 -0.3737  0.4182  0.2968
11235TIP3    H155120   1.102   4.587   1.472 -0.3774 -0.2299 -0.3578
11235TIP3    H255121   0.971   4.525   1.515 -0.0395 -1.7468 -1.4838
11236TIP3   OH255122   2.272   2.114  15.063 -0.1692 -0.1184 -0.0484
11236TIP3    H155123   2.306   2.156  14.984  1.1470 -3.2094 -1.1948
11236TIP3    H255124   2.178   2.106  15.047 -0.5203  2.6419  0.3709
11237TIP3   OH255125   5.073   6.448   1.223 -0.2412  0.0477 -0.3451
11237TIP3    H155126   5.128   6.426   1.147  2.5185 -1.5801  1.9978
11237TIP3    H255127   5.074   6.543   1.227  1.7243  0.0692 -0.8855
11238TIP3   OH255128   0.201   4.806  14.424 -0.1414 -0.5596 -0.0162
11238TIP3    H155129   0.288   4.830  14.457 -0.3444  1.3914 -0.8227
11238TIP3    H255130   0.216   4.728  14.371  0.6599 -1.9123  2.1622
11239TIP3   OH255131   2.876   3.153  10.752  0.5170  0.7347 -0.5117
11239TIP3    H155132   2.898   3.185  10.665 -0.0076  0.9475 -0.5676
11239TIP3    H255133   2.811   3.085  10.737 -0.2875  1.4296 -0.2343
11240TIP3   OH255134   4.105   3.433   5.071 -0.4662  0.6404 -0.1789
11240TIP3    H155135   4.200   3.421   5.076 -0.8102 -1.3830  1.7759
11240TIP3    H255136   4.083   3.482   5.150 -0.9166  2.3266 -1.3076
11241TIP3   OH255137   0.678   2.534   2.300  0.3418 -0.4992  0.4792
11241TIP3    H155138   0.647   2.604   2.243 -1.3062 -1.0851  0.6282
11241TIP3    H255139   0.691   2.576   2.385  1.2949  0.0470  0.0627
11242TIP3   OH255140   3.784   2.101   5.393  0.1819  0.2921 -0.4298
11242TIP3    H155141   3.747   2.109   5.305  0.9213  0.7920 -0.6991
11242TIP3    H255142   3.814   2.010   5.399 -2.1440 -0.4547  0.2142
11243TIP3   OH255143   5.524   4.730   2.644 -0.1024 -0.3914  0.1664
11243TIP3    H155144   5.475   4.695   2.718 -1.2639  0.9308  0.0279
11243TIP3    H255145   5.601   4.772   2.683 -1.3822  1.4646  0.7585
11244TIP3   OH255146   5.959   3.923  11.433  0.2925 -0.6201  0.1530
11244TIP3    H155147   5.906   4.002  11.436  2.7792  1.1119 -0.1937
11244TIP3    H255148   5.934   3.880  11.351 -2.6650 -1.4260  1.3799
11245TIP3   OH255149   1.864   2.550  14.006  0.1237  0.3887 -0.2234
11245TIP3    H155150   1.874   2.455  14.013  0.5777  0.4507 -0.0102
11245TIP3    H255151   1.902   2.572  13.921 -0.6257  0.2921 -0.5865
11246TIP3   OH255152   2.612   3.583  12.296 -0.5824  0.1796  0.6350
11246TIP3    H155153   2.678   3.652  12.305  1.0671 -1.1666 -0.8226
11246TIP3    H255154   2.535   3.628  12.262  0.2309  1.4371  0.4145
11247TIP3   OH255155   1.842   4.173   5.367  0.5689  0.0543 -0.1385
11247TIP3    H155156   1.766   4.119   5.348 -0.1243  0.2875  1.9286
11247TIP3    H255157   1.807   4.252   5.407  1.8880  0.1312  0.9086
11248TIP3   OH255158   0.986   0.212  14.680  0.0305 -0.1836  0.4160
11248TIP3    H155159   0.964   0.293  14.723  0.6793  0.9912 -1.3866
11248TIP3    H255160   0.902   0.169  14.664 -0.2295 -0.5242  2.5482
11249TIP3   OH255161   3.331   1.176   5.628  0.0425 -0.2477 -0.0721
11249TIP3    H155162   3.344   1.244   5.562 -0.7503 -2.7659 -2.9625
11249TIP3    H255163   3.418   1.138   5.640  0.6958  1.8829  2.3341
11250TIP3   OH255164   0.102   2.994   4.654 -0.2324  0.2791 -0.1025
11250TIP3    H155165   0.013   2.982   4.689 -1.0129  0.9125 -1.8426
11250TIP3    H255166   0.125   2.909   4.619  0.5097 -0.3314  1.7920
11251TIP3   OH255167   2.997   0.651  17.096 -0.4827 -0.3639  0.3006
11251TIP3    H155168   3.053   0.633  17.172 -1.7340  1.2007  1.6425
11251TIP3    H255169   2.976   0.564  17.061  1.0108 -1.0564  1.0829
11252TIP3   OH255170   3.479   1.722   1.784  0.1356  0.6961  0.1576
11252TIP3    H155171   3.521   1.696   1.703  0.0877  2.3894 -0.4311
11252TIP3    H255172   3.392   1.753   1.757  0.3087  1.7509  0.7765
11253TIP3   OH255173   0.659   1.115   5.533  0.5330  0.4757 -0.9834
11253TIP3    H155174   0.618   1.169   5.601  0.5403 -1.2750  0.4483
11253TIP3    H255175   0.721   1.173   5.490 -0.3986  1.9677 -0.3445
11254TIP3   OH255176   5.729   5.739   1.315  0.8690  0.4716 -0.3888
11254TIP3    H155177   5.733   5.646   1.340  1.0169  1.2691  2.8184
11254TIP3    H255178   5.648   5.746   1.265  0.6050 -1.3252 -0.2644
11255TIP3   OH255179   5.062   3.863  16.558  0.3718  0.1438 -0.2504
11255TIP3    H155180   5.065   3.770  16.583  0.3943  0.1493 -0.2337
11255TIP3    H255181   5.024   3.906  16.634 -2.2884 -0.2289 -1.3021
11256TIP3   OH255182   6.324   6.155   4.656 -0.5870 -0.0840 -0.1874
11256TIP3    H155183   6.292   6.073   4.619 -2.1102  0.5954 -0.3971
11256TIP3    H255184   6.404   6.173   4.607 -0.9851 -0.7364 -1.0941
11257TIP3   OH255185   6.560   5.885   5.043  0.4549  0.9854  0.7427
11257TIP3    H155186   6.580   5.974   5.072  1.4280  0.8553  0.4836
11257TIP3    H255187   6.591   5.829   5.115 -0.9003  0.8960  1.2705
11258TIP3   OH255188   3.307   1.711   2.877 -0.1129  0.1897 -0.3993
11258TIP3    H155189   3.287   1.624   2.844  0.9850 -0.0002 -0.5688
11258TIP3    H255190   3.319   1.765   2.799  0.9505  0.0898 -0.3076
11259TIP3   OH255191   4.033   3.123  12.180 -0.0634 -0.6113  0.3806
11259TIP3    H155192   4.037   3.216  12.157  0.7444 -0.5696  0.6632
11259TIP3    H255193   3.984   3.083  12.108  0.8795 -0.1960 -0.5020
11260TIP3   OH255194   4.922   6.224   2.036  0.7266  0.6200  0.3120
11260TIP3    H155195   4.888   6.313   2.031  0.3364  0.3386 -3.1239
11260TIP3    H255196   4.994   6.222   1.972  0.0668 -1.8033 -0.4069
11261TIP3   OH255197   1.614   3.146  15.413  0.2325 -0.4572  0.2173
11261TIP3    H155198   1.699   3.102  15.411  0.3415 -0.2392  0.0869
11261TIP3    H255199   1.550   3.077  15.394  0.2084 -1.0628  2.2983
11262TIP3   OH255200   6.169   5.091  10.504  0.5368  0.3224  0.5354
11262TIP3    H155201   6.074   5.089  10.512  0.6678 -1.1800  2.0657
11262TIP3    H255202   6.187   5.170  10.454 -1.4252  1.6709  1.8575
11263TIP3   OH255203   3.322   6.444  13.383  0.5405 -0.0350 -0.2076
11263TIP3    H155204   3.273   6.511  13.431  0.3242 -0.8050  0.6683
11263TIP3    H255205   3.260   6.372  13.372 -0.0389  0.8645 -3.3718
11264TIP3   OH255206   0.561   3.838  12.508  0.3377 -0.0114 -0.3559
11264TIP3    H155207   0.472   3.836  12.474 -0.3841 -1.2515  1.5233
11264TIP3    H255208   0.579   3.931  12.521 -1.4025  0.1558  1.0281
11265TIP3   OH255209   3.379   6.609   3.800 -0.6381  0.0788 -0.0650
11265TIP3    H155210   3.357   6.521   3.831  0.9356 -0.0845  0.6418
11265TIP3    H255211   3.441   6.642   3.864  1.2637  0.4693 -2.0425
11266TIP3   OH255212   1.472   2.403  13.088  0.3221 -0.2595 -0.0192
11266TIP3    H155213   1.466   2.443  13.175  1.6556  1.3649 -0.6600
11266TIP3    H255214   1.395   2.347  13.082  0.0032 -0.0709  2.0519
11267TIP3   OH255215   0.099   0.779  16.778 -1.0285 -0.1498 -0.3607
11267TIP3    H155216   0.056   0.713  16.832 -1.1842  0.9017  0.8260
11267TIP3    H255217   0.030   0.811  16.719 -0.7191 -1.6953 -1.6000
11268TIP3   OH255218   1.722   2.466  12.622 -0.5164  0.3164 -0.0903
11268TIP3    H155219   1.655   2.524  12.588 -0.6224  0.2131 -0.0567
11268TIP3    H255220   1.688   2.435  12.705 -0.1062  0.8439  0.2812
11269TIP3   OH255221   3.479   2.881   3.545 -0.4901 -0.1826 -0.3334
11269TIP3    H155222   3.528   2.815   3.595 -1.6463  1.2735  2.8330
11269TIP3    H255223   3.539   2.955   3.540 -0.1653 -0.5252 -1.6497
11270TIP3   OH255224   0.289   2.076  11.944 -0.7813 -0.6724  0.0948
11270TIP3    H155225   0.339   2.093  12.024 -1.0989 -0.8988  0.3380
11270TIP3    H255226   0.356   2.073  11.875 -0.5628  0.0422  0.2716
11271TIP3   OH255227   4.162   0.058  17.177 -0.2874 -0.8088 -0.5978
11271TIP3    H155228   4.187   0.147  17.151  2.3641 -1.3859 -0.1387
11271TIP3    H255229   4.074   0.068  17.215 -0.0741  1.5903 -0.6541
11272TIP3   OH255230   2.315   4.060   1.988  0.0587  0.5519  0.2090
11272TIP3    H155231   2.372   4.079   2.062  1.5417  2.6716 -1.3996
11272TIP3    H255232   2.303   4.145   1.944 -2.1867 -0.3308 -1.0036
11273TIP3   OH255233   1.923   1.132  12.989  0.3198 -0.0772  0.3590
11273TIP3    H155234   1.898   1.115  13.079  0.9081  2.2629  1.0214
11273TIP3    H255235   1.990   1.067  12.969  0.4872 -0.3314  1.7409
11274TIP3   OH255236   0.247   4.648  14.972 -0.2032  0.2394  0.0500
11274TIP3    H155237   0.153   4.636  14.957 -0.2661  2.1177 -1.2561
11274TIP3    H255238   0.262   4.741  14.952  2.3146 -0.5365 -1.9182
11275TIP3   OH255239   3.725   5.002   4.796 -0.2797 -0.2170 -0.2964
11275TIP3    H155240   3.742   5.095   4.778  1.8504 -0.8215 -1.5559
11275TIP3    H255241   3.671   4.973   4.722  1.7501 -0.7328 -1.6216
11276TIP3   OH255242   4.884   0.887   0.564 -0.1943 -0.3035  0.1735
11276TIP3    H155243   4.973   0.856   0.552  0.2533  0.7929  0.6214
11276TIP3    H255244   4.871   0.890   0.658 -0.4690  0.1786  0.1279
11277TIP3   OH255245   5.429   6.763  15.634  0.0820  0.0795  1.0742
11277TIP3    H155246   5.345   6.757  15.681 -0.6840  0.6712 -0.1863
11277TIP3    H255247   5.467   6.676  15.643 -1.1529 -0.4986  0.7806
11278TIP3   OH255248   5.699   1.106  11.655  0.2661 -0.0731  0.9154
11278TIP3    H155249   5.787   1.145  11.651  0.6483 -1.0239 -1.0181
11278TIP3    H255250   5.688   1.081  11.746  1.5064  1.1726  1.4376
11279TIP3   OH255251   1.249   4.279   4.155  0.3714  0.6349 -0.3373
11279TIP3    H155252   1.309   4.348   4.126  0.5540  0.3284 -0.7006
11279TIP3    H255253   1.177   4.282   4.092 -0.3110  1.4178  0.4644
11280TIP3   OH255254   3.749   2.833   4.767 -0.0943 -0.3816  0.5636
11280TIP3    H155255   3.719   2.765   4.707 -2.0289 -0.4241  1.5348
11280TIP3    H255256   3.802   2.787   4.833 -2.0325 -1.0949  1.6568
11281TIP3   OH255257   0.562   6.104   2.977  0.0361 -0.0713 -0.6868
11281TIP3    H155258   0.649   6.137   3.001 -0.7244  1.9499 -0.6533
11281TIP3    H255259   0.511   6.110   3.057 -0.3697 -0.5406 -0.9049
11282TIP3   OH255260   0.019   1.096   3.502  0.5163  0.0662 -0.0767
11282TIP3    H155261  -0.033   1.042   3.442 -0.8526 -0.3646  1.4667
11282TIP3    H255262  -0.042   1.162   3.534  1.5629  1.0615 -0.1009
11283TIP3   OH255263   1.096   1.099   5.501 -0.1581 -0.1524  0.7074
11283TIP3    H155264   1.148   1.174   5.474  0.4874 -0.3929  1.2744
11283TIP3    H255265   1.097   1.101   5.596  0.2788 -1.1562  0.7352
11284TIP3   OH255266   2.792   2.839  14.688 -0.2428  0.1006 -1.2472
11284TIP3    H155267   2.857   2.787  14.735 -0.0282  0.7713 -0.7989
11284TIP3    H255268   2.745   2.887  14.756  0.8113  1.9270 -1.7923
11285TIP3   OH255269   1.230   5.126  15.247 -0.0127 -0.3872  0.3120
11285TIP3    H155270   1.305   5.176  15.279  0.3935 -0.2978 -0.7763
11285TIP3    H255271   1.180   5.189  15.195  0.4426 -1.0693 -0.9771
11286TIP3   OH255272   1.257   5.043   3.721  0.1389 -0.1853 -0.9410
11286TIP3    H155273   1.286   5.129   3.752 -0.5841 -0.6781  1.1825
11286TIP3    H255274   1.333   5.007   3.676  1.5261  0.2074  1.0281
11287TIP3   OH255275   1.597   0.258   3.952  0.0796 -0.3303  0.5426
11287TIP3    H155276   1.652   0.218   4.020  0.4728  1.6870  1.4685
11287TIP3    H255277   1.519   0.203   3.948  0.4762 -1.0118  1.9551
11288TIP3   OH255278   5.246   0.804  11.519  1.1631  0.1962  0.4039
11288TIP3    H155279   5.309   0.785  11.449  1.8918  2.0615  0.5361
11288TIP3    H255280   5.249   0.727  11.575  0.5444 -1.3444 -1.6271
11289TIP3   OH255281   2.967   6.620  11.419 -0.0037 -0.2743  0.1479
11289TIP3    H155282   2.926   6.684  11.477 -0.7237 -1.3121  0.7991
11289TIP3    H255283   3.056   6.652  11.407 -0.1403  0.4604  1.0538
11290TIP3   OH255284   3.377   4.175  14.423  0.2108  0.2678  0.6886
11290TIP3    H155285   3.366   4.080  14.429  0.4374  0.2826  1.3349
11290TIP3    H255286   3.325   4.200  14.347 -0.3465 -0.2954  0.8809
11291TIP3   OH255287   5.654   0.578  15.022 -0.5303 -0.3420  0.0451
11291TIP3    H155288   5.703   0.657  15.000  1.8661 -1.9653 -0.5271
11291TIP3    H255289   5.576   0.611  15.067  1.3176  2.2609  1.4709
11292TIP3   OH255290   3.825   5.565   5.212  0.1278  0.4980 -0.0407
11292TIP3    H155291   3.913   5.535   5.193  0.0797 -0.4229  1.1079
11292TIP3    H255292   3.799   5.515   5.290 -1.2880  0.9637 -0.1955
11293TIP3   OH255293   1.564   2.740  17.136  0.0908  0.4347 -0.1118
11293TIP3    H155294   1.505   2.815  17.142  1.4231  1.5451 -0.5232
11293TIP3    H255295   1.629   2.756  17.204  0.0418 -0.6562  0.1848
11294TIP3   OH255296   3.760   5.702   4.064 -0.1744  0.0017  0.2204
11294TIP3    H155297   3.700   5.769   4.032 -0.8483  0.0514  1.5842
11294TIP3    H255298   3.711   5.654   4.130  0.0140 -2.4124 -1.3174
11295TIP3   OH255299   1.926   4.272   2.123 -0.0108 -0.3024  0.5716
11295TIP3    H155300   1.887   4.355   2.148  1.4440  1.2316 -2.0318
11295TIP3    H255301   2.011   4.270   2.169  0.1372 -0.1486  0.3058
11296TIP3   OH255302   2.603   0.244  12.613  0.1622  0.6196  0.1560
11296TIP3    H155303   2.541   0.278  12.678 -1.4956  0.3267 -1.2176
11296TIP3    H255304   2.565   0.160  12.586  0.4151  1.0835 -1.7105
11297TIP3   OH255305   2.589   0.388   2.199 -0.1453  0.0343 -0.7485
11297TIP3    H155306   2.671   0.395   2.248 -0.0096  1.3287 -1.1522
11297TIP3    H255307   2.521   0.409   2.262 -0.0782  0.1541 -0.7157
11298TIP3   OH255308   0.435   2.832   2.643  0.2826  0.1724  0.2678
11298TIP3    H155309   0.427   2.868   2.731  1.1436 -0.0893  0.4600
11298TIP3    H255310   0.369   2.878   2.592 -0.8167 -0.2774  1.2385
11299TIP3   OH255311   0.877   3.581   3.454  0.9075  0.0602  0.1019
11299TIP3    H155312   0.850   3.518   3.387  1.0260 -0.1325  0.2358
11299TIP3    H255313   0.885   3.664   3.407  3.1520 -0.5074 -0.5730
11300TIP3   OH255314   5.216   6.306  16.579 -0.3839 -0.3718 -0.0701
11300TIP3    H155315   5.215   6.213  16.602 -1.6915 -0.3302  0.0697
11300TIP3    H255316   5.136   6.342  16.618 -0.2749  0.6536 -0.7628
11301TIP3   OH255317   6.471   1.291  14.674  0.3909  0.2273 -0.8266
11301TIP3    H155318   6.513   1.223  14.621 -0.0511 -0.0218 -0.8565
11301TIP3    H255319   6.475   1.370  14.620  2.1991  0.5743 -0.2204
11302TIP3   OH255320   0.168   0.119   4.675 -0.1051  0.3444 -0.2733
11302TIP3    H155321   0.078   0.088   4.681  0.3386 -1.4162 -2.1187
11302TIP3    H255322   0.160   0.213   4.656 -1.5793 -0.0305 -1.6322
11303TIP3   OH255323   3.088   1.041   0.911  0.5141  0.4897  0.2058
11303TIP3    H155324   3.107   1.037   0.817 -0.2541  0.4188  0.0541
11303TIP3    H255325   3.065   1.133   0.926 -0.4885  0.2661  0.1000
11304TIP3   OH255326   6.484   0.362   2.987  0.2897  0.2762  0.0716
11304TIP3    H155327   6.509   0.454   2.981  2.5237 -0.3136  0.1225
11304TIP3    H255328   6.447   0.342   2.902 -0.5053  1.2934  0.1619
11305TIP3   OH255329   4.195   4.386  11.826  0.2148 -0.2879  0.1851
11305TIP3    H155330   4.254   4.366  11.753  0.1763 -0.5763  0.2322
11305TIP3    H255331   4.192   4.305  11.876 -0.4107 -0.3477  0.0518
11306TIP3   OH255332   4.076   2.874   1.102 -0.0143  0.3070  0.1865
11306TIP3    H155333   4.036   2.900   1.019  2.9025  2.0125 -0.7695
11306TIP3    H255334   4.113   2.955   1.137  1.8582 -1.0351  1.4247
11307TIP3   OH255335   4.498   3.063  14.442 -0.2181  0.4930 -0.1662
11307TIP3    H155336   4.513   3.027  14.355  0.3132 -3.1032  1.3037
11307TIP3    H255337   4.415   3.025  14.470  0.9743 -0.6717  1.9413
11308TIP3   OH255338   5.721   3.049  12.090  0.1367 -0.1099 -0.3653
11308TIP3    H155339   5.649   3.102  12.055 -1.2492  0.1397  2.6911
11308TIP3    H255340   5.702   2.960  12.060 -1.6262 -0.0954  0.6654
11309TIP3   OH255341   4.332   4.640  14.933 -0.5144 -0.1776 -0.0353
11309TIP3    H155342   4.365   4.578  14.868 -0.7308  0.2381 -0.5432
11309TIP3    H255343   4.242   4.611  14.950 -0.3156 -0.5492  0.4110
11310TIP3   OH255344   3.667   1.619   2.899  0.1603  0.5461  0.3073
11310TIP3    H155345   3.636   1.597   2.811  0.8127 -1.0116  0.4486
11310TIP3    H255346   3.591   1.654   2.944  0.0061  2.1234 -1.1251
11311TIP3   OH255347   2.218   5.341  16.500 -0.4400  0.0059  0.1615
11311TIP3    H155348   2.267   5.389  16.567 -1.4171 -2.0833  2.4395
11311TIP3    H255349   2.161   5.407  16.459  2.8793  2.1170 -1.3217
11312TIP3   OH255350   2.443   3.348   1.633  0.2255  0.0892  0.0689
11312TIP3    H155351   2.353   3.322   1.651  0.2350  0.8975  1.3790
11312TIP3    H255352   2.440   3.444   1.627  0.9481  0.1067 -0.1321
11313TIP3   OH255353   0.296   4.155   2.512  0.2258 -0.3924 -0.0938
11313TIP3    H155354   0.373   4.196   2.551 -0.0969 -0.6810  0.8790
11313TIP3    H255355   0.257   4.222   2.457  0.3933  0.2111  0.5140
11314TIP3   OH255356   6.402   2.195  11.242  0.3955  0.0785 -0.2558
11314TIP3    H155357   6.434   2.112  11.207  0.3357  0.6226 -1.6576
11314TIP3    H255358   6.480   2.240  11.274  0.3552 -0.7430  0.9985
11315TIP3   OH255359   0.779   3.044   4.927 -0.4295 -0.1187 -0.1497
11315TIP3    H155360   0.717   3.068   4.996  0.8870  0.7908  0.7391
11315TIP3    H255361   0.751   3.094   4.851  0.4020  1.8744  0.8179
11316TIP3   OH255362   3.102   5.667  16.942 -0.0570  0.4799  0.3345
11316TIP3    H155363   3.083   5.623  17.025 -1.6092 -0.8184 -0.6716
11316TIP3    H255364   3.016   5.697  16.911  0.1001 -1.3996 -2.0779
11317TIP3   OH255365   1.252   4.104   0.641 -0.6096 -0.1230 -0.3141
11317TIP3    H155366   1.339   4.134   0.618 -0.3002  0.7215  1.8322
11317TIP3    H255367   1.264   4.015   0.674 -0.5653 -0.0107 -0.0293
11318TIP3   OH255368   2.382   1.377  16.603  0.1468  0.2587 -0.2291
11318TIP3    H155369   2.327   1.455  16.595  1.0717  0.7891 -1.5758
11318TIP3    H255370   2.397   1.368  16.697  1.3489  2.6651 -0.1473
11319TIP3   OH255371   0.468   6.493  16.557  0.2788  0.4734  0.1665
11319TIP3    H155372   0.418   6.574  16.570  0.4231  0.2832  1.9988
11319TIP3    H255373   0.522   6.485  16.635  0.3060 -1.3740 -0.0259
11320TIP3   OH255374   0.557   6.181   5.802 -0.1026  0.0153  0.1935
11320TIP3    H155375   0.526   6.119   5.735 -0.9201  0.8159 -0.1822
11320TIP3    H255376   0.650   6.194   5.781 -0.0727 -0.6300 -0.0865
11321TIP3   OH255377   4.967   2.205   5.182  0.2741  0.0246  0.4606
11321TIP3    H155378   5.054   2.165   5.178 -1.4669 -3.7982 -1.7562
11321TIP3    H255379   4.962   2.259   5.103  0.1708 -0.8396 -0.1334
11322TIP3   OH255380   6.129   1.334   6.011  0.3001  0.5604  0.2980
11322TIP3    H155381   6.159   1.317   5.922  0.2780  2.3927 -0.0903
11322TIP3    H255382   6.174   1.269   6.065  0.5939 -0.3243 -0.9986
11323TIP3   OH255383   4.529   4.526   0.921 -0.0901 -0.2020 -0.6807
11323TIP3    H155384   4.499   4.612   0.893 -0.3704  0.2245  0.8756
11323TIP3    H255385   4.450   4.482   0.952  0.4533 -0.0289  1.0020
11324TIP3   OH255386   3.356   5.204  12.837 -0.0356  0.2291 -0.9344
11324TIP3    H155387   3.391   5.172  12.920 -0.3576  0.6247 -0.6453
11324TIP3    H255388   3.407   5.157  12.770 -0.2284 -0.5799 -0.5200
11325TIP3   OH255389   0.988   0.554  14.513  0.1801 -0.3511 -1.1836
11325TIP3    H155390   0.953   0.471  14.479  1.5219 -2.3033  2.0019
11325TIP3    H255391   0.922   0.619  14.488 -1.6654 -2.6002 -2.4283
11326TIP3   OH255392   1.474   5.536  15.331  0.0008  0.8421  0.0435
11326TIP3    H155393   1.482   5.557  15.238  1.9842 -1.3184 -0.3206
11326TIP3    H255394   1.559   5.561  15.368 -0.3200  0.4889  1.0295
11327TIP3   OH255395   0.998   0.578  12.721 -0.1671  0.0536 -0.0010
11327TIP3    H155396   0.922   0.556  12.775  0.9681  0.0762  1.6474
11327TIP3    H255397   0.973   0.658  12.676 -2.4164 -1.7610 -2.1405
11328TIP3   OH255398   1.700   5.447  10.476 -0.2975 -0.0868 -0.9114
11328TIP3    H155399   1.694   5.357  10.509 -1.3950  0.0059 -0.8348
11328TIP3    H255400   1.609   5.476  10.469  0.0950  2.0308  1.7992
11329TIP3   OH255401   4.203   3.775   0.126 -0.2044 -0.6656 -0.1387
11329TIP3    H155402   4.133   3.838   0.110 -0.6620 -0.5703  2.0835
11329TIP3    H255403   4.268   3.824   0.176  1.0227 -1.0214 -1.3574
11330TIP3   OH255404   5.164   1.586   4.816  0.2556 -0.1073  1.0064
11330TIP3    H155405   5.238   1.538   4.854 -0.6116 -0.4597  2.2859
11330TIP3    H255406   5.129   1.638   4.889 -0.1700  0.7973  0.1743
11331TIP3   OH255407   3.453   0.517   0.610  0.3357 -0.5004  0.2947
11331TIP3    H155408   3.419   0.516   0.699  0.0617  1.9868  0.2741
11331TIP3    H255409   3.375   0.525   0.555  0.5892 -0.6135 -0.0790
11332TIP3   OH255410   0.849   0.777  12.240  0.1685  0.3929  0.3616
11332TIP3    H155411   0.792   0.841  12.282 -0.7760 -0.1764 -0.0389
11332TIP3    H255412   0.871   0.816  12.155 -2.8625 -1.1098 -1.1705
11333TIP3   OH255413   2.184   3.823   4.571  0.3123 -0.0995 -0.4217
11333TIP3    H155414   2.239   3.754   4.536  1.0357  1.1416 -1.7608
11333TIP3    H255415   2.225   3.904   4.542 -0.9243  0.8897  0.5263
11334TIP3   OH255416   4.766   2.334  11.875  0.0786  0.1602  0.1308
11334TIP3    H155417   4.748   2.420  11.835 -0.9030 -0.3116 -0.4749
11334TIP3    H255418   4.682   2.288  11.870  0.5122 -0.7070  0.7740
11335TIP3   OH255419   2.103   4.553  12.543  0.3895  0.0504 -0.3117
11335TIP3    H155420   2.019   4.598  12.531  1.0079  1.0126 -1.0806
11335TIP3    H255421   2.123   4.515  12.457  0.1698 -1.2026  0.1721
11336TIP3   OH255422   2.333   5.515   1.431  0.0006 -0.3483  0.2083
11336TIP3    H155423   2.367   5.543   1.516  0.1045 -0.4937  0.2145
11336TIP3    H255424   2.407   5.525   1.371 -0.7850  2.2478 -0.4013
11337TIP3   OH255425   6.077   2.916  11.551 -0.2102 -0.3763 -0.4572
11337TIP3    H155426   6.006   2.852  11.547 -0.6508 -0.1881  2.8812
11337TIP3    H255427   6.120   2.899  11.636  1.8173  1.5060 -1.0638
11338TIP3   OH255428   2.656   0.803   1.923 -0.4708  0.2358 -0.1377
11338TIP3    H155429   2.564   0.775   1.932 -0.2346 -1.0910 -1.6995
11338TIP3    H255430   2.650   0.889   1.880 -0.9157 -1.1472 -2.9855
11339TIP3   OH255431   0.892   2.884  16.745 -0.2890 -0.3340  0.2833
11339TIP3    H155432   0.920   2.974  16.756 -2.3517  0.2031  1.3554
11339TIP3    H255433   0.838   2.884  16.666 -0.9328 -0.4668  0.7167
11340TIP3   OH255434   4.091   3.513   0.799  0.3662  0.4543 -0.6237
11340TIP3    H155435   4.026   3.471   0.854  1.3642  0.6460  0.7134
11340TIP3    H255436   4.111   3.596   0.842 -1.5887  2.3739 -3.2331
11341TIP3   OH255437   3.792   6.448   3.837 -0.1858 -1.0727 -0.3922
11341TIP3    H155438   3.873   6.478   3.795 -0.0946 -0.0676  0.4893
11341TIP3    H255439   3.788   6.497   3.920 -1.5029 -1.3960 -0.2547
11342TIP3   OH255440   6.658   6.741   2.466  0.0108  0.5618  0.2937
11342TIP3    H155441   6.743   6.782   2.481 -0.5681  0.9614  2.6630
11342TIP3    H255442   6.653   6.673   2.533  0.3815 -2.5627 -2.7084
11343TIP3   OH255443   6.400   6.467  11.276  0.2478 -0.4488 -0.0998
11343TIP3    H155444   6.309   6.452  11.302  0.6932 -1.4877  0.8627
11343TIP3    H255445   6.394   6.490  11.183 -1.3544  3.4604  0.8628
11344TIP3   OH255446   2.191   2.416  11.451  0.0541  0.2486 -0.3547
11344TIP3    H155447   2.283   2.407  11.427  0.5618  3.7013  0.1018
11344TIP3    H255448   2.171   2.508  11.438 -2.8056 -0.0336  1.4510
11345TIP3   OH255449   2.393   2.346   5.791  0.1858  0.2639  0.2796
11345TIP3    H155450   2.309   2.310   5.762  0.1596  0.2095  0.4233
11345TIP3    H255451   2.457   2.280   5.765  0.1312  0.0854  0.5999
11346TIP3   OH255452   4.431   5.581  15.347 -0.5326 -0.2657 -0.7090
11346TIP3    H155453   4.402   5.660  15.300  1.5261  0.3145 -1.0636
11346TIP3    H255454   4.524   5.595  15.361 -0.5668 -1.7258  1.0869
11347TIP3   OH255455   4.220   3.187   3.326 -0.1576 -0.3671 -0.2849
11347TIP3    H155456   4.283   3.241   3.278  1.6451 -1.1632  1.1119
11347TIP3    H255457   4.156   3.249   3.361  1.2979  0.7719  0.4228
11348TIP3   OH255458   4.111   5.201  10.897 -0.2307  0.8223  0.2426
11348TIP3    H155459   4.195   5.240  10.922  0.5693 -0.1205 -0.9540
11348TIP3    H255460   4.126   5.162  10.811 -2.3167  1.9507 -0.6671
11349TIP3   OH255461   5.280   6.728  13.385  0.1831 -0.0753 -0.0665
11349TIP3    H155462   5.251   6.738  13.475 -0.3044  0.3744 -0.2740
11349TIP3    H255463   5.365   6.774  13.382  0.1115  0.0691  0.1149
11350TIP3   OH255464   4.469   2.620   6.099 -0.0845 -0.3270 -0.2517
11350TIP3    H155465   4.378   2.616   6.129 -0.2023  0.3733 -0.5003
11350TIP3    H255466   4.478   2.546   6.040  0.1142 -1.6514  1.4041
11351TIP3   OH255467   6.227   2.443  15.525 -0.5843 -0.1918  0.1054
11351TIP3    H155468   6.139   2.432  15.488 -0.0725 -0.4707 -1.0201
11351TIP3    H255469   6.250   2.356  15.557 -0.4825 -0.2452 -0.1136
11352TIP3   OH255470   0.075   2.467   2.888 -0.4098  0.2586  0.1444
11352TIP3    H155471   0.073   2.431   2.977  0.7263  1.3426  0.6248
11352TIP3    H255472   0.138   2.413   2.841  0.2945  0.7712  0.4916
11353TIP3   OH255473   2.931   5.647  13.519  0.2203 -0.6635 -0.2498
11353TIP3    H155474   2.990   5.646  13.443 -1.2077 -1.6896 -1.3692
11353TIP3    H255475   2.882   5.728  13.510  1.6889  0.3756  0.8869
11354TIP3   OH255476   1.510   6.696   2.599 -0.7504 -0.2422  0.3893
11354TIP3    H155477   1.417   6.702   2.623 -1.1342 -2.4842 -0.4095
11354TIP3    H255478   1.531   6.603   2.610  1.0025 -0.0050 -0.8740
11355TIP3   OH255479   0.256   2.601  11.613 -0.1690 -0.0736  0.0921
11355TIP3    H155480   0.293   2.561  11.534  0.0911 -1.6103  0.9546
11355TIP3    H255481   0.250   2.694  11.593  0.5481 -0.3505 -1.4811
11356TIP3   OH255482   4.191   6.122  15.425 -0.5271 -0.3780  1.0971
11356TIP3    H155483   4.161   6.101  15.514 -3.6267 -0.0769  0.1896
11356TIP3    H255484   4.115   6.106  15.370  1.1140  0.2294 -1.4157
11357TIP3   OH255485   5.530   5.240  12.713 -0.4209  0.1246 -0.2186
11357TIP3    H155486   5.623   5.255  12.730 -0.4778  0.9476 -0.6026
11357TIP3    H255487   5.489   5.242  12.800 -0.0524 -0.4565 -0.0316
11358TIP3   OH255488   4.699   1.209  17.179  0.8333  0.3583  0.2196
11358TIP3    H155489   4.758   1.284  17.183 -0.4416  1.4325 -0.6673
11358TIP3    H255490   4.648   1.223  17.099 -0.5510 -0.5968  0.9170
11359TIP3   OH255491   4.360   6.422  15.071 -0.1630  0.1265 -0.1406
11359TIP3    H155492   4.368   6.446  15.164 -0.2889  0.6350 -0.2602
11359TIP3    H255493   4.429   6.357  15.058 -2.1774 -2.3516  1.0862
11360TIP3   OH255494   6.383   3.382  14.717  0.7967  0.1416 -0.0678
11360TIP3    H155495   6.291   3.389  14.739  0.6087 -2.0872 -0.0658
11360TIP3    H255496   6.428   3.381  14.801  0.7589  0.2397 -0.0457
11361TIP3   OH255497   2.422   2.808  12.524 -0.4849 -0.3766 -0.2723
11361TIP3    H155498   2.340   2.831  12.480  0.1571 -0.5821 -1.5851
11361TIP3    H255499   2.486   2.871  12.491  0.3278 -1.4186 -0.7045
11362TIP3   OH255500   6.123   6.062  11.907  0.0004 -0.5434  0.5944
11362TIP3    H155501   6.151   6.059  11.999 -0.6471 -0.5052  0.7950
11362TIP3    H255502   6.056   6.130  11.905  2.0676  1.5579 -0.4804
11363TIP3   OH255503   2.154   5.339   4.950 -0.0104  0.3630  1.0852
11363TIP3    H155504   2.211   5.387   5.010  1.2641 -0.6720  0.7292
11363TIP3    H255505   2.199   5.255   4.936 -1.9398 -0.7471  1.3129
11364TIP3   OH255506   3.208   3.292   4.101  0.3283 -0.4524  0.4028
11364TIP3    H155507   3.252   3.374   4.076 -0.1014  0.4491  2.4853
11364TIP3    H255508   3.224   3.233   4.027  1.0406  1.3556 -0.9340
11365TIP3   OH255509   3.326   5.578  12.599 -0.3332 -0.2481  0.5453
11365TIP3    H155510   3.303   5.485  12.592  0.0357 -0.3160  0.2501
11365TIP3    H255511   3.351   5.589  12.691 -0.2885 -0.4584  0.5607
11366TIP3   OH255512   6.710   2.178  13.410 -0.2044 -0.2965 -0.6800
11366TIP3    H155513   6.771   2.127  13.357  0.3512  1.7762 -2.1110
11366TIP3    H255514   6.632   2.188  13.355 -0.5563 -0.1214 -0.1594
11367TIP3   OH255515   6.072   3.843  16.494 -0.3306  0.1019  0.2671
11367TIP3    H155516   5.984   3.881  16.495 -0.2728  0.2367  0.2317
11367TIP3    H255517   6.065   3.770  16.432 -0.2153  0.6043 -0.3380
11368TIP3   OH255518   4.778   3.404  14.072  0.2844  0.2395 -0.2818
11368TIP3    H155519   4.832   3.330  14.100 -0.2505 -0.3358 -0.7398
11368TIP3    H255520   4.753   3.449  14.153  1.3933  0.4741 -0.0697
11369TIP3   OH255521   4.706   0.856  10.565  0.2652 -0.4621 -0.5260
11369TIP3    H155522   4.793   0.886  10.539  1.1811  0.0220  2.7807
11369TIP3    H255523   4.649   0.932  10.550  0.6324 -0.4128 -1.6619
11370TIP3   OH255524   1.214   1.046  12.212  0.7401 -0.1774 -0.1596
11370TIP3    H155525   1.247   0.961  12.185 -0.0064 -0.2119 -0.9683
11370TIP3    H255526   1.250   1.059  12.300  0.7224 -1.3864  0.0261
11371TIP3   OH255527   6.247   4.423   1.674  0.2906 -0.1185  0.3449
11371TIP3    H155528   6.199   4.433   1.756 -1.1438  1.5334 -0.6505
11371TIP3    H255529   6.195   4.360   1.624  0.0243  0.4132 -0.0677
11372TIP3   OH255530   3.366   0.167  16.986 -0.8175  0.5144  0.6205
11372TIP3    H155531   3.343   0.099  16.922 -0.7968  0.6047  0.5157
11372TIP3    H255532   3.398   0.240  16.932 -0.8132  0.5956  0.7337
11373TIP3   OH255533   3.722   4.527   3.100 -0.8196  0.3535  0.3883
11373TIP3    H155534   3.637   4.569   3.086 -1.8484 -1.3865  1.2239
11373TIP3    H255535   3.737   4.535   3.195 -0.6160 -0.3635  0.4193
11374TIP3   OH255536   2.362   2.943  10.943  0.2783 -0.5031  0.0889
11374TIP3    H155537   2.433   2.908  10.998  0.4475 -1.5974 -0.8256
11374TIP3    H255538   2.310   2.867  10.918 -0.3989  0.1205 -0.4291
11375TIP3   OH255539   4.825   5.590   2.200  0.1888 -0.2141  0.1021
11375TIP3    H155540   4.920   5.582   2.196  0.0935 -1.2076 -0.2293
11375TIP3    H255541   4.794   5.504   2.228 -0.5796  0.2701  0.7437
11376TIP3   OH255542   1.584   5.073   4.387 -0.0140  0.6035 -0.2442
11376TIP3    H155543   1.644   5.139   4.351  1.7470 -0.3837  0.8354
11376TIP3    H255544   1.507   5.078   4.330  0.8059  2.3593 -1.2534
11377TIP3   OH255545   4.233   2.782   4.806 -0.2109 -0.6183  0.2961
11377TIP3    H155546   4.328   2.784   4.812 -0.2842  3.9394  2.7052
11377TIP3    H255547   4.213   2.836   4.729 -0.8571 -0.1406  0.7912
11378TIP3   OH255548   3.150   4.862  16.965 -0.1078 -0.2013 -0.7061
11378TIP3    H155549   3.232   4.862  16.916 -0.9938 -0.8879 -2.2520
11378TIP3    H255550   3.174   4.891  17.053  1.8651 -0.9668 -0.9638
11379TIP3   OH255551   4.959   1.319  16.795  0.1195 -0.1630 -0.0543
11379TIP3    H155552   4.865   1.321  16.775  0.3629  2.4719 -1.0481
11379TIP3    H255553   4.983   1.226  16.786 -2.4558 -0.9533  0.6459
11380TIP3   OH255554   2.087   2.057   6.055  0.2965  0.6561  0.1641
11380TIP3    H155555   2.146   2.079   5.983  0.3151 -0.1338 -0.0671
11380TIP3    H255556   2.135   1.991   6.106 -0.0443  0.6291  0.4501
11381TIP3   OH255557   2.324   0.839  13.410  0.0852 -0.2131 -0.5408
11381TIP3    H155558   2.230   0.856  13.415  0.4966  1.4637  2.0507
11381TIP3    H255559   2.362   0.922  13.381  0.7290 -1.0792 -2.2459
11382TIP3   OH255560   1.516   4.830  16.186  0.5716  0.0486  0.1851
11382TIP3    H155561   1.515   4.886  16.264  1.1237 -0.7160  0.7648
11382TIP3    H255562   1.500   4.742  16.221  2.7282 -0.5681 -0.3063
11383TIP3   OH255563   4.345   4.339  15.730  0.1057 -0.5478 -0.6657
11383TIP3    H155564   4.401   4.265  15.708  0.5239 -0.8706  1.3594
11383TIP3    H255565   4.256   4.304  15.723  0.2856 -1.1050 -0.2719
11384TIP3   OH255566   3.094   2.330  16.099  0.4955  0.6316 -0.4433
11384TIP3    H155567   3.119   2.238  16.107 -0.1344  0.5740  1.0932
11384TIP3    H255568   3.067   2.341  16.008 -2.4310 -1.4894  0.1000
11385TIP3   OH255569   3.490   6.175  12.331 -0.2485 -0.3868  0.1065
11385TIP3    H155570   3.491   6.270  12.326  0.9988 -0.3992  0.0805
11385TIP3    H255571   3.435   6.148  12.257 -1.5038  0.3426  0.7539
11386TIP3   OH255572   0.854   1.961   5.834 -0.1783 -0.4616 -0.5260
11386TIP3    H155573   0.768   2.003   5.820 -0.7040 -1.7493 -1.3120
11386TIP3    H255574   0.837   1.893   5.899  0.5943  0.3017  0.4798
11387TIP3   OH255575   1.619   1.765   0.425  0.2218  0.2616  0.2679
11387TIP3    H155576   1.688   1.707   0.458  1.4980  1.7209  0.1871
11387TIP3    H255577   1.549   1.705   0.398  1.3706 -1.2252  0.5132
11388TIP3   OH255578   4.426   4.684   1.696  0.3163 -0.3517 -1.0212
11388TIP3    H155579   4.333   4.684   1.716  0.4551 -1.8056 -0.2627
11388TIP3    H255580   4.437   4.752   1.630 -1.5037 -1.1371 -2.1677
11389TIP3   OH255581   1.386   2.542   1.815  0.0408  0.1123 -0.0998
11389TIP3    H155582   1.352   2.608   1.876  0.4874 -0.3923  0.7072
11389TIP3    H255583   1.389   2.461   1.866 -1.5924 -0.8043 -1.4082
11390TIP3   OH255584   1.029   4.650  15.256 -0.1689  0.0736  0.3326
11390TIP3    H155585   1.071   4.685  15.177  0.7704  0.9116  1.1884
11390TIP3    H255586   1.095   4.592  15.294 -1.0987 -1.3236 -0.1801
11391TIP3   OH255587   0.024   0.935  16.241  0.1664  1.1192 -0.2421
11391TIP3    H155588  -0.040   0.869  16.214  0.7722  0.1069  0.7706
11391TIP3    H255589   0.098   0.885  16.275  0.0576  2.3342  1.8841
11392TIP3   OH255590   6.732   2.596   0.168 -0.3724  0.2631  0.5573
11392TIP3    H155591   6.824   2.583   0.145 -0.9606 -1.4445 -0.9140
11392TIP3    H255592   6.730   2.682   0.210  1.4103  1.6678 -2.0840
11393TIP3   OH255593   2.302   6.461  16.489 -0.2255  0.3119  0.0230
11393TIP3    H155594   2.326   6.545  16.449  1.2824 -0.4122 -0.6309
11393TIP3    H255595   2.208   6.470  16.509 -0.3717  1.6939 -1.1742
11394TIP3   OH255596   6.466   5.475  17.026  0.3170  0.3024  0.1055
11394TIP3    H155597   6.526   5.529  17.076  1.3519 -0.8925  0.1843
11394TIP3    H255598   6.521   5.404  16.991 -0.5344  0.6271 -1.9885
11395TIP3   OH255599   5.261   6.537  12.026 -0.1786  0.7264 -0.0407
11395TIP3    H155600   5.216   6.610  11.984 -0.5521 -0.3304 -1.5032
11395TIP3    H255601   5.327   6.509  11.963  1.1496  0.9226  1.2343
11396TIP3   OH255602   0.677   5.901  16.508 -0.0443  0.4994  0.6902
11396TIP3    H155603   0.756   5.914  16.455 -0.2709  0.8625  0.4419
11396TIP3    H255604   0.617   5.854  16.451 -0.0804  0.4016  0.8089
11397TIP3   OH255605   3.489   0.820  15.655 -0.3719 -0.0822  0.0433
11397TIP3    H155606   3.536   0.789  15.577  0.4983 -0.2354  0.6181
11397TIP3    H255607   3.547   0.797  15.728 -1.2316 -0.0368  0.7437
11398TIP3   OH255608   2.439   2.369  10.234  0.1289 -0.5791  0.1575
11398TIP3    H155609   2.491   2.418  10.171 -0.6906 -0.1826 -0.2191
11398TIP3    H255610   2.500   2.348  10.305  1.1670 -1.4328 -0.9687
11399TIP3   OH255611   0.037   5.350   1.966  0.3473 -0.0799 -0.2482
11399TIP3    H155612   0.076   5.364   1.880 -0.0659 -0.2506 -0.4616
11399TIP3    H255613  -0.055   5.334   1.949 -0.0706  1.5891  0.3551
11400TIP3   OH255614   0.263   1.325  14.972  0.3786  0.2981 -0.0002
11400TIP3    H155615   0.299   1.306  14.886  0.6344  1.2553 -0.1131
11400TIP3    H255616   0.302   1.409  14.996 -0.1765  0.3386  0.7770
11401TIP3   OH255617   1.790   3.028  13.667  0.0271 -0.2879  0.4231
11401TIP3    H155618   1.813   3.072  13.749 -2.2407  0.1432  0.8401
11401TIP3    H255619   1.780   3.099  13.603 -0.5971 -0.4374  0.3528
11402TIP3   OH255620   2.804   5.700   5.819  0.4073 -0.0516 -0.0928
11402TIP3    H155621   2.806   5.604   5.814  2.6595 -0.0673  0.5947
11402TIP3    H255622   2.896   5.726   5.815 -0.0697  1.9920  1.4259
11403TIP3   OH255623   4.392   1.016   0.868  0.7522 -0.4618  0.3567
11403TIP3    H155624   4.418   0.928   0.839 -0.9102 -0.6194 -0.6760
11403TIP3    H255625   4.338   1.050   0.797  0.3893  0.9362  1.2911
11404TIP3   OH255626   0.064   6.540   1.788 -0.4101 -0.0990 -0.3010
11404TIP3    H155627   0.118   6.539   1.867  0.4178  1.8939 -0.8354
11404TIP3    H255628   0.044   6.447   1.772  0.0892 -0.5886  1.7642
11405TIP3   OH255629   2.176   3.294  14.330 -0.1138  0.0262  0.1648
11405TIP3    H155630   2.245   3.228  14.331 -1.6054 -1.6072  2.8952
11405TIP3    H255631   2.221   3.376  14.313  2.7436 -0.8259  3.0506
11406TIP3   OH255632   4.573   5.982   4.198  0.0127  0.1200 -0.1443
11406TIP3    H155633   4.585   6.076   4.205 -1.5981  0.4482 -1.3728
11406TIP3    H255634   4.484   5.972   4.165  0.4341 -1.8080 -0.7622
11407TIP3   OH255635   2.143   1.646   1.147  0.1611  0.2817  0.7774
11407TIP3    H155636   2.200   1.628   1.221 -0.6009 -2.5650  0.7609
11407TIP3    H255637   2.198   1.630   1.070 -0.4921 -2.2072  0.7635
11408TIP3   OH255638   2.264   4.341  12.926 -0.3180  0.2667  0.0817
11408TIP3    H155639   2.179   4.302  12.906 -0.1642  0.4625 -0.9832
11408TIP3    H255640   2.293   4.296  13.006 -0.8769 -0.6500 -0.2208
11409TIP3   OH255641   2.287   1.941   5.532  0.1406  0.2284  0.4110
11409TIP3    H155642   2.207   1.934   5.480 -0.0066 -2.6689  0.9501
11409TIP3    H255643   2.294   1.857   5.578  2.5668  1.0824  1.7197
11410TIP3   OH255644   3.224   6.694  14.246 -0.4871 -0.5088 -0.1529
11410TIP3    H155645   3.278   6.616  14.251 -0.8776 -0.8377 -1.0778
11410TIP3    H255646   3.173   6.683  14.166  0.0501  1.0814 -0.7233
11411TIP3   OH255647   1.438   2.506   3.280 -0.0146  0.0562 -0.4426
11411TIP3    H155648   1.356   2.484   3.236 -1.1458 -0.0222  1.6095
11411TIP3    H255649   1.454   2.432   3.339  0.3472  1.0936  0.7843
11412TIP3   OH255650   6.046   2.362   2.109 -0.1271  0.2167  0.0102
11412TIP3    H155651   6.021   2.454   2.117 -0.3985  0.2076 -0.7676
11412TIP3    H255652   6.096   2.357   2.027 -0.2876 -0.3660 -0.0585
11413TIP3   OH255653   0.031   5.653  15.333 -0.4450  0.3703  0.2825
11413TIP3    H155654  -0.025   5.677  15.259  0.8401  0.6380 -0.6046
11413TIP3    H255655   0.120   5.676  15.305 -0.0129  1.0142  2.1357
11414TIP3   OH255656   6.491   4.979  16.898 -0.0792 -0.2013 -0.1697
11414TIP3    H155657   6.500   4.884  16.900  0.2338 -0.2209 -1.9799
11414TIP3    H255658   6.425   4.995  16.831  1.2663  0.9340 -1.2594
11415TIP3   OH255659   3.820   5.987   1.518  0.3056 -0.0163  0.6609
11415TIP3    H155660   3.783   5.990   1.606 -3.4399  0.1481 -0.8165
11415TIP3    H255661   3.778   6.059   1.471  1.3260 -0.8161 -1.5978
11416TIP3   OH255662   1.376   3.921  11.354  0.5201 -0.3886 -0.1863
11416TIP3    H155663   1.450   3.885  11.403  1.4059  0.7257 -0.6887
11416TIP3    H255664   1.416   3.961  11.277 -0.4408  1.6767  0.3794
11417TIP3   OH255665   5.152   1.819  10.629 -0.4227  0.1873 -0.5795
11417TIP3    H155666   5.145   1.913  10.645  0.6147  0.1706  0.0702
11417TIP3    H255667   5.246   1.802  10.632 -0.4747 -0.5687 -2.4981
11418TIP3   OH255668   1.318   2.638   5.614  0.4717 -0.3990  0.3865
11418TIP3    H155669   1.387   2.695   5.581  0.1382  0.8004  1.7523
11418TIP3    H255670   1.241   2.662   5.563  1.0168 -1.7478 -1.1496
11419TIP3   OH255671   2.956   4.948  16.797 -0.0662 -0.8934  0.0011
11419TIP3    H155672   2.994   5.009  16.734 -0.8959 -0.2370  0.1260
11419TIP3    H255673   3.029   4.926  16.856  0.2500 -0.0338 -0.0538
11420TIP3   OH255674   1.609   5.574   0.870 -0.1568 -0.2586 -0.1859
11420TIP3    H155675   1.679   5.539   0.925  0.2208 -0.8818 -1.0499
11420TIP3    H255676   1.549   5.617   0.932  2.0139  2.0848  0.3891
11421TIP3   OH255677   2.253   5.089  12.972 -0.1096  0.2664  0.4223
11421TIP3    H155678   2.207   5.007  12.955 -0.4564  0.7360 -0.8872
11421TIP3    H255679   2.237   5.143  12.895 -0.6288  1.9106  1.6572
11422TIP3   OH255680   5.532   2.362   1.716  0.0265 -0.3890 -0.1385
11422TIP3    H155681   5.474   2.434   1.693 -0.4338 -0.6467  0.2187
11422TIP3    H255682   5.604   2.403   1.763 -0.0678 -0.1220 -0.2274
11423TIP3   OH255683   6.266   6.439   5.454  0.1279  0.2798 -0.0172
11423TIP3    H155684   6.171   6.430   5.444 -0.3491  2.9707  1.6525
11423TIP3    H255685   6.277   6.522   5.500  3.3393  0.2938 -0.7389
11424TIP3   OH255686   2.683   3.710   3.593  0.4183 -0.2829 -0.5921
11424TIP3    H155687   2.735   3.659   3.655  0.2680 -1.7322 -1.6363
11424TIP3    H255688   2.607   3.739   3.643  0.8363 -0.5325  0.1900
11425TIP3   OH255689   0.435   5.091   1.100 -0.0029  0.1677 -0.0810
11425TIP3    H155690   0.476   5.005   1.104 -1.7774 -0.6259  1.6666
11425TIP3    H255691   0.497   5.149   1.146  1.1755 -0.1573 -1.2322
11426TIP3   OH255692   3.994   0.889  10.101 -0.0837 -0.1205 -0.4431
11426TIP3    H155693   4.040   0.807  10.117  0.0165 -0.2211 -1.2027
11426TIP3    H255694   4.043   0.930  10.030 -1.0440 -0.1385 -1.1339
11427TIP3   OH255695   2.526   3.108   0.525  0.2827  0.2169 -0.4144
11427TIP3    H155696   2.596   3.071   0.471  2.1033  2.2083  0.5113
11427TIP3    H255697   2.497   3.184   0.476  0.8568  1.1207  0.6424
11428TIP3   OH255698   2.870   5.601   4.447  0.1074 -0.0659  0.1261
11428TIP3    H155699   2.844   5.647   4.367 -0.8609 -0.5054  0.1863
11428TIP3    H255700   2.946   5.650   4.479  0.3394  0.2693 -0.9173
11429TIP3   OH255701   4.380   0.451  11.360  0.4634 -0.1397 -0.1155
11429TIP3    H155702   4.419   0.479  11.443 -0.6257 -1.1561  0.7592
11429TIP3    H255703   4.419   0.365  11.343  0.6208  0.0291 -0.6297
11430TIP3   OH255704   4.609   5.342  16.618  0.3125  0.1465 -0.3063
11430TIP3    H155705   4.629   5.322  16.710 -0.7167  0.3541 -0.0290
11430TIP3    H255706   4.565   5.263  16.586 -3.0824  1.5869  0.5753
11431TIP3   OH255707   0.599   1.169  14.063 -0.5170 -0.7898 -0.3848
11431TIP3    H155708   0.575   1.123  13.982 -0.0220 -0.2153 -0.8733
11431TIP3    H255709   0.645   1.247  14.032 -0.0286 -0.7358  0.4652
11432TIP3   OH255710   4.504   4.990   5.604 -0.5635 -0.0709 -0.0478
11432TIP3    H155711   4.563   4.935   5.552  0.0964 -0.5338  1.1772
11432TIP3    H255712   4.563   5.043   5.658 -1.2226  1.0642 -0.4219
11433TIP3   OH255713   1.218   5.109  15.548 -0.7309 -0.6418 -0.0893
11433TIP3    H155714   1.297   5.130  15.598 -1.1139  2.0545 -0.5772
11433TIP3    H255715   1.250   5.093  15.459 -0.7389  0.4789 -0.2935
11434TIP3   OH255716   5.510   5.598   3.464  0.1576 -0.1729  0.2363
11434TIP3    H155717   5.460   5.577   3.543 -0.3907 -0.5945 -0.2246
11434TIP3    H255718   5.593   5.551   3.476 -0.2428 -0.9074  0.1900
11435TIP3   OH255719   5.491   5.439  11.110 -0.3881  0.3453  0.1576
11435TIP3    H155720   5.407   5.485  11.106 -0.3384  0.5267  1.1293
11435TIP3    H255721   5.475   5.355  11.068 -0.6112  1.0587 -1.1963
11436TIP3   OH255722   2.934   1.861   2.626 -0.2343 -0.3602 -0.0596
11436TIP3    H155723   2.886   1.803   2.686 -2.8106  0.0646 -1.6187
11436TIP3    H255724   2.980   1.801   2.567 -2.6152 -0.9057 -1.4479
11437TIP3   OH255725   0.526   3.253   0.977  0.3528 -0.9649 -0.2288
11437TIP3    H155726   0.573   3.337   0.983 -0.2742 -0.6796  0.7581
11437TIP3    H255727   0.464   3.266   0.905  1.4315 -1.1744 -1.2153
11438TIP3   OH255728   0.656   4.146   3.867 -0.4770 -0.1748  0.3349
11438TIP3    H155729   0.597   4.192   3.808  1.7343  0.7821 -1.1958
11438TIP3    H255730   0.714   4.214   3.900  0.9144 -1.3823  0.4055
11439TIP3   OH255731   1.360   3.707  15.897 -0.0627  0.3329  0.2964
11439TIP3    H155732   1.310   3.637  15.941 -1.6025  1.6504  0.6764
11439TIP3    H255733   1.410   3.748  15.968  0.8944 -0.3836  0.0622
11440TIP3   OH255734   4.366   5.295  14.505  0.0464 -0.2665  0.1817
11440TIP3    H155735   4.313   5.283  14.426 -0.1393  1.9003 -0.0611
11440TIP3    H255736   4.327   5.371  14.548  1.0645 -0.5282  1.6136
11441TIP3   OH255737   3.645   0.682   5.338 -0.1559  0.6336  0.0516
11441TIP3    H155738   3.606   0.611   5.287  0.6164  1.0683 -1.1496
11441TIP3    H255739   3.654   0.754   5.276  1.9564  0.7628  0.4673
11442TIP3   OH255740   2.855   3.195  14.869 -0.2856  0.2077 -0.1198
11442TIP3    H155741   2.896   3.257  14.810 -0.2595 -0.7883 -1.1588
11442TIP3    H255742   2.772   3.172  14.827  0.6359 -2.0244 -0.7884
11443TIP3   OH255743   6.265   5.822   2.885 -0.2973 -0.1563  0.3540
11443TIP3    H155744   6.291   5.796   2.973  0.1475  0.6894  0.4745
11443TIP3    H255745   6.196   5.887   2.899  1.0324  1.3292  0.1163
11444TIP3   OH255746   5.683   5.656   5.976 -0.5758  0.6268 -0.5084
11444TIP3    H155747   5.725   5.576   6.007 -1.5694  0.5038  0.5205
11444TIP3    H255748   5.750   5.724   5.989  0.3930 -0.0662 -1.7058
11445TIP3   OH255749   3.693   6.512  17.115 -0.2557  0.1644 -0.5596
11445TIP3    H155750   3.648   6.433  17.144 -0.5876  0.2677 -0.7944
11445TIP3    H255751   3.626   6.561  17.067  0.3685 -0.1178 -1.7225
11446TIP3   OH255752   6.118   6.207  15.869  0.7159 -0.0582 -0.0332
11446TIP3    H155753   6.104   6.189  15.962 -1.8367 -0.2542 -0.4162
11446TIP3    H255754   6.101   6.124  15.825  1.8609  0.0420 -0.7012
11447TIP3   OH255755   4.372   6.598   6.041 -0.2564  0.4600 -0.3283
11447TIP3    H155756   4.335   6.573   6.126 -0.5456 -0.0330 -0.5917
11447TIP3    H255757   4.448   6.542   6.030 -0.0109  0.7762 -0.2320
11448TIP3   OH255758   0.374   2.800   5.591 -0.0710  0.1122  0.0758
11448TIP3    H155759   0.333   2.840   5.514 -1.0682 -0.2775  0.4010
11448TIP3    H255760   0.314   2.819   5.663 -0.1312 -1.2289  0.3958
11449TIP3   OH255761   1.341   0.950  12.434  0.1880 -0.0043  0.3545
11449TIP3    H155762   1.357   0.999  12.514 -0.2843 -1.9429  1.6875
11449TIP3    H255763   1.296   0.871  12.463  0.5209 -1.0194 -1.7618
11450TIP3   OH255764   4.718   0.560  11.733  0.1728 -0.0822  0.3961
11450TIP3    H155765   4.669   0.517  11.803 -0.9262  1.5334  0.6434
11450TIP3    H255766   4.805   0.576  11.771 -0.0571 -0.2356  0.9944
11451TIP3   OH255767   5.715   6.054  13.938  0.2740 -0.4246 -0.7610
11451TIP3    H155768   5.625   6.040  13.967  0.9938 -1.1379  1.2425
11451TIP3    H255769   5.767   5.992  13.990  1.9134 -0.0734 -1.9301
11452TIP3   OH255770   0.458   2.278  12.620 -0.2810  0.3122  0.0329
11452TIP3    H155771   0.482   2.360  12.663  0.5775 -0.4571  1.0715
11452TIP3    H255772   0.392   2.239  12.678  0.9358 -0.7655  0.7291
11453TIP3   OH255773   5.475   6.521  14.932  0.3527 -0.2731  0.2767
11453TIP3    H155774   5.459   6.469  15.010  1.5206  1.2413  1.5530
11453TIP3    H255775   5.408   6.492  14.870 -1.3759 -0.6250  2.2528
11454TIP3   OH255776   0.825   0.262  15.664 -0.1990  0.9182 -0.5843
11454TIP3    H155777   0.849   0.175  15.696  0.3662  0.8010 -1.3090
11454TIP3    H255778   0.858   0.264  15.575 -1.3716  1.4073 -1.0116
11455TIP3   OH255779   2.075   1.398   0.466 -0.9366  0.3992 -0.3862
11455TIP3    H155780   2.137   1.348   0.413  0.0022  1.0995  0.0362
11455TIP3    H255781   2.110   1.393   0.555 -0.3460  2.4732 -0.4554
11456TIP3   OH255782   1.000   5.597   3.811  0.1998  0.0690 -0.0868
11456TIP3    H155783   1.008   5.685   3.847  0.0993 -0.3927  1.1051
11456TIP3    H255784   1.040   5.540   3.878 -1.7987 -1.0107  0.2535
11457TIP3   OH255785   2.690   4.234   0.154 -0.3796  0.6687  0.4205
11457TIP3    H155786   2.633   4.158   0.144 -2.2926  2.2507 -1.3517
11457TIP3    H255787   2.664   4.273   0.237 -0.7620  0.4625  0.3974
11458TIP3   OH255788   0.549   0.844  16.779 -0.3224 -0.1921  0.1738
11458TIP3    H155789   0.603   0.912  16.738 -1.1449 -1.0593 -2.4425
11458TIP3    H255790   0.470   0.891  16.807 -0.3785  0.1789 -0.5630
11459TIP3   OH255791   6.585   5.456   0.935 -0.0218  0.0380  0.1984
11459TIP3    H155792   6.608   5.517   0.865  2.4851 -2.7289 -1.4733
11459TIP3    H255793   6.649   5.473   1.004  0.8207 -0.8727 -0.3627
11460TIP3   OH255794   6.448   2.188  11.808  0.2993 -0.3037 -0.2657
11460TIP3    H155795   6.447   2.241  11.888  1.2591 -2.3053  1.1128
11460TIP3    H255796   6.537   2.197  11.775  0.1745 -0.2425 -0.5816
11461TIP3   OH255797   1.730   5.005   2.261 -0.3100 -0.3269 -0.1539
11461TIP3    H155798   1.765   4.932   2.312 -1.8194 -0.0874  1.2696
11461TIP3    H255799   1.805   5.064   2.248 -0.0684  0.0624  2.6180
11462TIP3   OH255800   4.067   6.398   1.804  0.2786 -0.2705  0.8121
11462TIP3    H155801   4.018   6.368   1.728 -1.6886 -0.0827  1.9442
11462TIP3    H255802   4.139   6.336   1.814  0.0084 -0.8237 -0.6393
11463TIP3   OH255803   4.477   5.164   2.162  0.1811  0.0177 -0.2126
11463TIP3    H155804   4.460   5.237   2.101  4.1049  1.1579 -0.0589
11463TIP3    H255805   4.526   5.204   2.234  0.7861 -2.4380  0.7833
11464TIP3   OH255806   6.713   0.952  13.763  0.7505  0.4157 -0.4095
11464TIP3    H155807   6.717   1.042  13.732  0.1889  0.6515  0.1754
11464TIP3    H255808   6.772   0.950  13.839  1.0110  0.2079 -0.6181
11465TIP3   OH255809   1.000   4.989   3.784 -0.0242 -0.3557 -0.0283
11465TIP3    H155810   0.999   4.906   3.833 -2.4465  0.4403  1.3436
11465TIP3    H255811   1.093   5.005   3.767  0.7330 -1.6773  2.5922
11466TIP3   OH255812   3.706   2.620  11.427 -0.1425  0.1085  0.4322
11466TIP3    H155813   3.774   2.686  11.415 -0.1505 -0.0095 -0.2837
11466TIP3    H255814   3.753   2.537  11.419 -0.2744  0.0266  0.5154
11467TIP3   OH255815   0.697   1.412  13.999 -0.4530  0.0752  0.1725
11467TIP3    H155816   0.658   1.456  14.074  1.8177  1.1830  0.7367
11467TIP3    H255817   0.736   1.482  13.947  0.2514 -0.9303 -0.6967
11468TIP3   OH255818   1.716   4.565  14.671  0.3653 -0.5569  0.9255
11468TIP3    H155819   1.687   4.581  14.581  0.5953  0.3028  0.9988
11468TIP3    H255820   1.648   4.510  14.710 -0.2995  0.0299  0.5817
11469TIP3   OH255821   2.803   5.958   6.429  0.0063 -0.3000 -0.1580
11469TIP3    H155822   2.765   5.972   6.343 -1.5273  1.6844  0.8103
11469TIP3    H255823   2.882   6.012   6.430 -0.2902  0.1308 -0.1108
11470TIP3   OH255824   5.410   0.837   5.492  0.4241  0.6832 -0.5559
11470TIP3    H155825   5.335   0.802   5.541  1.5073 -2.7176 -1.2155
11470TIP3    H255826   5.434   0.917   5.539  0.3288 -1.5321  3.4530
11471TIP3   OH255827   0.327   4.202   4.594 -0.3147 -0.2055  0.2430
11471TIP3    H155828   0.258   4.149   4.555  0.4737 -0.6245 -0.5824
11471TIP3    H255829   0.282   4.253   4.661 -1.0082 -2.2665  1.4013
11472TIP3   OH255830   1.809   1.170   2.803  0.2112 -0.1765 -0.6730
11472TIP3    H155831   1.878   1.127   2.753  0.1272 -0.0925 -0.8608
11472TIP3    H255832   1.842   1.259   2.819  0.9414 -0.7034  0.8197
11473TIP3   OH255833   0.675   0.589  13.726 -0.1100 -0.2050 -0.9212
11473TIP3    H155834   0.608   0.643  13.767  0.0610 -0.2533 -0.5764
11473TIP3    H255835   0.757   0.634  13.745  0.5268 -2.7183  3.0325
11474TIP3   OH255836   2.930   3.457  12.232  0.1828  0.6335  0.4377
11474TIP3    H155837   2.873   3.474  12.307  0.6077  0.0584  0.8960
11474TIP3    H255838   2.885   3.499  12.159 -0.3876  0.9473  0.9538
11475TIP3   OH255839   3.494   1.727   5.241 -0.0359  0.0715  0.3996
11475TIP3    H155840   3.538   1.730   5.325 -0.0243  0.0944  0.3929
11475TIP3    H255841   3.441   1.806   5.238 -1.9233 -1.1187  1.4338
11476TIP3   OH255842   4.514   6.715  13.783  0.3434  0.0670  0.4079
11476TIP3    H155843   4.468   6.721  13.867 -1.2972  0.8929 -0.5359
11476TIP3    H255844   4.447   6.687  13.721  1.7235 -1.2963 -0.5125
11477TIP3   OH255845   3.546   1.922   2.407  0.5184 -0.3360  0.1631
11477TIP3    H155846   3.601   1.858   2.452  1.0462  0.8978  1.2959
11477TIP3    H255847   3.535   1.886   2.319  0.2989 -2.2796  0.9593
11478TIP3   OH255848   3.500   4.623  11.536 -0.0751 -0.4573  0.5504
11478TIP3    H155849   3.471   4.629  11.627  0.2210 -0.4755  0.6478
11478TIP3    H255850   3.426   4.583  11.490  0.1516 -1.3818  0.9700
11479TIP3   OH255851   1.243   0.147  14.999 -0.3533 -0.0111 -0.4477
11479TIP3    H155852   1.299   0.224  15.012 -1.3069  0.6190  0.0612
11479TIP3    H255853   1.264   0.090  15.072 -0.5269  0.3240 -0.1327
11480TIP3   OH255854   0.927   6.549  15.835 -0.2179  0.0863  0.8341
11480TIP3    H155855   0.982   6.499  15.894 -0.4367 -0.4662  0.5700
11480TIP3    H255856   0.878   6.484  15.786 -0.8060  0.5664  0.7760
11481TIP3   OH255857   3.813   5.561  12.380 -0.1874 -0.2696  0.5534
11481TIP3    H155858   3.783   5.473  12.359 -0.2541  0.1498 -1.1814
11481TIP3    H255859   3.749   5.594  12.443 -0.2304 -1.4098  1.1213
11482TIP3   OH255860   1.493   6.181   3.876  0.6800  0.4275 -0.0754
11482TIP3    H155861   1.540   6.115   3.826 -1.8427 -1.8749  0.5210
11482TIP3    H255862   1.420   6.207   3.821 -1.4177 -1.2368  1.8483
11483TIP3   OH255863   6.239   0.969   4.668 -0.3946 -0.2740  0.5058
11483TIP3    H155864   6.218   0.882   4.703 -0.8843 -0.0471  0.7726
11483TIP3    H255865   6.260   1.022   4.744 -0.2585 -0.1118  0.3565
11484TIP3   OH255866   1.613   2.683   1.731  0.4326 -0.2390 -0.4841
11484TIP3    H155867   1.518   2.691   1.741  0.4021 -0.3901 -0.6714
11484TIP3    H255868   1.631   2.589   1.738  0.8153 -0.0239  1.8709
11485TIP3   OH255869   3.884   4.561   5.830 -0.1214 -0.0416 -0.2568
11485TIP3    H155870   3.894   4.560   5.735  1.9900  1.4416 -0.0801
11485TIP3    H255871   3.970   4.538   5.864 -0.0562  2.3657  1.3099
11486TIP3   OH255872   6.469   6.458   1.605  0.3056 -0.2614  0.1438
11486TIP3    H155873   6.514   6.417   1.531 -0.0871  1.1105 -0.8689
11486TIP3    H255874   6.519   6.539   1.622 -0.3211  0.0330  0.6086
11487TIP3   OH255875   6.265   2.394  16.258  0.2707 -0.3178 -0.4694
11487TIP3    H155876   6.291   2.469  16.312  1.2602  1.6854 -3.6211
11487TIP3    H255877   6.188   2.424  16.210 -0.0875 -1.7802 -0.8429
11488TIP3   OH255878   0.636   6.232   4.229 -0.0429 -0.2917 -0.5400
11488TIP3    H155879   0.725   6.256   4.254 -0.5591 -1.8480  3.1896
11488TIP3    H255880   0.647   6.154   4.174  0.8870 -0.9195  0.5094
11489TIP3   OH255881   4.386   3.526  15.318 -0.0465 -0.2816  0.5881
11489TIP3    H155882   4.358   3.539  15.227 -0.2325  0.6342  0.7667
11489TIP3    H255883   4.370   3.611  15.360 -0.0598 -0.7306  1.5027
11490TIP3   OH255884   6.700   5.712   0.189  0.1091 -0.0017  0.1457
11490TIP3    H155885   6.745   5.724   0.274 -1.2019  0.1150  0.8336
11490TIP3    H255886   6.653   5.794   0.176  0.6812  0.1629 -0.9459
11491TIP3   OH255887   0.286   1.193   5.604 -0.0566 -0.0747  0.3372
11491TIP3    H155888   0.202   1.235   5.623  0.5457  1.5844 -0.5682
11491TIP3    H255889   0.298   1.205   5.510  2.5561  2.2918  0.9089
11492TIP3   OH255890   6.435   5.712  16.094 -0.4470  0.8417 -0.1714
11492TIP3    H155891   6.380   5.739  16.168  0.4333  0.4862  0.6304
11492TIP3    H255892   6.385   5.642  16.052  0.4115 -1.1508  1.9725
11493TIP3   OH255893   2.271   4.676   2.694 -0.5202 -0.4649  0.5067
11493TIP3    H155894   2.302   4.642   2.778  1.1056 -1.7289 -0.5672
11493TIP3    H255895   2.176   4.675   2.701 -0.4006 -0.2451  2.4448
11494TIP3   OH255896   3.893   4.713   1.642 -0.5033  0.0891 -0.4994
11494TIP3    H155897   3.919   4.633   1.597 -0.0566  0.7297 -1.3921
11494TIP3    H255898   3.975   4.751   1.674 -0.6231  0.6238 -0.8150
11495TIP3   OH255899   5.440   0.112   4.203 -0.2271 -0.2485 -0.2497
11495TIP3    H155900   5.440   0.033   4.257  2.9618 -0.8296 -1.0082
11495TIP3    H255901   5.451   0.184   4.264  0.3257 -0.6753  0.1599
11496TIP3   OH255902   5.087   6.688   6.057 -0.1588  0.3872 -0.0522
11496TIP3    H155903   5.168   6.724   6.022  0.2459  1.1261  1.5522
11496TIP3    H255904   5.033   6.765   6.077 -0.2384  0.0161  1.2153
11497TIP3   OH255905   4.477   3.133   4.119 -0.4761 -0.5632  0.1118
11497TIP3    H155906   4.519   3.212   4.084  0.8991  0.0009  2.8830
11497TIP3    H255907   4.525   3.060   4.078  1.0814  0.0748  0.7466
11498TIP3   OH255908   3.016   4.560   3.306  0.2352  0.3091 -0.2965
11498TIP3    H155909   3.090   4.500   3.310  0.5541  0.8030  1.7423
11498TIP3    H255910   2.940   4.506   3.329  0.2769  0.2819 -0.2203
11499TIP3   OH255911   4.244   1.229  17.154  0.0739  0.3088 -0.0759
11499TIP3    H155912   4.290   1.257  17.075  1.6272  1.1020  1.0688
11499TIP3    H255913   4.167   1.286  17.158  1.7491  2.6164  0.7433
11500TIP3   OH255914   1.916   4.091   2.849  0.0079  0.1777 -0.2116
11500TIP3    H155915   1.954   4.176   2.828 -0.7903  1.1786  2.2460
11500TIP3    H255916   1.827   4.094   2.814 -0.4082  0.8112  0.8808
11501TIP3   OH255917   4.101   0.655   5.476  0.0937 -0.2676  0.5710
11501TIP3    H155918   4.028   0.716   5.464 -0.2719 -0.5643  1.2664
11501TIP3    H255919   4.160   0.673   5.402  0.0329  0.9865  0.8142
11502TIP3   OH255920   4.072   5.564  12.761 -0.0460  0.6001 -0.4093
11502TIP3    H155921   4.016   5.497  12.722  2.8068 -2.4640  0.5874
11502TIP3    H255922   4.144   5.574  12.699  1.4692  0.0088  1.2307
11503TIP3   OH255923   0.064   5.528   3.499 -0.0303 -0.1528 -0.3692
11503TIP3    H155924   0.010   5.559   3.571 -1.1295 -1.6072 -0.5396
11503TIP3    H255925   0.104   5.607   3.463  0.0004  0.6645  1.3857
11504TIP3   OH255926   1.709   1.521  16.855 -0.2173 -0.3044  0.1349
11504TIP3    H155927   1.643   1.578  16.894 -2.2088 -1.6014 -1.3007
11504TIP3    H255928   1.721   1.451  16.919  1.2967  0.9591  1.3048
11505TIP3   OH255929   4.395   3.170  13.536 -0.3793  0.3901  0.0987
11505TIP3    H155930   4.402   3.207  13.624  1.0010  0.8918 -0.1999
11505TIP3    H255931   4.435   3.084  13.542  0.4111  0.7310 -0.2037
11506TIP3   OH255932   6.197   4.102  16.467 -0.6923 -0.4628  0.7593
11506TIP3    H155933   6.212   4.107  16.372  0.1891  1.1058  0.9700
11506TIP3    H255934   6.159   4.015  16.480 -2.6163 -0.0006 -1.2907
11507TIP3   OH255935   1.763   2.908   3.266  0.4040 -0.2509  0.3375
11507TIP3    H155936   1.690   2.963   3.295 -0.3850 -0.2078 -1.6376
11507TIP3    H255937   1.723   2.824   3.244  1.0459 -0.4431 -0.1176
11508TIP3   OH255938   3.541   3.588   4.079  0.4309 -0.4902  0.1533
11508TIP3    H155939   3.540   3.600   3.984  2.0030 -2.1517 -0.0964
11508TIP3    H255940   3.568   3.497   4.092  2.0311  0.2415  2.2265
11509TIP3   OH255941   0.238   1.115  12.499  0.1981  0.0421 -0.5772
11509TIP3    H155942   0.315   1.138  12.551 -0.5899  2.4629 -0.4140
11509TIP3    H255943   0.172   1.089  12.563 -0.4631  2.0999 -0.3808
11510TIP3   OH255944   5.467   3.236  14.281 -0.1662  0.1883  0.0526
11510TIP3    H155945   5.417   3.315  14.259  0.2461  0.4547  0.0603
11510TIP3    H255946   5.559   3.261  14.266 -0.2060 -1.2149 -2.9009
11511TIP3   OH255947   2.825   4.881   3.211  0.1041  0.2995 -0.5235
11511TIP3    H155948   2.843   4.945   3.142 -0.5216  0.4596 -0.5463
11511TIP3    H255949   2.795   4.934   3.285  1.0555  0.1557 -0.0209
11512TIP3   OH255950   4.582   3.370   3.364  0.0389 -0.0565 -0.2857
11512TIP3    H155951   4.672   3.401   3.366 -0.0245  0.1214 -0.0184
11512TIP3    H255952   4.532   3.444   3.329 -0.3286  0.7361  1.8360
11513TIP3   OH255953   1.847   0.565   2.029  0.5224 -0.2371  0.2998
11513TIP3    H155954   1.756   0.539   2.044  0.7184 -1.4103 -0.4234
11513TIP3    H255955   1.854   0.653   2.066 -0.5121 -0.7257  1.6984
11514TIP3   OH255956   5.901   0.434   4.866  0.9478  0.3349 -0.0222
11514TIP3    H155957   5.988   0.443   4.904  1.1257 -0.5632 -0.1927
11514TIP3    H255958   5.911   0.459   4.775  1.4204 -1.4053 -0.4767
11515TIP3   OH255959   5.750   1.735   4.657  0.0722  0.3867 -0.1077
11515TIP3    H155960   5.818   1.771   4.713 -0.8191 -0.9584  1.8987
11515TIP3    H255961   5.735   1.802   4.591  2.0867  1.4337  0.4728
11516TIP3   OH255962   2.003   3.342  16.409  0.0271  0.4077  0.0912
11516TIP3    H155963   1.966   3.284  16.342  1.1847 -0.6740  0.3759
11516TIP3    H255964   1.955   3.319  16.489  0.2906  0.0412  0.1419
11517TIP3   OH255965   3.912   4.945  16.402 -0.2541 -0.3384 -0.3355
11517TIP3    H155966   3.853   4.967  16.474  0.3562  1.2218 -0.3034
11517TIP3    H255967   3.986   4.901  16.444 -0.2540 -0.1057 -0.0891
11518TIP3   OH255968   2.811   3.172  16.655  0.3375 -0.1359  0.1379
11518TIP3    H155969   2.825   3.234  16.583  0.1272 -1.1532 -0.7885
11518TIP3    H255970   2.829   3.086  16.617  0.4925 -0.6632  1.3793
11519TIP3   OH255971   2.304   3.073  12.774  0.2017 -0.3994  0.6068
11519TIP3    H155972   2.395   3.076  12.804  1.3151 -2.7339 -2.3210
11519TIP3    H255973   2.263   3.008  12.830  0.7069 -0.4266  0.9544
11520TIP3   OH255974   3.783   6.074   4.192 -0.2906  0.3451 -0.7764
11520TIP3    H155975   3.752   6.000   4.243  1.4224 -0.8446 -1.4264
11520TIP3    H255976   3.776   6.046   4.101  2.0363  0.2760 -0.9656
11521TIP3   OH255977   0.401   6.461   3.829 -0.7467 -0.4224 -0.2970
11521TIP3    H155978   0.416   6.542   3.780  0.3418 -0.4894 -0.0894
11521TIP3    H255979   0.362   6.490   3.911 -1.4198 -0.2078 -0.6868
11522TIP3   OH255980   5.137   5.601   2.175  0.4184  0.2308 -0.8242
11522TIP3    H155981   5.102   5.573   2.090 -3.1888  1.2163  0.2137
11522TIP3    H255982   5.153   5.695   2.164  0.4193  0.2572 -0.6049
11523TIP3   OH255983   3.445   0.096  15.512  0.8429  0.1195 -1.0193
11523TIP3    H155984   3.507   0.028  15.540  1.0802  0.9904  0.6564
11523TIP3    H255985   3.419   0.070  15.424  0.8886 -2.1785 -0.3869
11524TIP3   OH255986   6.322   0.688  13.332 -0.1102  0.2578 -0.1868
11524TIP3    H155987   6.295   0.663  13.420 -0.6542  2.3711  0.2755
11524TIP3    H255988   6.408   0.729  13.344  0.7350 -1.2587 -0.9150
11525TIP3   OH255989   6.309   3.582  16.936  0.0455  0.1966 -0.1009
11525TIP3    H155990   6.345   3.602  16.850  1.2715  1.0295  0.5877
11525TIP3    H255991   6.217   3.608  16.931  0.0774  0.1093 -1.1932
11526TIP3   OH255992   2.063   0.043   5.763 -0.1233  0.6828 -0.5420
11526TIP3    H155993   2.046   0.047   5.669  0.3491  1.9813 -0.5798
11526TIP3    H255994   1.995   0.097   5.802  0.9660  1.8938 -0.3068
11527TIP3   OH255995   4.827   6.490   0.982  0.1436  0.3016 -0.4860
11527TIP3    H155996   4.906   6.468   1.031 -1.7449 -0.5407  2.2875
11527TIP3    H255997   4.825   6.586   0.982  1.9139  0.3563 -1.8663
11528TIP3   OH255998   5.060   4.908  15.905  0.4666 -0.5561 -0.0774
11528TIP3    H155999   5.153   4.917  15.928  1.1575  0.6522 -3.1065
11528TIP3    H256000   5.060   4.898  15.810 -2.5580  0.0672 -0.1802
11529TIP3   OH256001   1.156   5.223  14.243  0.5157  0.0771 -0.1038
11529TIP3    H156002   1.064   5.215  14.268  0.5910 -1.7692 -0.2909
11529TIP3    H256003   1.195   5.141  14.275  1.5576 -0.2740 -2.2358
11530TIP3   OH256004   4.711   0.339   4.626  0.1538  0.0252 -0.4735
11530TIP3    H156005   4.741   0.351   4.716  2.5685 -0.3374 -1.1944
11530TIP3    H256006   4.636   0.398   4.618  0.3039  0.5414  1.5775
11531TIP3   OH256007   5.116   0.712  16.840 -0.6448 -0.4206 -0.1432
11531TIP3    H156008   5.056   0.640  16.819 -0.7125 -0.1624 -0.8441
11531TIP3    H256009   5.203   0.677  16.819 -0.7264 -0.1090 -1.0129
11532TIP3   OH256010   0.736   3.438  14.418  0.0563  0.3782  0.0410
11532TIP3    H156011   0.768   3.463  14.332  0.0414 -1.9341 -0.6786
11532TIP3    H256012   0.662   3.496  14.434  0.5579  1.3714 -1.1321
11533TIP3   OH256013   6.239   5.883   3.601 -0.4661 -0.6240 -0.5516
11533TIP3    H156014   6.256   5.795   3.636  0.3671 -0.8326 -1.4664
11533TIP3    H256015   6.151   5.904   3.632 -0.2528 -1.3409  0.5714
11534TIP3   OH256016   0.738   3.770   4.088  0.0630 -0.4275  0.3493
11534TIP3    H156017   0.692   3.849   4.117  3.2186  1.3977  0.6605
11534TIP3    H256018   0.734   3.773   3.993 -0.5436 -0.3249  0.3794
11535TIP3   OH256019   4.294   1.102   4.334  0.0192  0.1646 -0.0922
11535TIP3    H156020   4.315   1.052   4.255 -1.2223  1.0169 -0.9801
11535TIP3    H256021   4.371   1.159   4.347  0.7886 -0.9059  0.0798
11536TIP3   OH256022   6.253   2.519   2.346  0.0296  0.4150 -0.2802
11536TIP3    H156023   6.255   2.510   2.251 -2.7700 -1.9351 -0.1771
11536TIP3    H256024   6.293   2.438   2.378 -0.4616  0.5059  0.5592
11537TIP3   OH256025   1.375   4.887   4.939  0.0924 -0.1091  0.4648
11537TIP3    H156026   1.454   4.835   4.954  0.4840  0.3058 -0.0978
11537TIP3    H256027   1.408   4.973   4.913 -0.5503  0.4837  1.6061
11538TIP3   OH256028   6.006   0.643  14.422  0.1566 -0.4445 -0.5670
11538TIP3    H156029   5.937   0.581  14.445  0.0452  0.3904  1.4514
11538TIP3    H256030   6.086   0.591  14.417 -0.2414 -1.0431 -0.7273
11539TIP3   OH256031   3.950   6.499   0.861  0.7356 -0.3899  0.0903
11539TIP3    H156032   3.891   6.571   0.837  0.4876 -1.0531 -1.3459
11539TIP3    H256033   4.027   6.512   0.806  1.9728  0.4884  1.9803
11540TIP3   OH256034   0.383   1.266  14.729 -0.1398  0.0843 -0.1007
11540TIP3    H156035   0.378   1.172  14.710 -1.9618  0.4157 -1.4424
11540TIP3    H256036   0.353   1.308  14.648  0.3913  1.8258  0.5813
11541TIP3   OH256037   5.753   2.729  14.880 -0.8130 -0.3870 -0.5626
11541TIP3    H156038   5.803   2.667  14.933 -0.0828 -0.5606 -1.4562
11541TIP3    H256039   5.707   2.674  14.816 -0.6286 -0.0661 -0.9771
11542TIP3   OH256040   5.537   3.468  12.425  0.0751  0.1165  0.0198
11542TIP3    H156041   5.523   3.412  12.501  0.1670 -2.4723 -1.8174
11542TIP3    H256042   5.451   3.474  12.383  0.3392  0.2501 -0.5089
11543TIP3   OH256043   0.899   6.518   1.748 -0.5177  0.0230 -0.1691
11543TIP3    H156044   0.962   6.583   1.780  0.1339 -0.5912 -0.1879
11543TIP3    H256045   0.913   6.442   1.804 -2.5026  0.4894  0.9969
11544TIP3   OH256046   4.320   3.774  11.952  0.0894  0.3911  0.2712
11544TIP3    H156047   4.343   3.725  12.030 -0.3551 -0.9822 -0.4488
11544TIP3    H256048   4.346   3.718  11.879 -0.6786  1.0887 -0.5634
11545TIP3   OH256049   5.614   0.630  10.952 -0.1242 -0.2549 -0.0427
11545TIP3    H156050   5.669   0.620  10.874 -0.0223 -0.1660  0.0175
11545TIP3    H256051   5.624   0.721  10.978 -0.2686 -0.2487 -0.0068
11546TIP3   OH256052   4.091   5.071   2.412 -0.5136  0.0232  0.0502
11546TIP3    H156053   4.187   5.066   2.412 -0.4427  0.5529 -2.3435
11546TIP3    H256054   4.062   4.981   2.422  0.2419 -0.2114  0.1563
11547TIP3   OH256055   4.871   4.026   2.200 -0.2360  0.1935 -0.3423
11547TIP3    H156056   4.788   3.985   2.223 -0.3147  1.2045  1.2885
11547TIP3    H256057   4.851   4.120   2.196  0.8025  0.4412  0.0443
11548TIP3   OH256058   5.683   0.400   3.214 -0.0841  0.0797  0.2363
11548TIP3    H156059   5.758   0.360   3.169 -0.9240  0.0711 -1.1819
11548TIP3    H256060   5.717   0.483   3.247  0.0537  1.0059 -2.1378
11549TIP3   OH256061   3.821   5.533  13.268  1.1048  0.1803  0.2715
11549TIP3    H156062   3.882   5.463  13.246  1.7757  0.3285  1.5895
11549TIP3    H256063   3.877   5.609  13.285  0.5910  0.1859  1.9922
11550TIP3   OH256064   6.308   6.530   0.380  0.4011 -0.0925  0.4540
11550TIP3    H156065   6.224   6.544   0.336 -0.2985 -0.2824  1.6948
11550TIP3    H256066   6.357   6.472   0.321  0.0377  0.7810 -0.7247
11551TIP3   OH256067   2.975   2.438  14.170  0.1432 -0.0330 -0.0908
11551TIP3    H156068   2.930   2.361  14.136  0.8906 -0.5453  0.0663
11551TIP3    H256069   2.936   2.454  14.256  0.0264 -0.2698 -0.1015
11552TIP3   OH256070   4.907   5.478   4.714 -0.0031 -0.2316  0.2701
11552TIP3    H156071   4.819   5.440   4.721 -0.4797  0.7131 -0.4730
11552TIP3    H256072   4.933   5.494   4.805 -0.8459  0.0262  0.4670
11553TIP3   OH256073   1.637   3.338   1.015  0.1398 -0.7819 -0.2359
11553TIP3    H156074   1.594   3.323   0.931  0.3951 -1.2732 -0.2784
11553TIP3    H256075   1.637   3.253   1.058 -0.7137 -0.3603  0.6129
11554TIP3   OH256076   3.425   1.638   4.504 -0.5362  0.3799  0.0996
11554TIP3    H156077   3.413   1.563   4.563  0.4824 -0.0151 -0.1737
11554TIP3    H256078   3.337   1.659   4.474 -0.8178 -0.8847 -0.0095
11555TIP3   OH256079   0.920   0.057  11.796  0.0468  0.1636 -0.1325
11555TIP3    H156080   0.848  -0.005  11.786  0.5450 -0.4537  0.0111
11555TIP3    H256081   0.929   0.098  11.710 -2.1173  2.1007  0.5123
11556TIP3   OH256082   6.088   3.703   0.891 -0.3760  0.3907  0.4120
11556TIP3    H156083   6.100   3.620   0.844 -2.2778  0.5395 -0.3971
11556TIP3    H256084   6.008   3.740   0.853  1.1149  3.2075 -0.1384
11557TIP3   OH256085   0.107   3.076  14.187  0.3188 -0.0674 -0.3803
11557TIP3    H156086   0.163   3.001  14.209  0.3390  0.3729  1.1147
11557TIP3    H256087   0.018   3.041  14.191  0.3020  0.1001  0.7924
11558TIP3   OH256088   4.180   3.470   3.275 -0.3471  0.2028 -0.5621
11558TIP3    H156089   4.177   3.554   3.321  0.0652 -0.7115  1.1804
11558TIP3    H256090   4.108   3.475   3.211 -1.0044  1.4621  0.2622
11559TIP3   OH256091   1.772   0.956   4.504 -0.0378 -0.6828  0.5674
11559TIP3    H156092   1.767   0.987   4.595 -0.3133  4.3520 -1.0273
11559TIP3    H256093   1.862   0.927   4.494  0.5669  0.6497  1.9046
11560TIP3   OH256094   3.121   2.323   1.340 -0.8963  0.5873  0.1820
11560TIP3    H156095   3.133   2.262   1.268  0.7989  0.3571  0.6377
11560TIP3    H256096   3.151   2.407   1.306  1.6743  0.1151  1.1614
11561TIP3   OH256097   4.292   2.925   3.251 -0.1373  0.4540  0.3215
11561TIP3    H156098   4.387   2.929   3.261  0.1281  1.4298 -2.2142
11561TIP3    H256099   4.263   3.016   3.262 -0.8542  0.0812  1.6138
11562TIP3   OH256100   3.928   0.921  11.026 -0.1345  0.2781 -0.1581
11562TIP3    H156101   3.883   0.891  11.105  0.9730  0.7650  0.6959
11562TIP3    H256102   4.001   0.973  11.060  0.3541  0.4963 -1.5187
11563TIP3   OH256103   0.022   1.476  11.800 -0.2795  0.9061 -0.3435
11563TIP3    H156104  -0.070   1.449  11.805 -0.2308  0.9768  1.3953
11563TIP3    H256105   0.070   1.400  11.834  0.1134  1.7463  1.0386
11564TIP3   OH256106   1.651   6.071  12.031  0.6887  0.1398 -0.6153
11564TIP3    H156107   1.711   6.079  11.956  1.7231  1.0071  0.2856
11564TIP3    H256108   1.661   5.980  12.059  0.8369  0.0078 -1.0829
11565TIP3   OH256109   5.409   2.022  13.877 -0.3335 -0.3714  0.3565
11565TIP3    H156110   5.492   2.040  13.922 -0.3516 -1.1670  0.7203
11565TIP3    H256111   5.432   1.960  13.808 -0.5149 -0.0822  0.0340
11566TIP3   OH256112   1.350   1.390   1.202 -0.8170 -0.1122 -0.1191
11566TIP3    H156113   1.339   1.485   1.206 -0.2982 -0.0205 -0.6829
11566TIP3    H256114   1.309   1.365   1.119 -1.3576 -0.4428  0.2467
11567TIP3   OH256115   4.981   0.311  10.606  0.1158 -0.0456 -0.5809
11567TIP3    H156116   5.027   0.295  10.689 -1.3154 -1.2335  0.0069
11567TIP3    H256117   4.993   0.230  10.557  0.6739  0.5344 -1.3980
11568TIP3   OH256118   1.873   0.065  11.499 -0.0768  0.2596  0.0349
11568TIP3    H156119   1.895   0.103  11.414 -0.5185 -0.3736 -0.3647
11568TIP3    H256120   1.784   0.030  11.487 -0.2063  0.3234  0.8077
11569TIP3   OH256121   5.771   2.744  13.721  0.0265  0.1329  0.0323
11569TIP3    H156122   5.677   2.740  13.709 -0.0549 -0.9220  0.9532
11569TIP3    H256123   5.798   2.824  13.675 -1.3239  0.5154 -0.1090
11570TIP3   OH256124   1.350   6.668   2.238  0.2890  0.1518 -0.0358
11570TIP3    H156125   1.439   6.634   2.233  0.5429  0.5397  1.4905
11570TIP3    H256126   1.306   6.611   2.301 -0.8652 -0.7030 -1.5796
11571TIP3   OH256127   1.328   4.066   2.847 -0.2211 -0.1848  0.3903
11571TIP3    H156128   1.346   3.986   2.896  1.1648  0.0799  0.3490
11571TIP3    H256129   1.268   4.116   2.903 -2.1667 -1.8171 -0.1848
11572TIP3   OH256130   2.703   1.151   2.863 -0.5461  0.3888  0.6461
11572TIP3    H156131   2.796   1.152   2.839 -0.4955 -2.1398  0.5314
11572TIP3    H256132   2.693   1.223   2.925  1.8756 -0.3173  1.9243
11573TIP3   OH256133   3.339   5.462   3.034 -0.2964 -0.1077 -0.4206
11573TIP3    H156134   3.397   5.432   2.965  0.5469 -1.4797  0.8511
11573TIP3    H256135   3.393   5.518   3.089 -1.5027  2.6872 -1.9884
11574TIP3   OH256136   5.254   4.350   1.418  0.4010 -0.0333 -0.4056
11574TIP3    H156137   5.186   4.400   1.373  0.9107  1.7207  0.7270
11574TIP3    H256138   5.331   4.359   1.362  0.1619 -0.6167 -0.8363
11575TIP3   OH256139   5.049   1.331  15.889  0.4860  0.4157  0.2931
11575TIP3    H156140   5.001   1.341  15.971 -0.9218  1.0574 -0.5915
11575TIP3    H256141   5.128   1.283  15.914 -0.6827 -0.8261  1.7382
11576TIP3   OH256142   3.221   5.997   1.141  0.0245  0.2409 -0.5794
11576TIP3    H156143   3.286   5.950   1.088  0.2140 -0.3412  0.1499
11576TIP3    H256144   3.188   6.066   1.084 -2.3601 -2.5157 -2.6961
11577TIP3   OH256145   5.831   2.589  14.239 -0.2015 -0.1225 -1.1020
11577TIP3    H156146   5.776   2.519  14.202 -0.6168 -0.4971  0.1953
11577TIP3    H256147   5.781   2.669  14.223 -1.9109 -0.6337  1.4960
11578TIP3   OH256148   3.026   3.962  11.102 -0.0215 -0.8238  0.0603
11578TIP3    H156149   3.057   3.880  11.141 -0.5234 -0.5357  1.0813
11578TIP3    H256150   2.956   3.935  11.043  1.2737 -1.3418 -1.2438
11579TIP3   OH256151   5.955   2.976  16.032  0.3858  0.4802  0.1714
11579TIP3    H156152   5.890   3.045  16.041  0.5752  0.6560  0.2052
11579TIP3    H256153   6.019   2.993  16.101  1.0301  0.9378 -0.5265
11580TIP3   OH256154   6.585   5.097   5.778  0.3401  0.5556 -0.4929
11580TIP3    H156155   6.595   5.010   5.739  0.9215  0.2857  0.2452
11580TIP3    H256156   6.673   5.120   5.809 -0.0678  0.8481  0.4769
11581TIP3   OH256157   3.803   6.599   0.510  0.0320  0.2917 -0.2313
11581TIP3    H156158   3.712   6.608   0.479  0.1973  0.6613 -0.6216
11581TIP3    H256159   3.807   6.652   0.589  0.2374  1.3341 -0.9219
11582TIP3   OH256160   1.522   5.330   3.396 -0.2130 -0.0107  0.1811
11582TIP3    H156161   1.567   5.413   3.411  0.4430  0.1721 -2.5577
11582TIP3    H256162   1.582   5.280   3.340 -1.2592 -1.7331  0.5698
11583TIP3   OH256163   3.130   2.906  16.128 -0.0794  0.6603 -0.2612
11583TIP3    H156164   3.071   2.982  16.120 -1.6208 -0.4607  0.1178
11583TIP3    H256165   3.163   2.892  16.040  0.1956  1.7480 -0.3429
11584TIP3   OH256166   4.317   6.196   4.507  0.1151  0.5846 -0.7058
11584TIP3    H156167   4.309   6.145   4.588 -0.5013  2.1683  0.2430
11584TIP3    H256168   4.400   6.243   4.516  0.1943  0.5309 -1.1328
11585TIP3   OH256169   4.820   5.288   5.135 -0.0392  0.1975 -0.4889
11585TIP3    H156170   4.800   5.219   5.073 -1.9913  1.2086 -1.0068
11585TIP3    H256171   4.842   5.364   5.081 -0.3237  0.6781  0.0582
11586TIP3   OH256172   3.462   2.961   1.353  0.8041  0.3627 -1.0305
11586TIP3    H156173   3.438   2.904   1.280 -1.1457 -1.6653  1.1284
11586TIP3    H256174   3.557   2.953   1.359  1.0135  0.6134 -3.3573
11587TIP3   OH256175   5.038   0.571  15.847  0.4195 -0.1750  0.3602
11587TIP3    H156176   4.978   0.498  15.830 -1.1111  1.0371  0.4515
11587TIP3    H256177   5.111   0.557  15.787  0.5500 -2.2479  0.9666
11588TIP3   OH256178   4.241   6.284  12.420  0.4228  0.0929 -0.1347
11588TIP3    H156179   4.222   6.349  12.353  1.9724  0.2707 -0.4242
11588TIP3    H256180   4.155   6.253  12.449 -0.2935  1.3004 -0.9298
11589TIP3   OH256181   0.193   1.459   5.193  0.6761  0.0193 -0.5125
11589TIP3    H156182   0.127   1.397   5.162  1.1558 -0.2924 -0.9130
11589TIP3    H256183   0.169   1.543   5.152 -0.6957  0.3921  1.0083
11590TIP3   OH256184   3.219   4.574  15.503  0.2436 -0.1225  0.1398
11590TIP3    H156185   3.143   4.518  15.521 -0.3946  0.1603 -1.5180
11590TIP3    H256186   3.223   4.633  15.578 -1.1016 -0.2531  0.3375
11591TIP3   OH256187   0.737   6.185   4.938  0.2492  0.4215 -0.2987
11591TIP3    H156188   0.820   6.204   4.980 -0.2755  1.8358  0.1442
11591TIP3    H256189   0.755   6.193   4.845  0.4840  1.3256 -0.1846
11592TIP3   OH256190   4.399   3.269  11.293  0.1371  0.8451 -0.0069
11592TIP3    H156191   4.397   3.213  11.215 -0.5681  2.2704 -1.0359
11592TIP3    H256192   4.399   3.208  11.366  1.8569 -0.5336 -1.1270
11593TIP3   OH256193   4.841   3.452   3.335 -0.2383  0.3749  0.8502
11593TIP3    H156194   4.914   3.490   3.384 -0.3323  0.6441  0.7844
11593TIP3    H256195   4.852   3.487   3.246 -0.1136 -0.0492  0.7003
11594TIP3   OH256196   5.637   5.073   2.509 -0.3359  0.4149 -0.6128
11594TIP3    H156197   5.687   5.134   2.455  1.2904 -1.6064 -1.4428
11594TIP3    H256198   5.592   5.017   2.447  0.2098 -0.8533  0.1156
11595TIP3   OH256199   5.590   2.343  14.553  0.0198 -0.3584  0.4611
11595TIP3    H156200   5.612   2.353  14.461 -1.5012  2.4554  0.3133
11595TIP3    H256201   5.668   2.373  14.600  0.7466 -1.6691  0.1108
11596TIP3   OH256202   0.752   1.714  12.959 -0.0708 -0.2802 -0.7054
11596TIP3    H156203   0.720   1.636  12.914  1.2524 -0.6139 -1.1145
11596TIP3    H256204   0.776   1.684  13.047 -0.7894 -0.0554 -0.4345
11597TIP3   OH256205   3.991   6.616  16.110  0.2286 -0.3268 -0.3972
11597TIP3    H156206   3.896   6.606  16.119  0.4384 -0.5775  1.7822
11597TIP3    H256207   4.027   6.530  16.130  1.0504  0.4394  1.5800
11598TIP3   OH256208   2.673   5.335   2.937  0.1624  0.7305  0.5075
11598TIP3    H156209   2.655   5.385   3.016 -0.1025 -0.0680  0.9553
11598TIP3    H256210   2.764   5.308   2.946 -0.2228 -0.3654  1.0973
11599TIP3   OH256211   0.414   3.530   4.372  0.0245 -0.0512 -0.1250
11599TIP3    H156212   0.404   3.449   4.322 -1.1014 -0.1007  0.1594
11599TIP3    H256213   0.438   3.596   4.307  1.3340 -0.6883 -0.3026
11600TIP3   OH256214   4.052   2.898  14.665 -0.1821  0.1977  0.1633
11600TIP3    H156215   4.066   2.813  14.623 -0.5124  0.1802  0.0921
11600TIP3    H256216   3.967   2.892  14.707  0.8816 -0.3699  2.3032
11601TIP3   OH256217   0.394   1.489   5.873  0.0837  0.2774 -0.1566
11601TIP3    H156218   0.364   1.560   5.931 -0.7053  0.3431 -0.6373
11601TIP3    H256219   0.332   1.490   5.800  0.7978 -0.1106 -0.7738
11602TIP3   OH256220   5.124   0.317   5.613  0.9883  0.1011  0.3800
11602TIP3    H156221   5.156   0.241   5.662 -1.3050 -0.1915  1.5412
11602TIP3    H256222   5.083   0.280   5.535 -0.4692  0.0596  1.1325
11603TIP3   OH256223   0.179   4.169   2.178 -0.2537 -0.3001  0.3678
11603TIP3    H156224   0.214   4.245   2.131  0.9527 -0.5358  0.8641
11603TIP3    H256225   0.091   4.157   2.142  0.1535  0.3364 -0.8761
11604TIP3   OH256226   4.555   5.438   3.683 -0.3839 -0.4566  0.2218
11604TIP3    H156227   4.576   5.420   3.775 -1.1687  2.6918  1.0685
11604TIP3    H256228   4.470   5.396   3.670 -0.4071 -0.6773  1.0267
11605TIP3   OH256229   5.320   1.829   3.674 -0.1580  0.4272  0.1395
11605TIP3    H156230   5.318   1.868   3.586 -1.5025 -0.1708 -0.1109
11605TIP3    H256231   5.228   1.832   3.703  0.5313  2.3814  2.3136
11606TIP3   OH256232   6.272   4.069  11.276  0.3756  0.4124  0.0887
11606TIP3    H156233   6.222   4.008  11.222  0.9540 -0.4913  0.5541
11606TIP3    H256234   6.212   4.141  11.294 -1.1655 -1.2002  1.6337
11607TIP3   OH256235   3.400   0.856  16.048  0.3656  0.3260  0.1183
11607TIP3    H156236   3.385   0.890  15.960 -1.3983 -1.1942 -0.1816
11607TIP3    H256237   3.448   0.926  16.093  0.6144  1.4130 -1.7990
11608TIP3   OH256238   0.379   4.035  15.462 -0.4558  0.0486  0.3238
11608TIP3    H156239   0.363   3.964  15.524 -0.4639  0.1557  0.4439
11608TIP3    H256240   0.319   4.018  15.390 -1.5493  0.7921  1.0459
11609TIP3   OH256241   5.015   4.695   5.412  0.4947  0.0889 -0.2468
11609TIP3    H156242   5.034   4.775   5.362  0.3172 -0.4201 -1.1328
11609TIP3    H256243   5.034   4.623   5.352  1.7031 -0.5787  0.9148
11610TIP3   OH256244   5.589   5.432   0.748  0.6057  0.1668 -0.6727
11610TIP3    H156245   5.526   5.495   0.784 -0.5986 -1.4212  0.0400
11610TIP3    H256246   5.671   5.482   0.740 -0.3783  1.8729 -0.3073
11611TIP3   OH256247   0.525   2.639  17.167  0.0559 -0.4476 -0.5568
11611TIP3    H156248   0.589   2.664  17.100  0.9261 -1.5721 -0.1426
11611TIP3    H256249   0.461   2.585  17.120  0.7313 -1.3363 -0.4566
11612TIP3   OH256250   3.101   4.401  14.862  0.5235  0.7463 -0.2436
11612TIP3    H156251   3.090   4.309  14.836 -2.1661  0.6812  1.0368
11612TIP3    H256252   3.013   4.437  14.860  1.3616  2.8970  0.8363
11613TIP3   OH256253   2.326   3.442  14.609 -0.5825 -0.1701  0.0685
11613TIP3    H156254   2.419   3.463  14.619 -0.3876 -0.7399 -0.5391
11613TIP3    H256255   2.298   3.492  14.532 -1.0221  0.7523  0.8055
11614TIP3   OH256256   0.984   2.322  13.279  0.0725 -0.2514 -0.3279
11614TIP3    H156257   0.908   2.376  13.301 -0.1369 -0.4665 -0.5195
11614TIP3    H256258   1.047   2.383  13.240  0.1601  0.0009  0.2076
11615TIP3   OH256259   2.451   0.151   3.088 -0.5581 -0.4357  0.0919
11615TIP3    H156260   2.379   0.211   3.067  0.6540  1.2453  0.5866
11615TIP3    H256261   2.458   0.155   3.183  1.3300  0.8360 -0.0638
11616TIP3   OH256262   2.501   1.077   1.205  0.1702  0.4892  0.2883
11616TIP3    H156263   2.571   1.139   1.187 -0.8159  1.0590 -1.6594
11616TIP3    H256264   2.426   1.110   1.156 -1.2364 -0.5878  1.6446
11617TIP3   OH256265   0.804   2.804   0.117 -0.1786 -0.1860 -0.3677
11617TIP3    H156266   0.764   2.890   0.110  2.0041  0.9395  0.5591
11617TIP3    H256267   0.800   2.769   0.028  3.7517  3.1542 -2.0312
11618TIP3   OH256268   5.356   2.030  14.418  0.3422 -0.0184  0.2298
11618TIP3    H156269   5.358   1.934  14.412 -2.5411 -0.0305 -1.1274
11618TIP3    H256270   5.372   2.060  14.328 -0.5352  0.7371  0.3192
11619TIP3   OH256271   2.701   4.209   1.745 -0.3658 -0.2668 -0.8179
11619TIP3    H156272   2.757   4.144   1.703  1.1278  1.3021 -1.3207
11619TIP3    H256273   2.739   4.221   1.832 -0.1535  0.4730 -1.0016
11620TIP3   OH256274   2.796   5.852   4.306  0.2476  0.0506 -0.2525
11620TIP3    H156275   2.891   5.859   4.320  0.5730 -1.9419 -1.2862
11620TIP3    H256276   2.762   5.936   4.335  2.1625  0.2582  1.5226
11621TIP3   OH256277   4.852   5.396   2.971 -0.4915  0.8610  0.0836
11621TIP3    H156278   4.834   5.334   2.900 -0.1960 -0.6071  1.2555
11621TIP3    H256279   4.877   5.477   2.927 -0.4427  0.0134 -1.4862
11622TIP3   OH256280   4.976   2.111  15.996 -0.2274  0.3713 -0.2315
11622TIP3    H156281   4.952   2.031  15.949  0.7243 -0.7075  1.0540
11622TIP3    H256282   5.035   2.081  16.065  1.5031  2.4154 -0.7648
11623TIP3   OH256283   3.357   2.024  12.002  0.1679 -0.1085 -0.2721
11623TIP3    H156284   3.375   2.068  11.919  0.6161 -0.2566 -0.2502
11623TIP3    H256285   3.442   1.997  12.034  0.2025  1.7249  1.2432
11624TIP3   OH256286   2.792   5.408   5.482 -0.2364 -0.2795 -0.4630
11624TIP3    H156287   2.830   5.399   5.395 -1.0658 -1.1430 -0.7361
11624TIP3    H256288   2.808   5.324   5.524 -0.9329 -0.2820 -0.2114
11625TIP3   OH256289   5.391   5.711   3.058  0.0705  1.0457  0.1043
11625TIP3    H156290   5.347   5.750   2.982 -1.7139  0.8598  1.0192
11625TIP3    H256291   5.443   5.640   3.021 -1.1034  0.6886 -0.9044
11626TIP3   OH256292   1.609   4.571   4.351  0.3113  0.3424  0.5755
11626TIP3    H156293   1.632   4.616   4.269  0.9199 -0.0368  0.5367
11626TIP3    H256294   1.693   4.558   4.395  0.1094 -0.5868  0.6816
11627TIP3   OH256295   4.510   1.561  11.600  0.2380 -0.0758 -0.1964
11627TIP3    H156296   4.468   1.608  11.673 -0.0313  0.8524 -0.9436
11627TIP3    H256297   4.447   1.494  11.575 -0.1653  0.3541 -0.3390
11628TIP3   OH256298   2.576   0.672  14.499 -0.3901 -0.0798 -0.4202
11628TIP3    H156299   2.526   0.592  14.488  0.1984 -0.6310  0.8041
11628TIP3    H256300   2.639   0.672  14.427  1.1007 -1.8611  0.8327
11629TIP3   OH256301   6.296   1.530   0.542 -0.4147 -1.1005 -0.1092
11629TIP3    H156302   6.243   1.541   0.621  1.4176  2.6128  0.7081
11629TIP3    H256303   6.381   1.501   0.574 -0.1116 -1.0711 -0.8720
11630TIP3   OH256304   4.111   5.464   5.191  0.2386 -0.4787 -0.4863
11630TIP3    H156305   4.206   5.475   5.178  0.4417 -1.0231  0.5632
11630TIP3    H256306   4.081   5.421   5.111  0.9432 -0.6749 -0.6454
11631TIP3   OH256307   1.148   6.192   5.561 -0.3116  0.0905  0.7847
11631TIP3    H156308   1.113   6.174   5.474 -1.5338  0.7741  1.1233
11631TIP3    H256309   1.121   6.282   5.579 -0.8553 -0.3586  2.2490
11632TIP3   OH256310   3.783   6.511  11.588  0.0068  0.1199  0.5697
11632TIP3    H156311   3.770   6.468  11.504 -0.2099  1.6090 -0.1776
11632TIP3    H256312   3.861   6.470  11.625 -0.0946 -0.7697 -0.2053
11633TIP3   OH256313   3.135   3.880   6.318 -0.0306  0.7046 -0.4486
11633TIP3    H156314   3.223   3.917   6.306  1.4621 -1.9640  1.5339
11633TIP3    H256315   3.106   3.857   6.230  1.7435  0.5842 -1.0222
11634TIP3   OH256316   1.282   1.921   1.200  0.0366  0.1171  0.1511
11634TIP3    H156317   1.344   1.993   1.202 -0.3609  0.5009 -1.2071
11634TIP3    H256318   1.205   1.954   1.248  1.0190 -0.5231  2.2368
11635TIP3   OH256319   6.161   3.246  14.297  0.3883  0.8177  0.0488
11635TIP3    H156320   6.233   3.267  14.237 -0.5634  2.4787 -0.5518
11635TIP3    H256321   6.204   3.228  14.380  1.4104  4.0817  0.2987
11636TIP3   OH256322   6.074   4.296   3.529 -0.2662 -0.3784  0.4723
11636TIP3    H156323   6.117   4.273   3.446  0.2489 -2.9116  1.4033
11636TIP3    H256324   6.121   4.245   3.595 -0.7953  1.4732  2.3207
11637TIP3   OH256325   6.219   3.885  12.064  0.1390 -0.1440  0.0601
11637TIP3    H156326   6.133   3.846  12.053  0.9126 -1.8232 -0.2429
11637TIP3    H256327   6.236   3.929  11.980 -0.4530  0.2492  0.1479
11638TIP3   OH256328   5.984   1.233  13.687  0.4601  0.6828 -0.6179
11638TIP3    H156329   5.977   1.225  13.782  0.3714  0.8763 -0.6067
11638TIP3    H256330   6.062   1.286  13.673  0.4988  0.6158 -0.6535
11639TIP3   OH256331   3.970   0.699   3.045 -0.5133 -0.3458 -0.0921
11639TIP3    H156332   4.030   0.681   3.118 -0.7839 -2.4005 -0.3434
11639TIP3    H256333   3.983   0.791   3.026  0.5197 -0.0874  1.7119
11640TIP3   OH256334   4.272   3.319   1.579 -0.3803 -0.1759 -0.8861
11640TIP3    H156335   4.354   3.274   1.598  0.0541  0.3577 -1.4717
11640TIP3    H256336   4.204   3.258   1.607  0.1933 -1.1832 -1.6455
11641TIP3   OH256337   0.477   2.016  11.729  0.4056  0.3960 -0.9747
11641TIP3    H156338   0.548   2.042  11.787  1.0356  0.9676 -1.9927
11641TIP3    H256339   0.515   1.950  11.671 -0.5456 -1.0613  0.0242
11642TIP3   OH256340   1.770   3.986   4.437 -0.1195 -0.3194 -0.5580
11642TIP3    H156341   1.825   3.977   4.359  2.3342  1.8566  0.8012
11642TIP3    H256342   1.706   4.054   4.413 -0.4771 -0.8985 -1.2498
11643TIP3   OH256343   4.599   6.457   4.679 -0.2897  0.0016 -0.4855
11643TIP3    H156344   4.529   6.520   4.665 -0.4363 -0.0225  0.1254
11643TIP3    H256345   4.578   6.415   4.763  0.7393  0.3706 -0.0273
11644TIP3   OH256346   6.495   5.161  17.130 -0.2005  0.4661 -0.3379
11644TIP3    H156347   6.579   5.206  17.120  0.5054 -0.8102 -0.2074
11644TIP3    H256348   6.493   5.097  17.060  0.3801 -1.7220  1.5990
11645TIP3   OH256349   6.731   1.182   1.339 -0.1352  0.0913 -0.8017
11645TIP3    H156350   6.813   1.155   1.380  0.4757  2.5643 -0.3001
11645TIP3    H256351   6.663   1.135   1.387  0.8194  0.2767  0.7586
11646TIP3   OH256352   0.249   1.283   0.315 -0.1229  0.2161 -0.1915
11646TIP3    H156353   0.330   1.248   0.352  0.0883  0.3395 -0.5399
11646TIP3    H256354   0.180   1.229   0.353  0.1890 -0.4502 -0.5784
11647TIP3   OH256355   4.701   2.738   3.818  0.3234 -0.8474  0.0945
11647TIP3    H156356   4.699   2.786   3.901  1.2230 -1.7198  0.6226
11647TIP3    H256357   4.625   2.772   3.769 -0.8623 -1.1115  1.7038
11648TIP3   OH256358   5.723   5.208  16.945 -0.2898 -0.0892 -0.0156
11648TIP3    H156359   5.661   5.261  16.995  1.0901  0.4628  1.1320
11648TIP3    H256360   5.802   5.261  16.939  0.9892 -1.8250  0.8034
11649TIP3   OH256361   0.825   4.739  16.995 -0.5684  0.3925  0.6329
11649TIP3    H156362   0.793   4.811  17.050 -1.9613  0.7062 -0.5406
11649TIP3    H256363   0.821   4.773  16.906 -0.7008 -0.9370  0.1129
11650TIP3   OH256364   2.797   3.426   0.983  0.6298 -0.6069  0.4512
11650TIP3    H156365   2.802   3.517   1.012  2.0063 -0.5675  0.1082
11650TIP3    H256366   2.861   3.379   1.036  0.9383 -1.1129 -0.3569
11651TIP3   OH256367   2.385   1.406  16.896 -0.3084 -0.3254 -0.1923
11651TIP3    H156368   2.453   1.346  16.925 -0.1940 -0.8914 -1.5885
11651TIP3    H256369   2.388   1.478  16.959  1.7358 -0.2454 -0.3477
11652TIP3   OH256370   5.575   2.669  11.561 -0.0603 -0.2017  0.5377
11652TIP3    H156371   5.509   2.694  11.625 -0.2447 -1.6861  0.9463
11652TIP3    H256372   5.530   2.675  11.477  0.0834  1.4171  0.5594
11653TIP3   OH256373   0.364   0.086  11.645  0.5028 -0.4285  0.3994
11653TIP3    H156374   0.396   0.082  11.734 -0.9838  3.2151  1.1682
11653TIP3    H256375   0.441   0.106  11.592  1.6123 -3.7382  0.6091
11654TIP3   OH256376   1.734   4.670  12.724  0.3849 -0.1415 -0.6145
11654TIP3    H156377   1.781   4.698  12.802 -1.3505 -0.5764  0.6151
11654TIP3    H256378   1.644   4.659  12.753 -0.4128  0.2645 -2.8210
11655TIP3   OH256379   4.547   6.687  14.668  0.0720 -0.0114  0.1929
11655TIP3    H156380   4.568   6.594  14.662  0.6342  0.1061  0.2951
11655TIP3    H256381   4.605   6.720  14.737 -1.0550  0.1433  1.0732
11656TIP3   OH256382   3.473   3.488  12.455  0.3807 -0.1364  0.0521
11656TIP3    H156383   3.403   3.530  12.506 -1.9602 -3.0054 -0.6727
11656TIP3    H256384   3.546   3.483  12.516 -1.0139  0.2707  1.8212
11657TIP3   OH256385   4.743   3.865   2.517 -0.8551  0.0763 -0.5440
11657TIP3    H156386   4.684   3.877   2.443 -0.2038 -0.2777 -1.1181
11657TIP3    H256387   4.825   3.836   2.479 -0.2338  0.7773  0.2390
11658TIP3   OH256388   0.295   2.546   1.674  0.0835  0.0497 -0.5520
11658TIP3    H156389   0.258   2.601   1.743  0.5762 -0.0265 -0.2233
11658TIP3    H256390   0.381   2.584   1.657 -0.1882  0.2924 -1.3901
11659TIP3   OH256391   3.643   1.819   6.541 -0.4308  0.0117 -0.4095
11659TIP3    H156392   3.604   1.899   6.505 -0.4604 -0.2237 -0.8989
11659TIP3    H256393   3.602   1.810   6.627  0.1532  0.9532 -0.0282
11660TIP3   OH256394   1.930   2.917   5.285 -0.7850  0.1631  0.3153
11660TIP3    H156395   1.936   3.012   5.295 -1.0883  0.2986 -0.7409
11660TIP3    H256396   1.985   2.882   5.356  0.6271  1.1539 -0.2613
11661TIP3   OH256397   1.287   0.608  16.759  0.1499 -0.1612 -0.2338
11661TIP3    H156398   1.358   0.561  16.716 -0.5996  0.8583 -2.7295
11661TIP3    H256399   1.257   0.671  16.693  0.3515  2.9856  2.5671
11662TIP3   OH256400   4.420   4.159  13.108  0.1584 -0.4686  0.3382
11662TIP3    H156401   4.338   4.207  13.107 -0.2563 -1.1250  1.6979
11662TIP3    H256402   4.405   4.083  13.053 -0.7434 -1.5136  1.9746
11663TIP3   OH256403   2.722   3.903  12.127  0.3919  0.1525  0.2673
11663TIP3    H156404   2.756   3.956  12.055 -0.3697  0.9852  0.5170
11663TIP3    H256405   2.639   3.944  12.149  1.1724  0.6256  2.4062
11664TIP3   OH256406   3.731   3.640  12.011 -0.2513 -1.1269 -0.6372
11664TIP3    H156407   3.667   3.588  12.059 -0.3535 -1.4500 -1.1288
11664TIP3    H256408   3.705   3.731  12.028  0.2986 -1.2183  0.7230
11665TIP3   OH256409   1.449   1.417  14.400  0.2588  0.2461 -0.0458
11665TIP3    H156410   1.525   1.365  14.425  1.4338  1.1882 -1.6213
11665TIP3    H256411   1.381   1.353  14.378  0.2024 -0.6037  2.4094
11666TIP3   OH256412   2.644   6.184   3.448  0.7366  0.3744 -0.7201
11666TIP3    H156413   2.614   6.099   3.481 -1.9098  1.4553 -0.2040
11666TIP3    H256414   2.727   6.200   3.493 -0.1118 -0.6976  1.2907
11667TIP3   OH256415   1.813   6.492  16.632 -0.3584 -0.1865 -0.2811
11667TIP3    H156416   1.802   6.410  16.584 -0.7359  0.2985 -1.0285
11667TIP3    H256417   1.811   6.466  16.724  0.9567 -1.1958 -0.5120
11668TIP3   OH256418   2.790   1.659   1.686  0.6891 -0.0858  0.1309
11668TIP3    H156419   2.702   1.635   1.716 -0.5815 -0.7065 -3.7928
11668TIP3    H256420   2.779   1.742   1.640  2.2252  0.0395 -0.0505
11669TIP3   OH256421   1.567   3.490  11.163 -0.2446  0.1032 -0.6387
11669TIP3    H156422   1.555   3.561  11.100 -0.6107  1.7943  1.2709
11669TIP3    H256423   1.623   3.427  11.118 -1.2128  0.8434 -2.9490
11670TIP3   OH256424   1.181   5.698  11.009  0.3934 -0.6937 -0.5046
11670TIP3    H156425   1.246   5.765  10.990  0.8576 -0.9358  0.2269
11670TIP3    H256426   1.230   5.616  11.008 -0.3207 -1.1289 -2.2485
11671TIP3   OH256427   3.444   0.619  13.755  0.3267 -0.0487 -0.1507
11671TIP3    H156428   3.496   0.695  13.782  2.9951 -1.2779 -1.6491
11671TIP3    H256429   3.426   0.572  13.837  0.6286  0.9634  0.5037
11672TIP3   OH256430   6.626   6.543  16.394  0.3284 -0.1021 -0.2641
11672TIP3    H156431   6.605   6.456  16.360  2.8197 -0.2553 -1.5481
11672TIP3    H256432   6.689   6.527  16.464 -0.4453  0.5948  0.6137
11673TIP3   OH256433   1.830   2.363   3.612  0.1637  0.3188 -0.5124
11673TIP3    H156434   1.825   2.428   3.682 -1.6988 -1.3314  0.9156
11673TIP3    H256435   1.799   2.409   3.534 -1.0949  1.1598  0.4773
11674TIP3   OH256436   1.816   2.500   5.943  0.3384  0.6138 -0.1569
11674TIP3    H156437   1.785   2.458   6.023 -2.0321 -0.9124 -1.8489
11674TIP3    H256438   1.884   2.441   5.910  1.5847  1.4307  0.8709
11675TIP3   OH256439   3.292   3.125   3.886  0.4085  0.1717 -0.1813
11675TIP3    H156440   3.330   3.038   3.898  0.6430  0.0520 -1.6972
11675TIP3    H256441   3.328   3.156   3.803 -0.9599  1.0413 -0.4726
11676TIP3   OH256442   5.188   5.168   0.252 -0.6542 -0.6227  0.2790
11676TIP3    H156443   5.223   5.118   0.326  1.7725  0.2225 -0.2469
11676TIP3    H256444   5.247   5.243   0.244 -1.3412 -0.2989 -2.0137
11677TIP3   OH256445   5.597   6.058   2.507  0.2525  0.1989  0.1112
11677TIP3    H156446   5.527   6.053   2.572 -0.3181 -0.4640 -0.5405
11677TIP3    H256447   5.551   6.071   2.424  0.9517  0.5787 -0.2214
11678TIP3   OH256448   3.480   0.648   4.430  0.2981 -0.3275  0.4321
11678TIP3    H156449   3.429   0.718   4.472  0.8906  1.4147 -1.7113
11678TIP3    H256450   3.414   0.588   4.396 -0.2980  0.8173 -0.4625
11679TIP3   OH256451   5.787   2.915   2.303 -0.2405 -0.2196 -0.4162
11679TIP3    H156452   5.844   2.881   2.234 -0.0479 -1.1796  0.1980
11679TIP3    H256453   5.839   2.907   2.383 -0.1458  1.6851 -0.2667
11680TIP3   OH256454   1.746   3.999  12.986  0.0172 -0.2191  0.1929
11680TIP3    H156455   1.767   3.906  12.979  0.9045  0.0150 -0.2123
11680TIP3    H256456   1.683   4.014  12.916 -2.6717 -1.2289  2.2751
11681TIP3   OH256457   1.781   4.597   2.898  0.3700 -0.4820 -0.2042
11681TIP3    H156458   1.746   4.513   2.867 -0.3725  0.5058 -2.0572
11681TIP3    H256459   1.705   4.645   2.929  0.5066  0.3573 -1.1470
11682TIP3   OH256460   1.893   6.126   3.610  0.0147  0.5880  0.0079
11682TIP3    H156461   1.918   6.164   3.694  1.4078 -0.3527  0.0342
11682TIP3    H256462   1.870   6.035   3.630  3.0315 -0.4698 -0.9888
11683TIP3   OH256463   1.823   0.798   1.087 -0.1365  0.1339  0.1740
11683TIP3    H156464   1.858   0.716   1.121  0.9964  0.4430 -0.2305
11683TIP3    H256465   1.762   0.771   1.018 -1.2008 -0.4252  1.2986
11684TIP3   OH256466   4.941   6.350   3.006  0.8497 -0.1129 -0.0681
11684TIP3    H156467   4.891   6.268   2.999  2.2615 -0.9773 -0.2163
11684TIP3    H256468   4.951   6.363   3.100 -0.3083  0.4781 -0.0177
11685TIP3   OH256469   1.477   1.380  17.032  0.3115 -0.2731  0.1721
11685TIP3    H156470   1.568   1.353  17.041  0.2082 -0.3349  1.0848
11685TIP3    H256471   1.481   1.467  16.994  0.7523 -0.3163  0.1193
11686TIP3   OH256472   5.303   4.886  12.697 -0.0536  0.0318  0.1448
11686TIP3    H156473   5.232   4.846  12.748  0.4661  0.7420  1.4321
11686TIP3    H256474   5.381   4.836  12.721  0.5233  1.5167  1.4524
11687TIP3   OH256475   1.893   1.935   5.013  0.0282  0.2461 -0.0238
11687TIP3    H156476   1.905   1.846   5.046  1.0433  0.4432  0.1473
11687TIP3    H256477   1.975   1.979   5.032 -0.1130  0.9466 -0.9781
11688TIP3   OH256478   0.276   2.369  15.077 -0.0931  0.2746 -0.3616
11688TIP3    H156479   0.344   2.379  15.011 -1.6385  2.4524 -1.6768
11688TIP3    H256480   0.321   2.330  15.152  2.3978  0.8793 -1.5016
11689TIP3   OH256481   1.918   5.904  11.392  0.4986  0.1059  0.2947
11689TIP3    H156482   1.914   5.809  11.403  1.1905  0.1072  0.5674
11689TIP3    H256483   1.986   5.933  11.452  0.5800  0.7302 -0.0861
11690TIP3   OH256484   6.326   3.660  11.523 -0.5807 -0.1824 -0.1943
11690TIP3    H156485   6.287   3.748  11.529 -1.5437 -0.6312  0.3217
11690TIP3    H256486   6.352   3.651  11.432  1.5191  1.4759  0.2050
11691TIP3   OH256487   1.927   4.371   1.574 -0.0724 -0.0737  0.0433
11691TIP3    H156488   1.955   4.402   1.488  1.4604  2.2266  1.3201
11691TIP3    H256489   1.833   4.390   1.577 -0.1189 -0.1031 -1.1044
11692TIP3   OH256490   5.591   6.274   5.622 -0.3716 -0.6995 -0.1190
11692TIP3    H156491   5.658   6.326   5.578 -1.1025  0.1171 -0.2815
11692TIP3    H256492   5.622   6.264   5.712 -0.6677  0.8066  0.1571
11693TIP3   OH256493   1.495   0.723  13.877 -0.0734 -0.3271  0.1099
11693TIP3    H156494   1.553   0.790  13.914  0.8038 -2.1440  2.1181
11693TIP3    H256495   1.415   0.729  13.929 -1.0898  1.0295 -1.5574
11694TIP3   OH256496   5.342   1.612   6.219 -0.3734 -0.0847 -0.1712
11694TIP3    H156497   5.289   1.688   6.243  0.7361  0.9621 -0.9782
11694TIP3    H256498   5.429   1.649   6.200  0.6114 -1.7527  1.0096
11695TIP3   OH256499   0.645   2.412  15.602  0.1672 -0.2188 -0.2516
11695TIP3    H156500   0.667   2.402  15.695  0.3998 -0.5673 -0.3466
11695TIP3    H256501   0.700   2.485  15.573  3.1043 -2.6941 -1.1207
11696TIP3   OH256502   4.365   3.183   2.456 -0.2144  0.5042  0.0239
11696TIP3    H156503   4.429   3.215   2.391 -0.6219 -0.5632 -0.9312
11696TIP3    H256504   4.331   3.102   2.417 -0.4922 -0.1327  1.5731
11697TIP3   OH256505   3.960   2.321   3.089  0.0813  0.1644 -0.5269
11697TIP3    H156506   3.910   2.364   3.019 -2.2127 -0.5520  0.6031
11697TIP3    H256507   4.024   2.386   3.116 -0.3375  1.1900 -1.9346
11698TIP3   OH256508   3.595   4.489   4.514 -0.2221  0.3748  0.1394
11698TIP3    H156509   3.547   4.552   4.567 -0.4011  1.9362 -1.8625
11698TIP3    H256510   3.544   4.408   4.520 -2.2705  1.5905 -0.7443
11699TIP3   OH256511   5.672   5.840  16.074  1.1513 -0.0592  0.1535
11699TIP3    H156512   5.606   5.899  16.109  1.8559  1.1431 -0.5013
11699TIP3    H256513   5.740   5.898  16.039  2.1778 -1.2636  0.1136
11700TIP3   OH256514   3.351   4.456   2.367  0.2346 -0.0134  0.0421
11700TIP3    H156515   3.354   4.537   2.419  1.4402  0.1671 -0.2859
11700TIP3    H256516   3.307   4.482   2.286  2.4447  0.8509 -0.9294
11701TIP3   OH256517   5.574   4.745   1.289  0.0388 -1.1512  0.6374
11701TIP3    H156518   5.573   4.710   1.200 -1.6551  0.5174 -0.0173
11701TIP3    H256519   5.661   4.782   1.300  0.0394 -0.8013 -0.5544
11702TIP3   OH256520   5.887   0.344   1.624  0.2524  0.0825  0.3936
11702TIP3    H156521   5.833   0.341   1.703 -0.1062  0.4399  0.1674
11702TIP3    H256522   5.952   0.411   1.642  1.1849 -0.9711  1.0142
11703TIP3   OH256523   6.086   1.746   2.477 -0.2138  0.5780 -0.8494
11703TIP3    H156524   6.088   1.763   2.572  0.4151  0.2250 -0.7981
11703TIP3    H256525   6.167   1.786   2.444  0.4076 -0.7552 -0.9835
11704TIP3   OH256526   1.462   3.548  13.239 -0.0543 -0.2590 -0.3974
11704TIP3    H156527   1.465   3.565  13.333  0.5375 -0.3082 -0.4041
11704TIP3    H256528   1.426   3.628  13.201 -0.6239 -0.3673 -0.1004
11705TIP3   OH256529   2.421   6.755   6.263  0.3806 -0.8345  0.2452
11705TIP3    H156530   2.406   6.786   6.352 -0.3568  0.0819 -0.1924
11705TIP3    H256531   2.353   6.797   6.210  2.9684  1.5150 -1.3564
11706TIP3   OH256532   5.771   0.265  12.419  0.1920 -0.1486  0.2153
11706TIP3    H156533   5.707   0.242  12.351  0.3628 -1.2946  0.4347
11706TIP3    H256534   5.718   0.301  12.490  0.1172  2.3435 -1.0296
11707TIP3   OH256535   2.891   2.772   4.017 -0.1735  0.2718  0.0819
11707TIP3    H156536   2.824   2.771   3.949  0.5207  1.2478 -0.6229
11707TIP3    H256537   2.973   2.761   3.970  0.3418  1.3383  0.7167
11708TIP3   OH256538   6.200   2.776   3.051 -0.1437 -0.3055 -0.6958
11708TIP3    H156539   6.161   2.722   3.119 -0.3544  0.9844  0.2312
11708TIP3    H256540   6.253   2.715   2.999  0.2992 -1.2555  0.8178
11709TIP3   OH256541   2.276   1.359  12.490 -0.6732 -0.1728  0.2173
11709TIP3    H156542   2.295   1.440  12.538  0.6229 -1.1024  1.3411
11709TIP3    H256543   2.286   1.383  12.398  0.3788  0.7891  0.5624
11710TIP3   OH256544   2.506   0.469   0.892 -0.2788 -0.3103  0.4336
11710TIP3    H156545   2.485   0.485   0.984 -1.4621 -2.4010  0.5842
11710TIP3    H256546   2.424   0.433   0.856  0.3958 -0.1885 -1.2393
11711TIP3   OH256547   3.369   0.961  15.379 -0.5591 -0.1619 -0.3256
11711TIP3    H156548   3.407   1.047  15.365  0.0866 -0.6454 -1.6465
11711TIP3    H256549   3.444   0.904  15.395 -0.9982 -0.4248  0.8121
11712TIP3   OH256550   3.805   0.165  11.854 -0.2674  0.7132 -0.3097
11712TIP3    H156551   3.790   0.229  11.923  1.2342  0.9742 -0.1983
11712TIP3    H256552   3.852   0.093  11.898  1.2286  1.1490 -1.1525
11713TIP3   OH256553   2.258   5.586   5.130  0.1534  0.4790  0.1587
11713TIP3    H156554   2.200   5.582   5.206  0.4232  1.5321  0.4372
11713TIP3    H256555   2.203   5.622   5.060  0.0930  0.1678  0.0471
11714TIP3   OH256556   2.187   3.329   1.709  0.3617 -0.1626  0.4343
11714TIP3    H156557   2.107   3.311   1.660  0.2911 -1.1548  0.9158
11714TIP3    H256558   2.168   3.301   1.798  1.6382 -1.5004  0.3042
11715TIP3   OH256559   6.629   4.235   5.979  0.3531 -0.0082 -0.0143
11715TIP3    H156560   6.615   4.163   6.040 -2.8532  0.2148 -0.4087
11715TIP3    H256561   6.694   4.291   6.022  0.6769 -1.5857  1.6081
11716TIP3   OH256562   1.012   6.121  14.883  0.2446  0.0958  0.3906
11716TIP3    H156563   1.061   6.203  14.884 -1.3261  1.0417  2.5437
11716TIP3    H256564   1.003   6.097  14.975 -1.2249 -1.3375 -0.0976
11717TIP3   OH256565   1.602   0.453   5.166 -0.0672 -0.7238  0.5229
11717TIP3    H156566   1.698   0.451   5.162 -0.0232 -2.0697  1.7351
11717TIP3    H256567   1.579   0.544   5.150  1.5677  0.1578  2.9025
11718TIP3   OH256568   2.441   0.594   5.015  0.1343  0.2574  0.2246
11718TIP3    H156569   2.509   0.661   5.026  0.1132  0.1745  0.8816
11718TIP3    H256570   2.472   0.540   4.943 -0.1028  1.2959 -0.6768
11719TIP3   OH256571   3.622   3.887   0.997 -0.0826 -0.5507 -0.3214
11719TIP3    H156572   3.621   3.826   1.071 -0.8862 -1.2697 -0.9194
11719TIP3    H256573   3.708   3.928   1.002  0.1871 -1.1936  0.5259
11720TIP3   OH256574   5.707   3.650   3.871 -0.1298 -0.2012  0.0069
11720TIP3    H156575   5.630   3.595   3.857  0.1261 -0.3025 -1.0780
11720TIP3    H256576   5.752   3.610   3.946 -1.5140  0.2985  1.1205
11721TIP3   OH256577   1.815   3.848  14.604  0.7122 -0.7302  0.4951
11721TIP3    H156578   1.877   3.866  14.533 -0.3227  2.9422  0.4133
11721TIP3    H256579   1.844   3.904  14.676 -2.3159  0.9295  0.5172
11722TIP3   OH256580   1.615   3.708   4.574 -0.5054  0.7489 -0.2176
11722TIP3    H156581   1.583   3.744   4.657 -0.1026 -0.8709  0.6678
11722TIP3    H256582   1.619   3.783   4.515 -1.2782  1.8366  1.0832
11723TIP3   OH256583   2.392   3.266  13.144 -0.0946  0.0366  0.1204
11723TIP3    H156584   2.384   3.173  13.125 -0.9037 -0.0199  0.7142
11723TIP3    H256585   2.387   3.272  13.239 -0.1073  0.6939  0.0825
11724TIP3   OH256586   0.748   3.641  11.784 -0.2661  0.1579  0.1634
11724TIP3    H156587   0.703   3.653  11.867 -0.2178  0.2099  0.1815
11724TIP3    H256588   0.713   3.558  11.750  2.6690 -1.9993  2.1648
11725TIP3   OH256589   4.799   4.716   1.435 -0.8901  0.2282 -0.8522
11725TIP3    H156590   4.836   4.787   1.383 -2.1337  0.1594 -1.8495
11725TIP3    H256591   4.800   4.748   1.525  3.0557 -0.3587 -0.5691
11726TIP3   OH256592   5.390   3.113  15.950 -0.4674  0.5664 -0.4428
11726TIP3    H156593   5.378   3.056  16.026 -1.4177  0.9728 -0.2794
11726TIP3    H256594   5.379   3.202  15.984  1.5057  0.8913 -0.6030
11727TIP3   OH256595   2.948   2.742  15.145  0.7003 -0.3323  0.6809
11727TIP3    H156596   2.894   2.753  15.223  0.7890  0.0542  0.6871
11727TIP3    H256597   2.937   2.823  15.095 -1.5076 -1.6321 -1.0603
11728TIP3   OH256598   6.127   3.918  15.027  0.2062 -0.0807 -0.3687
11728TIP3    H156599   6.140   3.837  14.978  1.7353 -1.1820  1.7578
11728TIP3    H256600   6.215   3.948  15.049 -0.2825  3.0663 -2.4779
11729TIP3   OH256601   3.199   2.893   5.683 -0.1419 -0.1016  0.2519
11729TIP3    H156602   3.224   2.959   5.747 -0.1574 -0.1550  0.3132
11729TIP3    H256603   3.104   2.893   5.684 -0.1465  0.4103 -0.3021
11730TIP3   OH256604   1.478   6.740   4.379  0.0218  0.1320 -0.5359
11730TIP3    H156605   1.539   6.685   4.331  0.2595  0.9448 -1.1800
11730TIP3    H256606   1.423   6.781   4.311 -1.5300 -0.9203  0.0548
11731TIP3   OH256607   2.354   0.397   3.655 -0.0633  0.5346  0.1329
11731TIP3    H156608   2.368   0.310   3.615 -0.9285 -0.5450  2.1079
11731TIP3    H256609   2.412   0.455   3.606  1.0213 -1.2823 -0.8093
11732TIP3   OH256610   0.286   0.972  11.743 -0.3991  0.3178  0.0995
11732TIP3    H156611   0.208   0.951  11.793 -0.9918  0.4594 -0.7633
11732TIP3    H256612   0.273   0.930  11.658 -0.9373  2.9095 -1.1397
11733TIP3   OH256613   4.985   2.707  15.089  0.0560 -0.1976 -0.7937
11733TIP3    H156614   4.930   2.756  15.027 -0.5710  1.1034  0.7502
11733TIP3    H256615   5.070   2.750  15.085 -0.9426  2.1435  1.7630
11734TIP3   OH256616   3.907   5.573  11.593 -0.1006 -0.0129  0.1954
11734TIP3    H156617   3.955   5.579  11.511 -1.3011 -1.1094 -0.6090
11734TIP3    H256618   3.967   5.529  11.653  0.7535  0.7207 -0.1110
11735TIP3   OH256619   2.927   2.778   1.142  0.0281  0.2578 -0.3793
11735TIP3    H156620   2.852   2.761   1.085  1.3541 -1.3899 -1.6829
11735TIP3    H256621   2.889   2.807   1.224 -2.0419 -0.4225 -1.0780
11736TIP3   OH256622   1.200   5.737  13.403  0.5634  0.3976 -0.1450
11736TIP3    H156623   1.204   5.660  13.345 -0.5825  0.0626  0.2093
11736TIP3    H256624   1.275   5.726  13.462  1.0835  0.1615 -0.8481
11737TIP3   OH256625   1.988   5.468  13.213 -0.1583  0.0062  0.0681
11737TIP3    H156626   1.947   5.415  13.145  1.6006 -0.0932 -0.9434
11737TIP3    H256627   2.073   5.426  13.229 -0.3986  0.2425  2.0666
11738TIP3   OH256628   2.596   1.931   5.787  0.3208  0.0237 -0.1453
11738TIP3    H156629   2.603   2.025   5.772 -1.9596  0.2539  0.1536
11738TIP3    H256630   2.685   1.904   5.809  1.1538  1.9627 -1.0097
11739TIP3   OH256631   3.752   1.053  11.709  0.4786  0.0008  0.7445
11739TIP3    H156632   3.797   1.082  11.788  2.1977 -4.1376  1.4224
11739TIP3    H256633   3.691   0.985  11.738 -1.2759  0.7479 -1.0670
11740TIP3   OH256634   5.766   0.878   3.050 -0.5198 -0.4110  0.5379
11740TIP3    H156635   5.768   0.918   3.137  1.3894  1.6781 -0.4183
11740TIP3    H256636   5.804   0.791   3.062 -2.1807 -0.9502  2.1395
11741TIP3   OH256637   6.676   4.254  12.432  0.4897 -0.3873 -0.0948
11741TIP3    H156638   6.671   4.246  12.527 -1.6572 -0.1435 -0.1682
11741TIP3    H256639   6.622   4.330  12.411  1.5938  0.0614 -1.4548
11742TIP3   OH256640   0.948   5.303  16.818 -0.0063  0.5365 -0.2261
11742TIP3    H156641   1.028   5.287  16.868 -0.4623 -0.9269  0.0554
11742TIP3    H256642   0.979   5.324  16.730  0.7202  0.9723  0.1265
11743TIP3   OH256643   4.456   6.349   0.665 -0.4209  0.2404  0.3378
11743TIP3    H156644   4.427   6.281   0.604 -0.1102 -0.2496  0.7316
11743TIP3    H256645   4.388   6.417   0.660 -0.3075  0.2772 -0.6765
11744TIP3   OH256646   5.506   3.877  12.405 -0.2624  0.0221 -0.5505
11744TIP3    H156647   5.513   3.939  12.477  1.2750  0.4026 -1.0168
11744TIP3    H256648   5.420   3.836  12.417  0.2743 -0.4305  1.8827
11745TIP3   OH256649   1.688   0.892  13.989 -0.2258  0.0056 -0.9797
11745TIP3    H156650   1.667   0.863  14.078 -2.0753  0.6707 -1.1836
11745TIP3    H256651   1.777   0.927  13.996 -0.6180  0.7213  0.7622
11746TIP3   OH256652   4.867   1.740   5.753 -0.0994 -0.0884 -0.6069
11746TIP3    H156653   4.783   1.705   5.783  0.2444 -1.6619 -1.4380
11746TIP3    H256654   4.909   1.775   5.832 -1.8408  1.3829 -0.3008
11747TIP3   OH256655   0.861   3.688   6.151 -0.2283  0.0098 -0.2580
11747TIP3    H156656   0.796   3.759   6.157 -1.4636 -1.1194  0.0693
11747TIP3    H256657   0.915   3.698   6.229 -0.2395  0.7304 -0.3385
11748TIP3   OH256658   4.735   3.147   5.573 -0.2207  0.2866 -0.1907
11748TIP3    H156659   4.650   3.104   5.571  0.5986 -1.2864 -2.6908
11748TIP3    H256660   4.779   3.109   5.649 -0.5549 -1.2747 -0.7669
11749TIP3   OH256661   0.049   4.977  12.823  0.3182 -0.4268  0.9432
11749TIP3    H156662  -0.043   4.985  12.798  0.3680  0.3061  0.9977
11749TIP3    H256663   0.056   4.888  12.858 -0.3903 -0.4534  1.0282
11750TIP3   OH256664   2.402   4.806  17.009  0.7412 -0.0105 -0.2113
11750TIP3    H156665   2.367   4.727  17.051  0.0558  0.7110  0.5852
11750TIP3    H256666   2.408   4.783  16.917 -0.8194 -0.5154 -0.1976
11751TIP3   OH256667   2.604   3.330  13.406  0.4716 -0.2161  0.1866
11751TIP3    H156668   2.560   3.403  13.449  0.3643  0.3484 -0.8671
11751TIP3    H256669   2.663   3.372  13.343  0.8199 -1.0317 -0.0349
11752TIP3   OH256670   5.560   0.314   5.057 -0.3185 -0.3030  0.2638
11752TIP3    H156671   5.620   0.352   5.121 -1.6452 -0.3297  1.5256
11752TIP3    H256672   5.490   0.275   5.108 -1.2377 -0.6092 -1.1861
11753TIP3   OH256673   3.280   1.283   6.157  0.3485  0.1901 -0.0192
11753TIP3    H156674   3.296   1.368   6.117 -1.5599  0.8597  0.5721
11753TIP3    H256675   3.190   1.261   6.130 -0.4455 -0.0209  2.6761
11754TIP3   OH256676   2.100   3.107  15.959  0.3382  0.1089  0.3352
11754TIP3    H156677   2.090   3.201  15.945  2.1129  0.0382 -1.6179
11754TIP3    H256678   2.101   3.097  16.054  0.9077  2.1612  0.5659
11755TIP3   OH256679   2.248   0.451   0.791  0.1853 -0.3332 -0.0668
11755TIP3    H156680   2.193   0.381   0.825 -1.9155  0.8585 -0.9039
11755TIP3    H256681   2.233   0.449   0.696  1.6794 -0.0492 -0.3233
11756TIP3   OH256682   1.872   1.633  17.086 -0.2685 -0.1707  0.3021
11756TIP3    H156683   1.961   1.639  17.121 -0.7116  2.0975  1.1375
11756TIP3    H256684   1.884   1.641  16.991  0.2480  3.1817  0.5796
11757TIP3   OH256685   1.564   6.430   2.624  0.1637  0.6007  0.1232
11757TIP3    H156686   1.618   6.351   2.632  1.4412  1.3966 -0.4846
11757TIP3    H256687   1.554   6.461   2.715 -2.1616 -1.4216  0.6038
11758TIP3   OH256688   3.119   4.246   0.195  0.0179  0.0388  0.9208
11758TIP3    H156689   3.119   4.182   0.124  0.2305  0.1381  0.8309
11758TIP3    H256690   3.074   4.201   0.267  2.0217 -1.0113  1.5673
11759TIP3   OH256691   2.503   0.989   2.729  0.3023 -0.2507 -0.6815
11759TIP3    H156692   2.573   1.028   2.781  0.5383  0.0695 -1.2381
11759TIP3    H256693   2.526   1.010   2.639 -1.8078  2.0549 -0.7495
11760TIP3   OH256694   0.960   1.548   6.112  0.3784  0.3525 -0.2238
11760TIP3    H156695   0.874   1.563   6.150 -0.7197  0.6108 -2.6757
11760TIP3    H256696   0.976   1.625   6.058  1.5629 -0.2899 -0.8081
11761TIP3   OH256697   6.054   5.145   4.928  0.4504 -0.3464  0.2845
11761TIP3    H156698   5.998   5.187   4.993  2.1133  1.9945  0.2530
11761TIP3    H256699   6.038   5.194   4.847 -0.0719 -1.9237 -0.5971
11762TIP3   OH256700   1.863   4.264   3.797  0.2362 -0.2523 -0.4387
11762TIP3    H156701   1.936   4.238   3.741 -0.3322  1.3430 -1.9423
11762TIP3    H256702   1.786   4.255   3.741 -0.9873 -3.4378  1.5826
11763TIP3   OH256703   5.234   2.320  14.082 -0.1857 -0.2035 -0.6462
11763TIP3    H156704   5.146   2.283  14.079 -0.0847 -0.4708 -0.3339
11763TIP3    H256705   5.289   2.250  14.117  0.2536 -0.2219 -1.3692
11764TIP3   OH256706   5.644   0.505  12.918  0.3305 -0.4666 -0.0941
11764TIP3    H156707   5.621   0.413  12.901 -1.8514  0.2645 -1.3470
11764TIP3    H256708   5.706   0.527  12.849  0.4472 -0.8367 -0.1132
11765TIP3   OH256709   5.879   0.117  16.872  0.2350 -0.5527 -0.2033
11765TIP3    H156710   5.804   0.059  16.888  0.9368 -1.5129 -0.4229
11765TIP3    H256711   5.847   0.181  16.809  0.5359 -2.8229 -2.7081
11766TIP3   OH256712   4.281   0.252  15.677  0.4467 -0.1855  0.3366
11766TIP3    H156713   4.316   0.216  15.758 -1.9710 -2.3159  0.5046
11766TIP3    H256714   4.298   0.346  15.683  2.4507 -0.6284  2.1842
11767TIP3   OH256715   1.022   1.266  15.105 -0.5005  0.6862  0.2826
11767TIP3    H156716   1.101   1.258  15.158 -1.2916 -0.6097  1.3185
11767TIP3    H256717   1.051   1.251  15.015  0.1563 -1.8084  0.8611
11768TIP3   OH256718   0.784   2.673  15.599 -0.2348  0.2642  0.2130
11768TIP3    H156719   0.855   2.667  15.663 -0.7437 -0.9783  0.6815
11768TIP3    H256720   0.826   2.705  15.520  0.1400  3.1536  1.5367
11769TIP3   OH256721   4.526   5.087   2.968 -0.1926  0.5816 -0.1945
11769TIP3    H156722   4.462   5.148   3.005 -0.2401  0.6879 -0.4494
11769TIP3    H256723   4.605   5.101   3.020 -0.0563  1.2048 -0.5607
11770TIP3   OH256724   0.523   5.178   3.156 -0.3047  0.1979 -0.5028
11770TIP3    H156725   0.577   5.253   3.183  1.8936 -1.5665  0.1362
11770TIP3    H256726   0.529   5.117   3.230  0.8522 -2.1245 -2.4729
11771TIP3   OH256727   2.634   3.162  14.706 -0.3603  0.2481 -0.1383
11771TIP3    H156728   2.550   3.135  14.742 -1.0810  1.0078 -1.2276
11771TIP3    H256729   2.617   3.248  14.667  0.5016 -0.3346 -1.8523
11772TIP3   OH256730   0.613   4.303  12.035 -0.4362 -0.1080 -0.0396
11772TIP3    H156731   0.610   4.359  11.958 -2.0367  0.1121  0.1652
11772TIP3    H256732   0.564   4.224  12.010 -1.2420  0.0982  0.8418
11773TIP3   OH256733   3.818   1.937  13.651  0.5796 -0.2170 -0.1454
11773TIP3    H156734   3.805   1.856  13.602 -0.9316  0.2763 -0.6059
11773TIP3    H256735   3.800   2.007  13.588  2.5147  0.5112  0.0675
11774TIP3   OH256736   3.388   2.825  13.047 -0.1943  0.0277 -0.1574
11774TIP3    H156737   3.482   2.810  13.054 -0.2717 -0.1509  0.5665
11774TIP3    H256738   3.378   2.919  13.058 -0.0493  0.1258 -0.8427
11775TIP3   OH256739   3.458   6.674   1.065 -0.2894 -0.0296  0.2168
11775TIP3    H156740   3.437   6.583   1.084 -0.0709  0.0535  0.8545
11775TIP3    H256741   3.375   6.712   1.036 -0.3435 -0.4706 -0.2081
11776TIP3   OH256742   0.926   1.951  11.067  0.5329 -0.0937  0.6539
11776TIP3    H156743   0.902   1.919  10.980  0.0826 -1.8869  1.4112
11776TIP3    H256744   1.022   1.951  11.067  0.5489 -1.6720  0.6924
11777TIP3   OH256745   0.349   5.036  14.037 -0.2010  0.6360 -0.1121
11777TIP3    H156746   0.410   5.062  13.968 -0.0642 -1.8202 -0.9551
11777TIP3    H256747   0.265   5.024  13.992  0.0021 -1.4750  0.0404
11778TIP3   OH256748   1.933   4.036  15.639  0.3277 -0.3416  0.0113
11778TIP3    H156749   1.839   4.053  15.633  0.2073 -0.4248  1.5255
11778TIP3    H256750   1.940   3.940  15.635  0.3065 -0.3596  0.3908
11779TIP3   OH256751   0.177   5.857   2.349 -0.4202  0.4303 -0.1111
11779TIP3    H156752   0.228   5.936   2.364 -1.6590  1.2568 -0.2545
11779TIP3    H256753   0.167   5.817   2.435  1.3972 -0.3254 -0.2226
11780TIP3   OH256754   3.793   2.635   1.662  0.2520 -0.4274 -0.2841
11780TIP3    H156755   3.759   2.561   1.612  0.3920 -0.9084  0.3098
11780TIP3    H256756   3.886   2.615   1.673  0.2835 -0.1834 -0.0965
11781TIP3   OH256757   3.579   3.834  15.604  0.0726 -0.2145  0.6922
11781TIP3    H156758   3.658   3.809  15.555 -0.2538 -0.9478  0.5237
11781TIP3    H256759   3.528   3.886  15.542  1.1057  1.5499  1.2907
11782TIP3   OH256760   2.988   4.961   2.057 -0.0166  0.2367  0.0338
11782TIP3    H156761   3.068   4.939   2.104  0.4305  2.0826  0.1843
11782TIP3    H256762   3.018   4.992   1.972 -0.6361 -0.0192 -0.2805
11783TIP3   OH256763   3.506   3.617   3.818  0.4283  0.3819 -0.0052
11783TIP3    H156764   3.535   3.574   3.738  1.2482 -0.3083  0.6573
11783TIP3    H256765   3.450   3.688   3.788  0.7547  0.1459 -1.1911
11784TIP3   OH256766   3.368   2.317  16.847 -0.4705 -0.1065 -0.3048
11784TIP3    H156767   3.339   2.404  16.818 -0.3834 -0.1669 -0.5732
11784TIP3    H256768   3.450   2.334  16.893 -1.5067  0.2061  1.4711
11785TIP3   OH256769   1.170   1.797   4.769  0.3008 -0.2897 -0.3389
11785TIP3    H156770   1.079   1.824   4.778  0.1009 -1.6144  2.2687
11785TIP3    H256771   1.170   1.733   4.698 -0.8812 -0.5978 -0.0684
11786TIP3   OH256772   2.235   4.935   4.556  0.7224  0.3758 -0.0782
11786TIP3    H156773   2.321   4.899   4.579  0.1223 -1.7488 -1.0466
11786TIP3    H256774   2.253   5.024   4.525  2.6569 -0.3233 -1.0040
11787TIP3   OH256775   0.848   5.011  16.258 -0.1215  0.2155 -0.2936
11787TIP3    H156776   0.864   4.987  16.350  1.4108  0.1354 -0.5682
11787TIP3    H256777   0.783   4.948  16.228 -0.3316 -0.0145  0.6298
11788TIP3   OH256778   4.774   3.300   6.795 -0.4010 -0.2459  0.2353
11788TIP3    H156779   4.759   3.389   6.827  0.5920 -0.9703  2.8084
11788TIP3    H256780   4.691   3.277   6.752 -1.3183  1.2559  1.1210
11789TIP3   OH256781   3.449   4.288   1.398 -0.1896 -0.0219 -0.3200
11789TIP3    H156782   3.510   4.224   1.363  0.9412  0.7891  0.1455
11789TIP3    H256783   3.419   4.249   1.481 -1.0242 -0.8415 -1.0008
11790TIP3   OH256784   3.249   2.438   3.324 -0.0813 -0.0504  0.4255
11790TIP3    H156785   3.271   2.504   3.259 -0.7296 -1.7154 -1.5293
11790TIP3    H256786   3.316   2.371   3.314 -0.8336 -0.8532  0.6999
11791TIP3   OH256787   5.548   4.873  12.411  0.2541 -0.1559 -0.4765
11791TIP3    H156788   5.500   4.953  12.392  1.3678  0.4071 -0.9308
11791TIP3    H256789   5.634   4.902  12.442 -0.0336 -1.1378  1.2889
11792TIP3   OH256790   5.237   6.086  12.324  0.8427  0.7817  0.1965
11792TIP3    H156791   5.287   6.046  12.253 -0.0183  1.7314 -0.9707
11792TIP3    H256792   5.235   6.179  12.303  1.6405  1.2637  2.1435
11793TIP3   OH256793   2.105   3.215  13.590  0.0796  0.2674  0.4981
11793TIP3    H156794   2.164   3.142  13.569  1.5597  1.2806  1.0725
11793TIP3    H256795   2.028   3.200  13.534  1.3350 -0.4570 -1.0871
11794TIP3   OH256796   4.481   4.257   3.180  0.0586 -0.3784 -0.3641
11794TIP3    H156797   4.400   4.262   3.231 -0.6833 -1.0469 -1.4586
11794TIP3    H256798   4.458   4.202   3.105  0.9523  1.1527 -1.7810
11795TIP3   OH256799   1.510   2.894  11.693  0.9700 -0.3769 -0.4128
11795TIP3    H156800   1.419   2.923  11.692  1.1041  0.2039  1.9290
11795TIP3    H256801   1.549   2.936  11.769  2.8151 -1.8102 -0.5055
11796TIP3   OH256802   6.526   5.470   0.665 -0.3915  0.7624 -0.4859
11796TIP3    H156803   6.448   5.520   0.689 -0.1631  0.9878 -0.2005
11796TIP3    H256804   6.576   5.529   0.608 -1.4542 -0.1691 -2.4312
11797TIP3   OH256805   6.031   0.727  17.230  0.4501  0.1015 -0.5194
11797TIP3    H156806   5.973   0.803  17.220  0.4372  0.0756 -0.6415
11797TIP3    H256807   6.073   0.718  17.145 -0.1938 -0.5611 -0.7685
11798TIP3   OH256808   1.985   6.658   4.447 -0.1928  0.0122 -0.0220
11798TIP3    H156809   1.928   6.675   4.522 -1.9024  0.8918 -1.4800
11798TIP3    H256810   1.953   6.717   4.379  0.9401 -1.1943 -1.6434
11799TIP3   OH256811   6.533   2.807  13.933  0.5518  0.4105  0.1444
11799TIP3    H156812   6.528   2.716  13.903  0.3702  0.7878 -0.9970
11799TIP3    H256813   6.442   2.833  13.946  0.5499  0.6996 -0.4030
11800TIP3   OH256814   3.688   1.436   4.659  0.5085  0.1702  0.3924
11800TIP3    H156815   3.655   1.351   4.689 -0.1823  0.4269  0.3651
11800TIP3    H256816   3.757   1.414   4.597 -0.5487 -0.3873 -0.6109
11801TIP3   OH256817   1.060   6.739  14.867 -0.1453 -0.4679 -0.1457
11801TIP3    H156818   1.097   6.826  14.874  0.8961 -0.7514 -1.9039
11801TIP3    H256819   0.974   6.746  14.910  0.8018  0.8581  1.5820
11802TIP3   OH256820   6.729   1.041   3.926  0.2627 -0.0498 -0.4938
11802TIP3    H156821   6.641   1.033   3.889  0.6809 -1.4318 -1.2453
11802TIP3    H256822   6.750   1.134   3.918 -1.8150  0.6198  1.3677
11803TIP3   OH256823   0.220   3.773   3.914  0.0451  0.4547  0.5507
11803TIP3    H156824   0.263   3.759   3.830  0.9828  1.1116  0.9116
11803TIP3    H256825   0.127   3.757   3.897  0.1657  1.0970 -0.7234
11804TIP3   OH256826   2.104   6.432  12.652 -0.2792  0.7778  0.2374
11804TIP3    H156827   2.040   6.480  12.704 -0.1131 -0.3510  1.5173
11804TIP3    H256828   2.187   6.448  12.696 -0.1700 -0.3566  0.4667
11805TIP3   OH256829   3.747   2.342   6.104  0.4395  0.3251 -0.1427
11805TIP3    H156830   3.664   2.298   6.083  0.2406  0.7277 -0.2105
11805TIP3    H256831   3.779   2.372   6.019  0.0906  1.1562  0.0127
11806TIP3   OH256832   2.633   3.167  16.395  0.9395 -0.5446 -0.1346
11806TIP3    H156833   2.678   3.250  16.411  1.7749 -0.9746 -0.1957
11806TIP3    H256834   2.575   3.185  16.321  0.7351  0.1224  0.1878
11807TIP3   OH256835   1.481   3.395   1.994  0.1968 -0.2648  0.1587
11807TIP3    H156836   1.483   3.345   2.075 -1.2575  0.9318  0.9577
11807TIP3    H256837   1.413   3.351   1.941  0.3858 -0.3934  0.0232
11808TIP3   OH256838   0.999   4.783  16.747 -0.0839 -0.1369  0.3681
11808TIP3    H156839   1.055   4.706  16.733  1.0266  0.2620  2.3594
11808TIP3    H256840   1.040   4.829  16.820 -2.2942  0.8824  1.0181
11809TIP3   OH256841   2.000   2.187  16.970  0.0056  0.1009 -0.4348
11809TIP3    H156842   2.062   2.161  17.038  0.1474  0.9298 -0.2376
11809TIP3    H256843   1.917   2.201  17.017 -0.5348 -1.7362 -0.8086
11810TIP3   OH256844   2.018   2.161   3.920  0.7638 -0.1100  0.1534
11810TIP3    H156845   2.052   2.072   3.916 -0.4906 -0.5732 -0.5279
11810TIP3    H256846   2.074   2.211   3.859  0.9547 -0.6014 -0.0722
11811TIP3   OH256847   6.653   1.395   1.926  0.8226 -0.2180  0.4913
11811TIP3    H156848   6.718   1.463   1.941  1.4422 -0.7597  0.3115
11811TIP3    H256849   6.676   1.359   1.840  0.4979 -0.6486  0.5833
11812TIP3   OH256850   4.486   2.467   5.040 -0.0848 -0.2367  0.4343
11812TIP3    H156851   4.498   2.442   5.131 -2.1458 -1.3633  0.4320
11812TIP3    H256852   4.510   2.560   5.037  2.0534 -0.7347  1.6602
11813TIP3   OH256853   0.336   0.013   4.480  0.5335 -0.1313  0.0385
11813TIP3    H156854   0.267   0.042   4.540 -1.0092 -0.9802 -1.2943
11813TIP3    H256855   0.378  -0.061   4.525  0.8612  0.6510  1.0328
11814TIP3   OH256856   1.557   2.215  16.329 -0.0309  0.5447  0.0321
11814TIP3    H156857   1.567   2.193  16.422 -1.0890 -0.2815 -0.0423
11814TIP3    H256858   1.517   2.302  16.330 -0.5845  0.2938  0.3644
11815TIP3   OH256859   1.043   2.312   4.237 -0.1479 -0.7018 -0.4095
11815TIP3    H156860   1.124   2.360   4.223 -0.7428  0.0980 -1.1943
11815TIP3    H256861   1.068   2.236   4.289  1.5017 -1.6988 -2.6130
11816TIP3   OH256862   3.501   1.920  13.365 -0.1203 -0.1712 -0.6130
11816TIP3    H156863   3.441   1.856  13.328 -0.3959  0.6174 -1.5548
11816TIP3    H256864   3.560   1.942  13.293  0.3521  0.1760 -0.1224
11817TIP3   OH256865   4.652   2.043   5.481 -0.0790  0.5760 -0.6126
11817TIP3    H156866   4.672   2.001   5.565 -0.8577  0.1033 -0.6625
11817TIP3    H256867   4.712   2.117   5.476  2.0876 -1.1670 -1.0318
11818TIP3   OH256868   3.125   4.804   5.318  0.4979 -0.0982  0.8948
11818TIP3    H156869   3.097   4.749   5.390 -1.6751  0.3781  0.4471
11818TIP3    H256870   3.096   4.892   5.342  1.4010  0.3785  0.2849
11819TIP3   OH256871   4.028   4.660   5.028 -0.3758 -0.0604 -0.3968
11819TIP3    H156872   3.973   4.582   5.040 -0.3469 -0.2312 -1.3697
11819TIP3    H256873   4.005   4.716   5.103  0.5272 -1.5290  1.0220
11820TIP3   OH256874   5.251   2.216  12.595  0.0107  0.2511 -0.3476
11820TIP3    H156875   5.239   2.128  12.560 -0.2302 -0.7938  2.2319
11820TIP3    H256876   5.215   2.211  12.684  0.7199  2.7369  0.1051
11821TIP3   OH256877   2.043   0.655   4.299 -0.0066 -0.4329  0.8939
11821TIP3    H156878   2.138   0.642   4.300  0.1143  0.1744 -1.0537
11821TIP3    H256879   2.020   0.656   4.206 -2.1068 -1.8768  1.3622
11822TIP3   OH256880   2.401   3.668   4.436  0.0930  0.2519 -0.7901
11822TIP3    H156881   2.455   3.683   4.514 -0.0434 -0.1182 -0.6185
11822TIP3    H256882   2.457   3.692   4.362 -0.6165  2.9436 -0.4681
11823TIP3   OH256883   6.161   4.081   3.700  0.4464  0.4591 -0.0611
11823TIP3    H156884   6.163   4.131   3.782  0.7191  0.5796 -0.1436
11823TIP3    H256885   6.253   4.070   3.675  0.2980  2.7610 -1.7804
11824TIP3   OH256886   1.689   2.583  16.367  0.5150 -0.1409 -0.2765
11824TIP3    H156887   1.746   2.623  16.300 -0.4824  1.0970 -0.4027
11824TIP3    H256888   1.716   2.625  16.449  0.6231 -0.4659 -0.1445
11825TIP3   OH256889   1.268   2.393   5.061  0.0015  0.2201 -0.1243
11825TIP3    H156890   1.348   2.386   5.007  0.2251  3.2121 -0.2447
11825TIP3    H256891   1.298   2.375   5.150  0.7558  0.9786 -0.2176
11826TIP3   OH256892   5.062   1.163  12.367  0.7791 -0.6185 -0.3910
11826TIP3    H156893   5.074   1.069  12.354 -0.8646 -0.8802 -0.0957
11826TIP3    H256894   5.010   1.191  12.291 -0.2082 -0.2791  0.4018
11827TIP3   OH256895   0.529   4.770   0.159  0.0987  0.3010 -0.0598
11827TIP3    H156896   0.526   4.675   0.151  0.1568  0.3178 -0.2929
11827TIP3    H256897   0.473   4.802   0.088  0.0141  0.4390  0.0683
11828TIP3   OH256898   0.656   3.471  15.671 -0.3934 -1.0556 -0.1053
11828TIP3    H156899   0.733   3.493  15.619 -1.0336  0.5345 -0.4149
11828TIP3    H256900   0.601   3.420  15.611  0.5553 -2.4960  0.2263
11829TIP3   OH256901   3.673   5.001   6.184 -0.6147  0.6848  0.1630
11829TIP3    H156902   3.610   5.046   6.241 -2.4644  0.4655 -1.6614
11829TIP3    H256903   3.637   4.912   6.175 -0.9310  1.0371 -2.2135
11830TIP3   OH256904   5.139   2.082   4.568  0.6374 -0.2364 -0.1540
11830TIP3    H156905   5.065   2.133   4.534  0.5324 -0.0651  0.3298
11830TIP3    H256906   5.133   1.998   4.522 -0.1620 -0.4111  0.2534
11831TIP3   OH256907   5.562   4.825  13.999  0.2603 -0.1338 -0.0694
11831TIP3    H156908   5.516   4.780  13.928 -0.6835 -1.4710  1.3608
11831TIP3    H256909   5.511   4.904  14.014 -0.2723 -0.4783 -0.0332
11832TIP3   OH256910   4.677   2.806  16.040  0.2588  0.9768  0.5579
11832TIP3    H156911   4.770   2.832  16.041  0.1084  1.5753 -0.2995
11832TIP3    H256912   4.674   2.728  15.984 -0.0415  2.1602 -1.1301
11833TIP3   OH256913   0.714   6.759   4.271  0.3779  0.4262 -0.3011
11833TIP3    H156914   0.707   6.755   4.175  0.4994 -0.1166 -0.2875
11833TIP3    H256915   0.643   6.703   4.303  0.7435  0.0905 -0.0809
11834TIP3   OH256916   3.999   3.367  13.848 -0.3228  0.3195  0.5415
11834TIP3    H156917   4.020   3.431  13.916  1.2678  1.6785 -1.1818
11834TIP3    H256918   4.079   3.316  13.838 -0.8873 -0.5328  0.4097
11835TIP3   OH256919   3.857   0.341   3.290  0.4956 -0.2716 -0.6949
11835TIP3    H156920   3.879   0.380   3.374  1.3350 -1.3134 -0.4192
11835TIP3    H256921   3.810   0.409   3.243  1.4709  0.8784 -0.0145
11836TIP3   OH256922   1.452   2.026   0.634  0.0474 -0.2435  0.2896
11836TIP3    H156923   1.376   2.036   0.691 -0.9435  3.5422 -1.5567
11836TIP3    H256924   1.519   2.082   0.673  0.4600 -0.2110 -0.4514
11837TIP3   OH256925   1.519   0.252   0.062  0.2434  0.0819  0.4874
11837TIP3    H156926   1.473   0.173   0.032 -1.2282  1.4163 -0.9094
11837TIP3    H256927   1.468   0.282   0.137  1.4233 -0.8565  1.6921
11838TIP3   OH256928   0.399   3.731   4.135  0.0643 -0.4988  0.0028
11838TIP3    H156929   0.343   3.735   4.058 -1.1048  0.0788  0.8702
11838TIP3    H256930   0.420   3.823   4.155  0.7574 -0.6709  0.0837
11839TIP3   OH256931   2.725   2.388  15.023  0.0854 -0.1684 -0.2367
11839TIP3    H156932   2.714   2.337  14.943 -0.0059  1.5183 -1.3279
11839TIP3    H256933   2.657   2.355  15.082  0.7776 -2.0874 -0.4775
11840TIP3   OH256934   2.802   5.057   3.019  0.3623 -0.4252  0.4243
11840TIP3    H156935   2.732   5.025   2.961 -0.7025  1.6308  0.5316
11840TIP3    H256936   2.868   5.093   2.959 -0.4163  1.0584  0.4357
11841TIP3   OH256937   3.171   1.747   6.007  0.3536 -0.1344  0.3258
11841TIP3    H156938   3.164   1.834   6.044  1.6018 -0.4271  1.2863
11841TIP3    H256939   3.129   1.753   5.921 -2.9639  0.4629  1.8965
11842TIP3   OH256940   1.127   0.958   3.204  0.3253 -0.0317  0.3307
11842TIP3    H156941   1.069   0.982   3.277  0.8475  2.5827 -0.0445
11842TIP3    H256942   1.212   0.942   3.245  0.4141  0.6078  0.4059
11843TIP3   OH256943   5.726   5.406   2.576 -0.2940 -0.2700 -0.5020
11843TIP3    H156944   5.750   5.407   2.669  0.3139  0.7638 -0.6636
11843TIP3    H256945   5.752   5.492   2.543  0.6388 -1.0728 -1.9160
11844TIP3   OH256946   0.305   1.045   5.042 -0.5574 -0.2036 -0.3836
11844TIP3    H156947   0.301   0.965   4.990 -2.2320 -1.0718  1.0251
11844TIP3    H256948   0.341   1.018   5.126  0.5776  0.8801 -0.4989
11845TIP3   OH256949   4.498   6.647  15.507 -0.0874 -0.1524 -0.0246
11845TIP3    H156950   4.457   6.717  15.558  2.4588  1.8049 -0.5838
11845TIP3    H256951   4.580   6.630  15.551  0.4619 -1.0364 -1.3514
11846TIP3   OH256952   0.774   5.339  10.606 -0.8995 -0.3245 -0.5021
11846TIP3    H156953   0.793   5.377  10.520 -0.1597 -0.5992 -0.4616
11846TIP3    H256954   0.681   5.316  10.602 -1.1727  0.8007 -0.7879
11847TIP3   OH256955   3.456   0.061   2.114 -0.3971 -0.4863  0.3951
11847TIP3    H156956   3.393   0.016   2.169 -0.7752 -1.3806 -0.7449
11847TIP3    H256957   3.511  -0.009   2.078 -0.4203  0.0393 -0.6838
11848TIP3   OH256958   5.068   4.917  13.029 -0.1738 -0.0469 -0.4634
11848TIP3    H156959   5.074   5.013  13.036  1.4791 -0.1230 -0.6300
11848TIP3    H256960   5.020   4.891  13.108  1.8473  0.7018  1.0726
11849TIP3   OH256961   3.553   4.514   2.093  0.3446  0.1138  0.0393
11849TIP3    H156962   3.477   4.553   2.050  0.0559  2.5994  2.7051
11849TIP3    H256963   3.521   4.430   2.127 -0.5996  0.1708 -0.6811
11850TIP3   OH256964   1.949   1.013  12.630 -0.1666  0.4352  0.3703
11850TIP3    H156965   2.031   0.998  12.582 -0.3681  0.1394  0.1183
11850TIP3    H256966   1.918   1.097  12.597 -1.6506 -0.9638 -1.9586
11851TIP3   OH256967   5.104   5.894  12.726  0.1046 -0.0372  0.5306
11851TIP3    H156968   5.173   5.897  12.792  0.8480 -0.8783 -0.1924
11851TIP3    H256969   5.147   5.925  12.645 -0.1168 -1.4013 -0.1160
11852TIP3   OH256970   1.278   2.613   6.125  0.2041  0.2125 -0.4097
11852TIP3    H156971   1.264   2.605   6.031 -0.6463 -0.3248 -0.2413
11852TIP3    H256972   1.373   2.608   6.136  0.3914  1.3350 -1.3317
11853TIP3   OH256973   4.087   1.204   3.986  0.1370  1.1794  1.0030
11853TIP3    H156974   4.115   1.262   3.915 -0.2310 -1.1457 -1.1070
11853TIP3    H256975   4.161   1.203   4.046  0.7764  2.5633  0.2594
11854TIP3   OH256976   1.934   3.628   1.514  0.6997 -0.0935  0.0927
11854TIP3    H156977   1.908   3.564   1.580 -2.2621 -1.6789 -2.4710
11854TIP3    H256978   1.868   3.697   1.518  0.5080 -0.1829 -1.1105
11855TIP3   OH256979   5.485   4.108   5.531 -0.1318  0.0352 -0.0553
11855TIP3    H156980   5.421   4.176   5.513  0.0966  0.4892  0.8701
11855TIP3    H256981   5.487   4.099   5.626 -0.1978 -1.3019 -0.1596
11856TIP3   OH256982   2.436   0.415  14.436 -0.3279  0.2788  0.5197
11856TIP3    H156983   2.358   0.416  14.492 -0.2490 -0.6155  0.6602
11856TIP3    H256984   2.406   0.379  14.353 -0.0636 -0.1150  0.5900
11857TIP3   OH256985   1.146   0.676  11.648  0.4680  0.0649  0.3047
11857TIP3    H156986   1.200   0.743  11.689  1.7575 -0.1035 -1.0669
11857TIP3    H256987   1.165   0.683  11.555 -0.4065 -1.2973  0.0002
11858TIP3   OH256988   2.976   0.536  11.821  0.2270 -0.0569 -0.1766
11858TIP3    H156989   3.029   0.466  11.783 -2.1850 -1.8806 -0.2856
11858TIP3    H256990   2.979   0.521  11.915 -2.9917 -2.4376 -0.3508
11859TIP3   OH256991   4.983   5.471   1.967 -0.4011  0.0340  0.0287
11859TIP3    H156992   4.963   5.405   2.033  2.1254  0.5578  1.3581
11859TIP3    H256993   5.060   5.437   1.921 -0.7247  0.7751 -1.0984
11860TIP3   OH256994   2.609   6.529  12.913 -0.1480  0.0938 -0.3427
11860TIP3    H156995   2.589   6.607  12.860 -0.6852 -0.2302 -0.6259
11860TIP3    H256996   2.695   6.547  12.950  0.2472  0.3156 -1.3491
11861TIP3   OH256997   4.809   1.091  11.052  0.2700  0.2113  0.5740
11861TIP3    H156998   4.854   1.072  10.970 -0.8849 -0.7429  0.1471
11861TIP3    H256999   4.869   1.149  11.099  1.8339 -0.8305 -0.0813
11862TIP3   OH257000   0.361   6.608  13.173 -0.4182 -0.5755  0.0669
11862TIP3    H157001   0.393   6.673  13.235  1.2172 -0.0579 -1.2707
11862TIP3    H257002   0.330   6.536  13.227  1.9326 -0.5842  1.4779
11863TIP3   OH257003   6.230   4.561   4.394 -0.6988 -0.1723 -0.2383
11863TIP3    H157004   6.316   4.576   4.355 -0.6763 -1.2606 -0.6398
11863TIP3    H257005   6.224   4.624   4.465  0.9308 -0.9040  0.5600
11864TIP3   OH257006   5.688   5.971  14.851  0.3547 -0.3974  0.2661
11864TIP3    H157007   5.621   6.020  14.899 -0.3280 -1.5571  0.5087
11864TIP3    H257008   5.713   6.029  14.779 -1.2674 -0.1638 -0.1258
11865TIP3   OH257009   5.857   6.057  10.664 -0.2824 -0.2978 -0.5068
11865TIP3    H157010   5.915   5.984  10.644  1.8229  1.2078 -0.1161
11865TIP3    H257011   5.784   6.017  10.712  1.2026 -2.0523  0.3726
11866TIP3   OH257012   2.125   3.831   1.544  0.1056  0.3784 -0.6607
11866TIP3    H157013   2.117   3.868   1.457  0.2958  0.4455 -0.6495
11866TIP3    H257014   2.064   3.757   1.545 -2.4807  2.4684  0.2902
11867TIP3   OH257015   0.655   2.483  16.768  0.0024 -0.3075  0.2242
11867TIP3    H157016   0.657   2.412  16.704 -1.0734 -0.9476  0.8879
11867TIP3    H257017   0.748   2.500  16.788  0.3218 -0.3883 -1.1757
11868TIP3   OH257018   1.368   0.358  15.132  0.4634 -0.1219 -0.3116
11868TIP3    H157019   1.456   0.375  15.164  0.6739 -0.8242 -0.5033
11868TIP3    H257020   1.313   0.422  15.176  0.8036 -0.8435  1.1734
11869TIP3   OH257021   5.335   4.660  11.515 -0.1749  0.3980 -0.4599
11869TIP3    H157022   5.428   4.681  11.507 -0.3878  0.7448 -2.2469
11869TIP3    H257023   5.327   4.574  11.474 -0.1611 -1.0017  2.3645
11870TIP3   OH257024   4.506   3.639  12.832  0.3845  0.1581 -0.7291
11870TIP3    H157025   4.540   3.713  12.882 -0.4556 -0.1370  0.2864
11870TIP3    H257026   4.584   3.586  12.811  0.5757 -0.4806  1.5060
11871TIP3   OH257027   2.726   4.083   3.702 -0.0733  0.0632 -0.0258
11871TIP3    H157028   2.749   4.029   3.627 -0.1470 -0.0926  0.0627
11871TIP3    H257029   2.698   4.166   3.664 -1.0859 -0.3600 -0.2295
11872TIP3   OH257030   2.739   2.681   3.806 -0.0070 -0.5618  0.2586
11872TIP3    H157031   2.684   2.754   3.775  0.9550 -0.3948 -1.0519
11872TIP3    H257032   2.676   2.612   3.828 -0.8507  0.2160  0.3285
11873TIP3   OH257033   4.056   0.866  12.995 -0.1355 -0.6699  0.2349
11873TIP3    H157034   3.989   0.899  12.935  0.7484  0.9411  0.1145
11873TIP3    H257035   4.119   0.821  12.939 -0.4487 -1.1027  0.2196
11874TIP3   OH257036   0.025   5.698  11.642 -0.7190 -0.3067 -0.3521
11874TIP3    H157037   0.042   5.610  11.607 -4.5686 -1.0926 -0.5280
11874TIP3    H257038   0.000   5.749  11.565  3.0099  1.4356 -0.4826
11875TIP3   OH257039   1.465   0.403   6.091  0.1632  0.0162 -0.1537
11875TIP3    H157040   1.402   0.459   6.136  0.0986  1.1286 -1.5851
11875TIP3    H257041   1.539   0.395   6.152  0.0841  1.5052  0.1508
11876TIP3   OH257042   4.933   5.848   5.997  0.0023 -0.4227 -0.0610
11876TIP3    H157043   4.855   5.897   5.972 -0.4840 -1.0716  0.1540
11876TIP3    H257044   4.945   5.784   5.927 -0.6324 -1.4147  0.7192
11877TIP3   OH257045   3.431   1.594   2.018 -0.2967  0.2834 -0.4384
11877TIP3    H157046   3.459   1.654   1.949  2.8614  0.1386  0.6138
11877TIP3    H257047   3.414   1.512   1.973  1.1723  0.3479 -1.1369
11878TIP3   OH257048   4.075   0.432   4.273  0.9350  0.4067 -0.5031
11878TIP3    H157049   4.081   0.528   4.275  1.3196  0.3734  2.6594
11878TIP3    H257050   4.165   0.402   4.285  0.5516 -0.3095  0.7329
11879TIP3   OH257051   6.348   4.998   3.513  0.3339  0.8148 -0.1060
11879TIP3    H157052   6.398   5.077   3.535  0.7025  0.4513  0.3592
11879TIP3    H257053   6.265   5.008   3.560 -0.1933  1.5973 -1.1734
11880TIP3   OH257054   3.889   4.434   1.560 -0.1475 -0.2353 -0.4717
11880TIP3    H157055   3.799   4.446   1.592 -0.0781 -0.3829 -0.2259
11880TIP3    H257056   3.912   4.345   1.584  1.2408  0.8264  2.3629
11881TIP3   OH257057   2.636   5.525   1.291  0.3367 -0.4797 -0.3180
11881TIP3    H157058   2.697   5.456   1.317  1.8528  0.8055 -0.4042
11881TIP3    H257059   2.685   5.579   1.229 -1.5793 -0.6132 -2.0029
11882TIP3   OH257060   4.435   4.542  16.757 -0.0847 -0.5950 -0.0517
11882TIP3    H157061   4.461   4.465  16.707  1.3077  0.1303 -0.4696
11882TIP3    H257062   4.475   4.531  16.843 -0.8866 -0.9189  0.2799
11883TIP3   OH257063   2.766   4.971   1.293  0.5260  0.0340  0.3961
11883TIP3    H157064   2.766   5.001   1.384 -1.5151  1.3842 -0.0086
11883TIP3    H257065   2.821   5.034   1.247 -1.0590  1.2696  0.1456
11884TIP3   OH257066   0.323   4.951  12.246 -0.4389 -0.3801  0.7355
11884TIP3    H157067   0.267   4.904  12.184 -0.2696 -1.3378  1.2982
11884TIP3    H257068   0.355   5.027  12.198 -0.0333 -1.2999 -0.4558
11885TIP3   OH257069   1.720   3.715  12.963 -0.2895  0.3226  0.5242
11885TIP3    H157070   1.628   3.700  12.942  0.4075 -0.1485 -2.3864
11885TIP3    H257071   1.724   3.708  13.058 -3.0185 -1.0080  0.5907
11886TIP3   OH257072   3.502   2.819  11.046  0.5072 -0.1622  0.3438
11886TIP3    H157073   3.581   2.823  10.992 -0.0047 -0.1835 -0.4076
11886TIP3    H257074   3.467   2.908  11.046 -0.7706 -0.6426 -1.2865
11887TIP3   OH257075   6.177   4.400  12.066 -0.8064 -0.5969 -0.6519
11887TIP3    H157076   6.211   4.482  12.103  1.1337 -0.7697 -2.0230
11887TIP3    H257077   6.226   4.331  12.110 -1.5022 -0.9796 -0.4679
11888TIP3   OH257078   1.514   4.310  12.381 -0.0685  0.1539  0.0248
11888TIP3    H157079   1.581   4.378  12.383  1.5442 -1.3193 -1.2474
11888TIP3    H257080   1.492   4.301  12.288 -1.4477  0.0634  0.3496
11889TIP3   OH257081   5.877   5.608  15.449 -0.2844 -0.1883 -0.7970
11889TIP3    H157082   5.826   5.674  15.496  0.7037  0.7643 -1.0160
11889TIP3    H257083   5.853   5.621  15.357  0.6081  0.5077 -0.9390
11890TIP3   OH257084   3.122   5.936   1.684 -0.0543 -0.1908 -0.2398
11890TIP3    H157085   3.217   5.940   1.677 -0.0968 -0.3657 -0.8681
11890TIP3    H257086   3.093   6.026   1.672 -0.1148 -0.4465 -2.1454
11891TIP3   OH257087   0.634   4.985   3.795  0.0339 -0.1520  0.0124
11891TIP3    H157088   0.561   4.935   3.830 -0.4278  0.3274 -0.2579
11891TIP3    H257089   0.691   5.000   3.871 -1.5084  1.8177  0.8349
11892TIP3   OH257090   6.422   3.006   3.686 -0.0403  0.2522  0.0056
11892TIP3    H157091   6.326   3.005   3.677 -0.0509  3.0089 -0.6475
11892TIP3    H257092   6.437   3.020   3.780 -0.2886  0.7090 -0.0212
11893TIP3   OH257093   2.772   5.174  11.250  0.4310 -0.1805  0.0257
11893TIP3    H157094   2.693   5.172  11.196  0.0788 -0.4846  0.5557
11893TIP3    H257095   2.840   5.208  11.191  0.1119 -0.7682 -0.6886
11894TIP3   OH257096   2.866   6.275   6.551  0.4193 -0.2746  0.6076
11894TIP3    H157097   2.799   6.274   6.619  1.0933  0.3167  1.2996
11894TIP3    H257098   2.867   6.365   6.520 -0.1827 -0.6439 -0.4919
11895TIP3   OH257099   2.966   5.760   0.887 -0.3175 -0.2754 -0.2864
11895TIP3    H157100   3.049   5.730   0.850  0.4293  0.6004  0.6721
11895TIP3    H257101   2.901   5.699   0.852  0.6707 -0.7512 -1.3324
11896TIP3   OH257102   4.898   5.515   5.900  0.3352  0.3982 -0.4072
11896TIP3    H157103   4.988   5.484   5.910  0.0996  0.3197  1.7994
11896TIP3    H257104   4.891   5.540   5.808  1.6223 -2.6588 -1.3818
11897TIP3   OH257105   5.744   3.482  13.917 -0.1070 -0.1589 -0.3696
11897TIP3    H157106   5.731   3.474  13.823  0.7033  0.5815 -0.5449
11897TIP3    H257107   5.835   3.456  13.932  0.2947  1.3958 -0.0203
11898TIP3   OH257108   1.779   5.659  15.486  0.1690  0.3480  0.1832
11898TIP3    H157109   1.765   5.610  15.405 -0.3921 -0.9437  1.0579
11898TIP3    H257110   1.844   5.609  15.534  0.4597  1.0820  0.5694
11899TIP3   OH257111   6.201   5.358   3.585 -0.1764  0.1129 -0.7857
11899TIP3    H157112   6.140   5.317   3.523 -1.4501  1.5935 -0.5487
11899TIP3    H257113   6.269   5.292   3.598 -1.3886 -1.3445 -1.5574
11900TIP3   OH257114   5.987   4.862   5.625  0.3625  0.0800  0.5627
11900TIP3    H157115   5.925   4.906   5.567  1.0445  0.1059 -0.1622
11900TIP3    H257116   5.978   4.908   5.708  0.7941  1.3653 -0.0755
11901TIP3   OH257117   5.937   4.437  13.645  0.4050  0.2253 -0.0575
11901TIP3    H157118   5.948   4.516  13.698 -0.7426  0.6504 -0.4518
11901TIP3    H257119   5.947   4.365  13.707  2.1796  0.6403  0.1831
11902TIP3   OH257120   0.740   2.152   6.576  0.6115  0.2400 -0.3282
11902TIP3    H157121   0.713   2.235   6.616  0.4273  0.5773 -1.1413
11902TIP3    H257122   0.815   2.176   6.521  0.6277 -0.1519 -0.4760
11903TIP3   OH257123   5.065   3.690   4.139  0.3901 -0.1716  0.3604
11903TIP3    H157124   5.032   3.779   4.126 -0.4026 -0.3931  0.8965
11903TIP3    H257125   5.075   3.681   4.233  1.5620 -0.2648  0.2412
11904TIP3   OH257126   1.006   3.885   1.381  0.0389 -0.1526  0.1310
11904TIP3    H157127   0.937   3.911   1.321  0.5922 -1.6336 -1.1943
11904TIP3    H257128   1.083   3.874   1.325  0.7856 -0.6972  1.2433
11905TIP3   OH257129   2.375   6.615  16.017  0.6948  0.2576 -0.6167
11905TIP3    H157130   2.442   6.547  16.012 -0.0728 -0.4831 -0.9711
11905TIP3    H257131   2.399   6.668  16.093 -0.2126 -2.0516  1.3375
11906TIP3   OH257132   5.089   1.754   4.625 -0.2356 -0.0689  0.0594
11906TIP3    H157133   5.117   1.676   4.674 -1.1907  1.0374  2.4748
11906TIP3    H257134   4.994   1.745   4.620 -0.2192  0.2633 -0.9084
11907TIP3   OH257135   6.558   4.043   5.211 -0.5777 -0.3133 -0.0962
11907TIP3    H157136   6.628   4.051   5.276 -0.1401  1.0395 -0.7064
11907TIP3    H257137   6.540   3.949   5.206 -0.2562 -0.4862  1.5869
11908TIP3   OH257138   4.825   2.991  17.029 -0.2991 -0.4266  0.2412
11908TIP3    H157139   4.879   3.043  16.970 -1.3409  0.5268  0.1253
11908TIP3    H257140   4.746   2.972  16.979 -1.3682  0.7416  1.4667
11909TIP3   OH257141   6.253   1.719  16.611  0.2619  0.1053  0.2767
11909TIP3    H157142   6.192   1.793  16.604 -0.3213 -0.3223  0.7416
11909TIP3    H257143   6.272   1.712  16.704  0.6953 -0.0244  0.1763
11910TIP3   OH257144   3.763   3.348  15.503  1.1585 -0.2710 -0.5759
11910TIP3    H157145   3.702   3.285  15.465  0.2863  0.6961 -0.8156
11910TIP3    H257146   3.787   3.406  15.431  0.1293  1.0746  0.1184
11911TIP3   OH257147   3.721   5.242   1.119  0.3360  0.0463  0.6629
11911TIP3    H157148   3.639   5.216   1.161  1.1476 -3.4817  0.2138
11911TIP3    H257149   3.789   5.219   1.182  1.0983  1.8964  0.5530
11912TIP3   OH257150   5.372   3.480   2.073  0.0055  0.5126  0.0926
11912TIP3    H157151   5.353   3.419   2.143  1.0227  0.9185  0.7259
11912TIP3    H257152   5.423   3.550   2.114  1.5186  0.2293 -1.2643
11913TIP3   OH257153   4.980   6.097  14.826 -0.2320 -0.1566  0.1583
11913TIP3    H157154   5.042   6.024  14.827 -1.0460 -0.8535 -0.0662
11913TIP3    H257155   4.898   6.059  14.794 -0.5579  0.9403 -0.3317
11914TIP3   OH257156   0.282   4.541   4.916 -0.8297 -0.3427  0.3138
11914TIP3    H157157   0.375   4.534   4.892 -0.9658 -1.3188  0.0468
11914TIP3    H257158   0.257   4.629   4.887  0.2711  0.3310  1.3412
11915TIP3   OH257159   6.481   1.935   0.144  0.2039  0.0072 -0.0952
11915TIP3    H157160   6.538   1.862   0.170  0.7852  0.4401 -0.1516
11915TIP3    H257161   6.407   1.893   0.100  0.6311 -0.5350 -0.3018
11916TIP3   OH257162   4.745   3.754   2.011 -0.2498  0.2712  0.4330
11916TIP3    H157163   4.743   3.846   1.984  0.8449  0.4464  0.9454
11916TIP3    H257164   4.680   3.749   2.082  0.5132  0.9091  1.1935
11917TIP3   OH257165   2.408   2.449  10.664 -0.1207  0.1603 -0.0559
11917TIP3    H157166   2.440   2.397  10.590  0.4124  0.3110  0.0720
11917TIP3    H257167   2.486   2.487  10.703 -0.4035  0.0482  0.6133
11918TIP3   OH257168   2.323   5.793  16.636  0.3033 -0.0383 -0.5939
11918TIP3    H157169   2.254   5.839  16.588 -1.1351 -1.1042  0.3962
11918TIP3    H257170   2.341   5.850  16.711 -0.7552 -0.5564  0.0778
11919TIP3   OH257171   0.358   3.477   2.947  0.4945  0.2469 -0.2376
11919TIP3    H157172   0.403   3.427   2.879  0.7234  1.1315 -0.7525
11919TIP3    H257173   0.398   3.564   2.943 -0.3098  0.6462  0.2244
11920TIP3   OH257174   2.272   3.971  12.797 -0.0318  0.0731  0.0520
11920TIP3    H157175   2.329   3.972  12.719  0.4085 -0.1500  0.3697
11920TIP3    H257176   2.324   4.015  12.864 -0.4236  0.2837  0.2141
11921TIP3   OH257177   6.336   5.489  16.246  0.3946 -0.0375 -0.5567
11921TIP3    H157178   6.290   5.562  16.203 -1.5604 -0.5086  0.6777
11921TIP3    H257179   6.296   5.411  16.209  1.1411 -0.4784 -0.4382
11922TIP3   OH257180   2.667   3.121   2.165 -0.3880  0.1147 -0.2033
11922TIP3    H157181   2.609   3.196   2.178 -1.7539 -0.9266 -0.1548
11922TIP3    H257182   2.702   3.103   2.252  0.6300  1.2350 -0.3750
11923TIP3   OH257183   1.468   2.184   4.819 -0.2275  0.0072 -0.2976
11923TIP3    H157184   1.556   2.149   4.831 -0.1855  0.7579  1.7118
11923TIP3    H257185   1.410   2.113   4.847 -0.2113  0.4827  0.9202
11924TIP3   OH257186   3.310   3.309   2.327  0.3809  0.3606  1.0002
11924TIP3    H157187   3.222   3.335   2.299  0.3858 -0.4632  0.2122
11924TIP3    H257188   3.296   3.231   2.381  0.5902  0.4784  1.2255
11925TIP3   OH257189   0.153   0.012   0.867  0.5647  0.1989 -0.0755
11925TIP3    H157190   0.157   0.095   0.915  0.4009  0.6723 -0.8717
11925TIP3    H257191   0.187   0.033   0.780 -0.9422 -0.1920 -0.7773
11926TIP3   OH257192   3.897   2.338   1.984 -1.1600  0.1801  0.1362
11926TIP3    H157193   3.917   2.418   2.033 -0.9444  0.3720 -0.2686
11926TIP3    H257194   3.939   2.268   2.034 -2.1964  0.1889  1.0549
11927TIP3   OH257195   3.581   1.911   0.740 -0.3741  0.8821 -0.0175
11927TIP3    H157196   3.606   1.824   0.710 -0.5021  1.5776 -2.2347
11927TIP3    H257197   3.486   1.913   0.733 -0.4493  0.9344  0.8566
11928TIP3   OH257198   4.549   2.614   1.072 -0.2750 -0.0585  0.2305
11928TIP3    H157199   4.642   2.598   1.088  0.1172  1.2862 -0.5923
11928TIP3    H257200   4.506   2.585   1.152  0.8114 -1.0463  0.4826
11929TIP3   OH257201   4.984   3.291  13.516 -0.2401  0.3367  0.0459
11929TIP3    H157202   5.046   3.294  13.588 -1.5883  1.7884  1.1584
11929TIP3    H257203   4.997   3.373  13.469  0.0738 -0.2452 -0.9028
11930TIP3   OH257204   3.846   6.505   1.286 -0.1622 -0.5583 -0.1720
11930TIP3    H157205   3.846   6.592   1.247  1.0207  0.0620  1.1456
11930TIP3    H257206   3.865   6.521   1.379 -2.8118 -1.9977  0.6530
11931TIP3   OH257207   5.815   0.078   2.024 -0.1695  0.0695 -0.2796
11931TIP3    H157208   5.772  -0.006   2.007  0.3176 -0.0358 -1.0232
11931TIP3    H257209   5.763   0.117   2.095 -2.5094  0.6615 -2.2270
11932TIP3   OH257210   5.568   3.041   3.568  0.4733  0.2531  0.3707
11932TIP3    H157211   5.560   3.021   3.661  1.3951 -1.6937  0.0741
11932TIP3    H257212   5.633   3.112   3.564  0.2741  0.4862  1.2223
11933TIP3   OH257213   0.828   3.570   1.294 -0.1988  0.2980 -0.1909
11933TIP3    H157214   0.838   3.573   1.389  1.8956  4.7889 -0.4312
11933TIP3    H257215   0.898   3.512   1.265  0.6130  0.7422  0.8455
11934TIP3   OH257216   1.083   3.928  12.192 -0.0977 -0.3257 -0.4428
11934TIP3    H157217   1.167   3.911  12.149 -1.2169 -3.2634 -1.6342
11934TIP3    H257218   1.019   3.885  12.136 -2.3859  1.6324  0.5980
11935TIP3   OH257219   6.640   2.565   5.105 -0.1267 -0.2095 -0.9148
11935TIP3    H157220   6.664   2.474   5.087  2.6782  0.6281 -1.7475
11935TIP3    H257221   6.686   2.585   5.187 -2.6242 -0.2012  0.5352
11936TIP3   OH257222   1.442   6.046   2.630 -0.0647  0.1098 -0.1184
11936TIP3    H157223   1.444   6.091   2.715 -0.4123 -0.1157  0.0161
11936TIP3    H257224   1.402   6.109   2.570 -0.2154  0.1125 -0.0151
11937TIP3   OH257225   1.890   1.004   5.673  0.3060  0.3728  0.2137
11937TIP3    H157226   1.846   0.920   5.680  0.3801  0.3087 -0.1128
11937TIP3    H257227   1.826   1.061   5.631  0.2334  0.4976  0.4901
11938TIP3   OH257228   5.623   5.562  15.824  0.0520 -0.1893  0.0580
11938TIP3    H157229   5.544   5.534  15.869  0.0255 -0.1682  0.0246
11938TIP3    H257230   5.679   5.595  15.894  0.7071 -1.7650  0.3046
11939TIP3   OH257231   2.680   6.109  17.194  0.1733  0.2591  0.4718
11939TIP3    H157232   2.620   6.042  17.226 -0.1441  0.2334 -0.1614
11939TIP3    H257233   2.739   6.063  17.134 -0.9543  0.7955 -1.0899
11940TIP3   OH257234   4.390   0.265   3.038 -0.2049  0.5172 -0.1639
11940TIP3    H157235   4.376   0.333   3.103  1.6779  0.2400  0.5644
11940TIP3    H257236   4.399   0.185   3.088  1.5658  0.3465 -0.7326
11941TIP3   OH257237   1.784   3.287   4.871 -0.2439 -0.4398 -0.5318
11941TIP3    H157238   1.709   3.339   4.841  0.4403  0.3378 -0.8964
11941TIP3    H257239   1.785   3.211   4.814 -1.8005 -1.3317  0.5809
11942TIP3   OH257240   4.441   2.759  11.898 -0.4198  0.0499 -0.6895
11942TIP3    H157241   4.512   2.702  11.926  3.3787  2.7144 -4.3713
11942TIP3    H257242   4.405   2.717  11.820 -1.1228  0.0912 -0.3961
11943TIP3   OH257243   1.209   0.727   1.417  0.0054  0.3981 -0.9183
11943TIP3    H157244   1.260   0.647   1.426 -0.3587  0.3682  1.0654
11943TIP3    H257245   1.275   0.797   1.414  0.2593  0.1553 -0.9914
11944TIP3   OH257246   5.399   0.374  11.424 -0.3600  0.3944  0.0116
11944TIP3    H157247   5.431   0.296  11.470 -0.0106  0.6400  0.1889
11944TIP3    H257248   5.478   0.414  11.388 -0.3632  1.4745  1.1784
11945TIP3   OH257249   0.319   2.722   3.181 -0.8270  0.2544 -0.0012
11945TIP3    H157250   0.229   2.693   3.198  0.2422 -1.8490  2.4372
11945TIP3    H257251   0.334   2.703   3.089 -2.6401 -0.0862 -0.2383
11946TIP3   OH257252   3.877   0.884  14.389  0.1322 -0.1590  0.6316
11946TIP3    H157253   3.810   0.951  14.405 -0.0095 -0.6189  1.9814
11946TIP3    H257254   3.943   0.929  14.335  0.0864  1.0953  1.6028
11947TIP3   OH257255   5.925   0.563   3.860 -0.0302 -0.6970  0.3886
11947TIP3    H157256   5.847   0.546   3.912 -0.2039 -1.8864 -0.2235
11947TIP3    H257257   5.987   0.495   3.887  0.1637 -0.8246 -0.3576
11948TIP3   OH257258   3.146   1.349   3.725  0.1781 -0.0780  0.0873
11948TIP3    H157259   3.232   1.328   3.687  0.6012 -1.2029  1.6348
11948TIP3    H257260   3.094   1.378   3.650  1.2705 -1.3921 -1.2215
11949TIP3   OH257261   4.870   1.589  13.379 -0.9493  0.2096 -0.1081
11949TIP3    H157262   4.831   1.516  13.427 -2.5166  1.2164  0.1542
11949TIP3    H257263   4.813   1.601  13.303 -0.7372  1.2325 -0.1074
11950TIP3   OH257264   0.367   0.073   0.686 -0.4261  0.2907 -0.2314
11950TIP3    H157265   0.396   0.138   0.750 -0.1082 -0.6145  0.5670
11950TIP3    H257266   0.445   0.057   0.632  0.1157 -0.9081  0.8606
11951TIP3   OH257267   2.565   4.357  11.335 -0.1885  0.1215  0.4064
11951TIP3    H157268   2.661   4.365  11.338 -0.0302 -1.6340  0.4518
11951TIP3    H257269   2.543   4.367  11.243  0.3809 -2.7605 -0.1008
11952TIP3   OH257270   0.535   1.449   3.427 -0.2557 -0.6756  0.1501
11952TIP3    H157271   0.625   1.421   3.411 -0.1132 -0.6011  0.8221
11952TIP3    H257272   0.542   1.541   3.453 -0.4927 -0.7802  0.5847
11953TIP3   OH257273   3.060   3.302   4.722  0.5969 -0.3243  0.2162
11953TIP3    H157274   2.987   3.249   4.753  0.7073 -0.2971  0.5294
11953TIP3    H257275   3.111   3.243   4.666  0.6637 -0.5234  0.4819
11954TIP3   OH257276   3.537   0.334   1.650  0.3529 -0.4958  0.0069
11954TIP3    H157277   3.630   0.331   1.624 -0.3589 -0.5986 -2.7324
11954TIP3    H257278   3.494   0.272   1.591 -1.5516  0.0115  0.8269
11955TIP3   OH257279   3.183   5.760   3.340 -0.0654  0.2481 -0.3209
11955TIP3    H157280   3.102   5.796   3.377  0.4393 -1.3027  2.4445
11955TIP3    H257281   3.166   5.666   3.332  1.3788 -0.0671  0.1354
11956TIP3   OH257282   1.991   5.142   1.147  0.6440  0.0008 -0.0106
11956TIP3    H157283   1.960   5.191   1.071 -1.0113 -1.2587 -0.1618
11956TIP3    H257284   2.062   5.196   1.183 -1.4649  2.7642  0.1382
11957TIP3   OH257285   3.304   0.550   0.838 -0.6352 -0.1614 -0.1708
11957TIP3    H157286   3.214   0.528   0.862 -0.5201 -1.6858 -1.0323
11957TIP3    H257287   3.357   0.480   0.877 -0.0364 -0.3458 -1.2838
11958TIP3   OH257288   4.702   2.146  15.883 -0.1438 -0.2743 -0.5779
11958TIP3    H157289   4.622   2.097  15.863 -0.3637  0.3732 -1.3125
11958TIP3    H257290   4.671   2.234  15.904  0.3097 -0.2496  0.0075
11959TIP3   OH257291   1.495   0.249  11.623 -0.1517 -0.4693  0.3732
11959TIP3    H157292   1.492   0.254  11.719 -0.2661 -1.0778  0.4049
11959TIP3    H257293   1.404   0.232  11.598 -0.3814  1.1972  0.0638
11960TIP3   OH257294   2.093   1.959   5.345 -0.5221  0.5974 -0.9829
11960TIP3    H157295   2.125   2.008   5.269  1.7115  0.0083 -0.4586
11960TIP3    H257296   2.108   1.868   5.322 -2.5164  0.2471 -0.9867
11961TIP3   OH257297   5.783   6.293  13.850 -0.4089  0.5210 -0.1771
11961TIP3    H157298   5.722   6.356  13.887 -2.0106 -0.8468 -0.3957
11961TIP3    H257299   5.748   6.207  13.876  0.8733 -0.3169 -1.1316
11962TIP3   OH257300   2.907   3.324   0.024 -0.5078 -0.0707  0.1323
11962TIP3    H157301   2.963   3.276   0.084 -1.3357 -3.0231 -1.3660
11962TIP3    H257302   2.962   3.396  -0.008  0.8981 -0.2399  2.0784
11963TIP3   OH257303   0.560   4.387  15.365  0.7218  0.2433 -0.0601
11963TIP3    H157304   0.564   4.460  15.303  0.8862  0.4160  0.1530
11963TIP3    H257305   0.568   4.309  15.310  0.2491  0.3749 -0.3212
11964TIP3   OH257306   0.765   1.729  15.890 -0.3024  0.1541 -0.6432
11964TIP3    H157307   0.711   1.771  15.824 -1.2724 -0.2816 -0.1295
11964TIP3    H257308   0.734   1.639  15.893 -1.0992  0.4646  1.2523
11965TIP3   OH257309   0.552   4.105   4.857  0.5875 -0.2997 -0.1394
11965TIP3    H157310   0.494   4.134   4.786 -0.4899 -0.2878  0.7276
11965TIP3    H257311   0.600   4.183   4.882 -1.0546  0.3740  1.0151
11966TIP3   OH257312   2.968   4.893  14.215 -0.3389  0.1975 -0.1408
11966TIP3    H157313   2.982   4.988  14.218 -0.2576  0.1987 -0.6062
11966TIP3    H257314   3.000   4.866  14.129 -1.7296 -0.0418 -0.5947
11967TIP3   OH257315   6.010   4.751  11.924 -0.4588  0.2807 -0.1691
11967TIP3    H157316   5.961   4.833  11.926 -0.6808  0.1472 -0.1106
11967TIP3    H257317   5.978   4.702  12.000  0.7266  0.7386  0.6393
11968TIP3   OH257318   3.042   6.643   1.859 -0.3010  0.0366  0.0831
11968TIP3    H157319   2.994   6.568   1.822 -0.2603 -0.2169  0.5416
11968TIP3    H257320   3.086   6.607   1.936  2.4344 -0.2907 -1.5697
11969TIP3   OH257321   6.032   3.649   0.002 -0.3373  0.0074 -0.8255
11969TIP3    H157322   5.957   3.627   0.058 -1.1160 -0.3253 -1.9805
11969TIP3    H257323   6.036   3.578  -0.062  0.6257  0.3172 -1.1185
11970TIP3   OH257324   4.895   2.816  12.022  0.2576 -0.2126  0.5566
11970TIP3    H157325   4.807   2.853  12.034  0.2656 -0.3635  1.1144
11970TIP3    H257326   4.880   2.723  12.007  0.3774 -0.4781  1.9432
11971TIP3   OH257327   3.361   3.500   2.062 -0.5096 -0.0354 -0.5182
11971TIP3    H157328   3.338   3.464   2.148  2.2548  0.5808  0.5267
11971TIP3    H257329   3.426   3.439   2.027 -0.6882  0.3985 -1.6387
11972TIP3   OH257330   6.524   2.770   3.608  0.1973 -0.4356  0.0382
11972TIP3    H157331   6.492   2.804   3.524  0.2644 -1.9408 -0.6117
11972TIP3    H257332   6.498   2.836   3.672  1.0256  1.2309 -1.2914
11973TIP3   OH257333   2.809   1.048  13.327 -0.0831 -0.0681  0.3091
11973TIP3    H157334   2.837   0.958  13.314 -1.3388 -0.2966 -0.9263
11973TIP3    H257335   2.805   1.059  13.422  1.5409 -0.8437  0.4715
11974TIP3   OH257336   6.435   3.118   1.480 -0.1230 -0.6452  0.4250
11974TIP3    H157337   6.357   3.062   1.484  0.0536 -0.8171  1.5116
11974TIP3    H257338   6.418   3.187   1.544  0.6905 -0.7694  0.7740
11975TIP3   OH257339   0.432   1.297  12.874 -0.4135  0.8456 -0.1638
11975TIP3    H157340   0.354   1.320  12.824 -0.3715  1.4230  0.0306
11975TIP3    H257341   0.483   1.242  12.814 -1.0489  0.3104 -0.2263
11976TIP3   OH257342   3.524   4.027   1.311 -0.1126 -0.0711  0.5908
11976TIP3    H157343   3.565   3.947   1.278 -1.1827 -1.1925  1.9548
11976TIP3    H257344   3.431   4.018   1.291 -0.1163  1.2998 -0.1381
11977TIP3   OH257345   0.353   6.022   1.981 -0.3503  0.0204  0.0265
11977TIP3    H157346   0.264   6.053   1.965  0.2026  2.1887  0.9988
11977TIP3    H257347   0.361   6.018   2.076  0.2384 -1.2284 -0.0665
11978TIP3   OH257348   3.307   4.115  11.527 -0.5673 -0.0115  0.4423
11978TIP3    H157349   3.214   4.097  11.520 -0.3168 -1.7087  1.1246
11978TIP3    H257350   3.319   4.145  11.618 -0.4684  0.3938  0.2983
11979TIP3   OH257351   4.451   3.375  11.588 -0.2168  0.0717 -0.3761
11979TIP3    H157352   4.433   3.288  11.553 -0.9024  0.3341 -0.6828
11979TIP3    H257353   4.459   3.431  11.511 -0.8901  0.4910 -0.1471
11980TIP3   OH257354   1.878   6.010   3.251 -0.2885  0.4003  0.1414
11980TIP3    H157355   1.899   6.100   3.275 -0.7779  0.7126 -0.5707
11980TIP3    H257356   1.895   5.959   3.330  0.5238  1.0342  0.3829
11981TIP3   OH257357   2.200   4.837   4.936  0.2965  0.0558 -0.1012
11981TIP3    H157358   2.211   4.761   4.879 -1.5891  0.9585 -1.7059
11981TIP3    H257359   2.163   4.905   4.880 -0.3881  1.3806  1.8850
11982TIP3   OH257360   3.847   5.344  12.973  0.3069  0.4137  0.2829
11982TIP3    H157361   3.824   5.291  12.896  0.5910  1.0042 -0.2059
11982TIP3    H257362   3.785   5.416  12.971  1.2874  1.2575 -0.2552
11983TIP3   OH257363   5.699   5.283   2.336  0.7815 -0.3900  0.4406
11983TIP3    H157364   5.611   5.291   2.300  1.0289  0.5791  0.0430
11983TIP3    H257365   5.699   5.339   2.414  0.6652 -1.4017  1.1887
11984TIP3   OH257366   3.370   2.994   0.170  0.4178 -0.1471 -0.0712
11984TIP3    H157367   3.397   3.027   0.084  0.6017  1.4903  0.6057
11984TIP3    H257368   3.451   2.988   0.220  0.2471 -0.6616  0.1452
11985TIP3   OH257369   5.066   1.202   1.898 -0.4396  0.0545 -0.2062
11985TIP3    H157370   5.113   1.277   1.863 -1.3937  0.0221 -1.6436
11985TIP3    H257371   5.131   1.132   1.901  0.3343  0.8083  0.6849
11986TIP3   OH257372   3.717   0.701   4.348  0.8149 -0.5688  0.0524
11986TIP3    H157373   3.738   0.793   4.362  0.1202  0.0621 -2.7830
11986TIP3    H257374   3.627   0.692   4.378  0.8330 -0.3058  0.1856
11987TIP3   OH257375   0.094   0.345   5.161 -1.0682 -0.0287  0.6048
11987TIP3    H157376   0.081   0.307   5.248  0.2931  0.7138  1.1515
11987TIP3    H257377   0.012   0.392   5.143 -0.7726  1.1452  2.1982
11988TIP3   OH257378   5.691   0.358  14.143 -0.3919  0.8723  0.0910
11988TIP3    H157379   5.657   0.300  14.211 -1.9794 -1.2041 -2.3775
11988TIP3    H257380   5.780   0.327  14.127 -1.1844 -0.8462 -1.1147
11989TIP3   OH257381   6.350   4.932  12.677  0.1249 -0.0154  0.0527
11989TIP3    H157382   6.434   4.903  12.711 -0.5680 -1.5641  0.5202
11989TIP3    H257383   6.315   4.989  12.746  0.9036  0.8703 -0.2716
11990TIP3   OH257384   4.625   5.577   3.322 -0.2695 -0.1792  0.0065
11990TIP3    H157385   4.653   5.490   3.349 -1.5707 -0.9187 -0.9477
11990TIP3    H257386   4.557   5.601   3.385 -0.3291 -0.1013 -0.0868
11991TIP3   OH257387   1.694   4.850   4.461  0.2508 -0.0609  0.4324
11991TIP3    H157388   1.664   4.791   4.530 -1.2934 -0.6856 -0.7499
11991TIP3    H257389   1.619   4.906   4.443 -0.0892 -1.3154 -2.2467
11992TIP3   OH257390   0.224   2.913  15.127  0.2606 -0.4071 -0.2080
11992TIP3    H157391   0.238   2.891  15.219  1.2512  0.6768 -0.0816
11992TIP3    H257392   0.264   3.000  15.117 -0.0794 -0.3984 -1.5929
11993TIP3   OH257393   3.259   3.519  16.137  0.5537 -0.3678  0.3535
11993TIP3    H157394   3.221   3.435  16.110  2.0539 -1.4241  1.4546
11993TIP3    H257395   3.350   3.514  16.110  0.2089  1.7287 -1.3033
11994TIP3   OH257396   2.547   0.488  14.807 -0.5713 -0.2798 -0.3237
11994TIP3    H157397   2.579   0.547  14.875 -0.3726  0.5168 -1.1057
11994TIP3    H257398   2.605   0.504  14.733 -0.6890 -1.2629 -0.6346
11995TIP3   OH257399   1.141   0.182   0.722  0.4457 -0.4003 -0.1580
11995TIP3    H157400   1.131   0.277   0.717 -0.8216 -0.4207  1.6810
11995TIP3    H257401   1.102   0.149   0.641  2.0351  0.7047 -1.4065
11996TIP3   OH257402   2.041   5.509  12.597 -0.0936  0.0426 -0.0400
11996TIP3    H157403   1.968   5.511  12.659 -0.6523 -0.1647 -0.6827
11996TIP3    H257404   2.083   5.425  12.614  0.4481  0.4829  0.8386
11997TIP3   OH257405   5.553   2.146   5.227  0.5584  0.3767  0.5028
11997TIP3    H157406   5.548   2.148   5.131 -0.3828  1.6229  0.5717
11997TIP3    H257407   5.510   2.063   5.251  2.7051 -0.9933 -0.2394
11998TIP3   OH257408   6.047   0.943   4.271 -0.2744 -0.1760  0.3946
11998TIP3    H157409   6.009   0.941   4.358 -1.7266  0.3482 -0.2107
11998TIP3    H257410   6.141   0.951   4.285 -0.6037  1.0949  1.8843
11999TIP3   OH257411   2.488   2.880   2.565  0.1576  0.1769 -0.2971
11999TIP3    H157412   2.446   2.794   2.554 -0.0094  0.0231  1.3707
11999TIP3    H257413   2.521   2.902   2.478  0.8982 -1.9554 -0.5945
12000TIP3   OH257414   3.843   4.366  14.210  0.0874  0.0079 -0.4169
12000TIP3    H157415   3.824   4.427  14.139  0.9552 -0.4033 -1.0046
12000TIP3    H257416   3.776   4.299  14.203 -0.2680  0.3547 -0.3837
12001TIP3   OH257417   2.045   6.165  13.511 -0.1526 -0.5776  0.1325
12001TIP3    H157418   2.114   6.204  13.565 -0.6627 -0.0810  0.4410
12001TIP3    H257419   2.007   6.097  13.566 -1.3269  0.5853  0.7966
12002TIP3   OH257420   6.623   0.000   3.215 -0.5963  0.0293 -0.3597
12002TIP3    H157421   6.673   0.050   3.150 -0.0906  1.9173  1.4147
12002TIP3    H257422   6.538  -0.016   3.173  0.1270  0.2220 -1.9176
12003TIP3   OH257423   0.280   5.263   0.937  0.0180 -0.5070 -0.9192
12003TIP3    H157424   0.324   5.249   1.020  0.2758  0.4967 -0.8755
12003TIP3    H257425   0.326   5.338   0.898 -0.8185 -0.2617 -1.4519
12004TIP3   OH257426   0.310   1.887  15.279  0.0122 -0.1291 -0.2322
12004TIP3    H157427   0.216   1.873  15.291  0.0035  0.1332 -0.0053
12004TIP3    H257428   0.348   1.872  15.365  0.2275 -0.6179 -0.4092
12005TIP3   OH257429   5.101   1.286   4.741  0.3419 -0.3504  0.3425
12005TIP3    H157430   5.095   1.373   4.782 -2.0342  0.5454 -1.7753
12005TIP3    H257431   5.183   1.288   4.693 -0.1897  1.1474 -0.5529
12006TIP3   OH257432   2.726   3.559   4.535 -0.1448  0.0756 -0.3403
12006TIP3    H157433   2.674   3.479   4.522 -0.7201  0.7783 -2.5985
12006TIP3    H257434   2.675   3.610   4.599  0.8177 -1.8159  2.0390
12007TIP3   OH257435   2.202   2.441  14.273  0.4725 -0.1236  0.5489
12007TIP3    H157436   2.231   2.418  14.184  0.2429 -0.6187  0.6010
12007TIP3    H257437   2.275   2.414  14.329  0.5485  0.0347  0.5250
12008TIP3   OH257438   1.521   3.285   0.770 -0.1642  0.5949  0.5803
12008TIP3    H157439   1.548   3.199   0.740 -1.9628 -0.2457  1.3471
12008TIP3    H257440   1.440   3.270   0.819 -0.4105  2.6851  0.8690
12009TIP3   OH257441   5.724   2.083   6.096  0.3742  0.1714 -0.3005
12009TIP3    H157442   5.794   2.148   6.095 -0.5273  1.1515 -0.4970
12009TIP3    H257443   5.756   2.014   6.038  1.0691  0.7286 -0.5997
12010TIP3   OH257444   6.182   4.166  17.005 -0.1593 -0.6780 -0.0695
12010TIP3    H157445   6.130   4.200  17.078 -0.4685 -1.5848  0.1362
12010TIP3    H257446   6.230   4.092  17.042 -1.7820 -2.3665 -1.2392
12011TIP3   OH257447   6.630   5.398  15.547  0.3390 -0.6154 -0.1158
12011TIP3    H157448   6.567   5.327  15.535  0.2420 -0.6835  0.7706
12011TIP3    H257449   6.578   5.478  15.541  0.2205 -0.6622  0.2786
12012TIP3   OH257450   5.064   3.654  15.402  0.1510 -0.3283 -0.1035
12012TIP3    H157451   4.989   3.680  15.455 -0.3005 -1.8709  0.0248
12012TIP3    H257452   5.132   3.719  15.423 -0.8164  0.4886  0.5110
12013TIP3   OH257453   2.547   2.978  15.328 -0.1064  0.3701 -0.5144
12013TIP3    H157454   2.638   2.951  15.314 -0.1531  0.8177 -1.7414
12013TIP3    H257455   2.511   2.987  15.240 -0.6257  2.5546 -0.1215
12014TIP3   OH257456   6.051   6.074  17.220 -0.3071 -0.1004  0.3215
12014TIP3    H157457   6.084   6.131  17.289 -0.0688  0.6182 -0.3797
12014TIP3    H257458   6.065   5.985  17.254  2.7639  0.1625 -0.1292
12015TIP3   OH257459   1.266   4.879  15.337  0.6830 -0.0005  0.5199
12015TIP3    H157460   1.256   4.966  15.298 -0.5259  0.4123  1.7179
12015TIP3    H257461   1.355   4.878  15.372  0.9341  0.5037 -0.1026
12016TIP3   OH257462   0.168   6.745  16.424  0.1004  0.1375 -0.2384
12016TIP3    H157463   0.250   6.788  16.401 -1.2202  0.6231 -4.4165
12016TIP3    H257464   0.113   6.815  16.459  1.3503 -0.1838  2.5385
12017TIP3   OH257465   4.730   3.827   3.463 -0.2005  0.1745 -0.6982
12017TIP3    H157466   4.680   3.862   3.390 -0.1357  1.3094 -0.2089
12017TIP3    H257467   4.817   3.809   3.427  0.2942  2.1319 -0.5722
12018TIP3   OH257468   4.426   3.339   2.715 -0.5888 -0.0829  0.0137
12018TIP3    H157469   4.436   3.311   2.624 -1.7892 -0.0782 -0.1319
12018TIP3    H257470   4.403   3.432   2.709 -1.8860 -0.3724  0.2498
12019TIP3   OH257471   0.107   5.038  12.409  0.0258 -0.1201  0.6821
12019TIP3    H157472   0.140   5.094  12.478  0.2689  2.1636 -1.2003
12019TIP3    H257473   0.182   4.986  12.381  0.5916  0.8164  0.4206
12020TIP3   OH257474   3.752   4.301  11.143  0.0052  0.1862  0.3311
12020TIP3    H157475   3.734   4.209  11.123 -1.0035 -0.1768  2.7869
12020TIP3    H257476   3.698   4.350  11.081 -0.6734 -0.8847  0.0685
12021TIP3   OH257477   1.835   5.234   3.509 -0.5912  0.0131 -0.0026
12021TIP3    H157478   1.806   5.222   3.599 -0.8321  1.7795  0.1723
12021TIP3    H257479   1.758   5.213   3.456 -1.2360  1.5286  0.3210
12022TIP3   OH257480   3.175   5.655  16.557 -0.0697  0.2175 -0.0292
12022TIP3    H157481   3.170   5.706  16.476  1.5900 -0.1297 -0.3731
12022TIP3    H257482   3.261   5.678  16.594 -0.0528 -0.9978  0.7104
12023TIP3   OH257483   0.862   4.636  16.267 -0.6741  0.3445 -0.0572
12023TIP3    H157484   0.826   4.708  16.214 -0.2949  0.9959  0.5570
12023TIP3    H257485   0.849   4.665  16.357  1.1936  0.5030  0.1809
12024TIP3   OH257486   4.871   4.618   0.664 -0.3243 -0.6337  0.3483
12024TIP3    H157487   4.789   4.666   0.655  1.0667  1.6551 -0.6449
12024TIP3    H257488   4.903   4.608   0.574  0.0954 -2.2595  0.6495
12025TIP3   OH257489   3.177   2.784   1.013 -0.1671 -0.1647  0.0756
12025TIP3    H157490   3.091   2.758   1.047 -0.6402  1.5866  0.3215
12025TIP3    H257491   3.158   2.828   0.930  0.5538 -0.3272 -0.1789
12026TIP3   OH257492   3.079   0.740  12.818 -0.4479 -0.9468 -0.0184
12026TIP3    H157493   3.077   0.685  12.897  0.9564 -0.3398  0.4659
12026TIP3    H257494   3.001   0.795  12.825 -0.0459 -0.5023  1.2570
12027TIP3   OH257495   0.435   6.328   0.934 -0.7736 -0.0210  0.0144
12027TIP3    H157496   0.385   6.408   0.921 -1.1066 -0.2609 -0.1888
12027TIP3    H257497   0.371   6.258   0.923 -1.1388 -0.2575  3.0347
12028TIP3   OH257498   0.005   4.301   2.361 -0.0755  0.2933 -0.2639
12028TIP3    H157499   0.068   4.244   2.318  0.2118  0.4397 -0.0402
12028TIP3    H257500  -0.001   4.377   2.303  0.7523  0.7536  0.2349
12029TIP3   OH257501   3.173   0.992  14.039  0.0425  0.0316  0.3694
12029TIP3    H157502   3.145   0.934  14.110  0.6078  1.5743  1.9053
12029TIP3    H257503   3.091   1.015  13.994 -0.3812 -0.6159  0.7877
12030TIP3   OH257504   6.166   6.645  16.342  0.4469 -0.0462  0.4382
12030TIP3    H157505   6.103   6.711  16.313  2.6937  2.0362  0.1218
12030TIP3    H257506   6.184   6.593  16.264 -0.2636 -0.1465  0.3368
12031TIP3   OH257507   4.448   6.479  15.963 -0.6929  0.8028 -0.0327
12031TIP3    H157508   4.471   6.571  15.967  1.4225  0.3717 -1.3999
12031TIP3    H257509   4.396   6.470  15.883 -0.1714  0.6718 -0.3606
12032TIP3   OH257510   0.316   2.131   6.321  0.3500 -0.2515  0.2726
12032TIP3    H157511   0.334   2.054   6.375  1.2956 -0.1708  0.0770
12032TIP3    H257512   0.237   2.169   6.360 -1.0666 -2.2116 -0.6268
12033TIP3   OH257513   2.413   1.807   3.620  0.2202  0.3413 -0.1311
12033TIP3    H157514   2.394   1.715   3.641 -0.0645 -0.1379 -2.3805
12033TIP3    H257515   2.498   1.824   3.661 -0.7159 -0.2579  2.1516
12034TIP3   OH257516   6.426   1.841  12.248 -0.8327  0.3439  0.3445
12034TIP3    H157517   6.420   1.926  12.204 -0.5199  0.6705  0.9197
12034TIP3    H257518   6.339   1.803  12.237 -1.8324  1.9244  2.4044
12035TIP3   OH257519   0.220   0.896  17.223  0.5140 -0.3478 -0.3752
12035TIP3    H157520   0.273   0.843  17.163  1.1834 -0.4655  0.3147
12035TIP3    H257521   0.277   0.968  17.248 -0.4453  0.7857 -1.4108
12036TIP3   OH257522   3.245   1.745  15.692  0.6358  0.0196 -0.6993
12036TIP3    H157523   3.334   1.709  15.687 -0.2443 -2.1329 -1.7668
12036TIP3    H257524   3.192   1.684  15.639 -1.4008  1.4660 -0.3707
12037TIP3   OH257525   3.876   3.636  14.641  0.1102  0.2871  0.4580
12037TIP3    H157526   3.919   3.689  14.708 -0.0883  1.3179 -0.2247
12037TIP3    H257527   3.789   3.675  14.631 -0.6989 -1.2599  1.2196
12038TIP3   OH257528   1.286   1.281  16.447  0.1145  0.5036 -0.4355
12038TIP3    H157529   1.351   1.350  16.435  1.8344 -1.0541 -0.4880
12038TIP3    H257530   1.238   1.278  16.364  0.6089  1.0736 -0.7443
12039TIP3   OH257531   4.838   0.577  13.502 -0.1272 -0.4530  0.0070
12039TIP3    H157532   4.844   0.659  13.453  0.8640 -0.3748  0.2492
12039TIP3    H257533   4.894   0.590  13.578  0.7326 -1.6532 -0.3835
12040TIP3   OH257534   5.462   4.663   1.808  0.4413  0.2201  0.2127
12040TIP3    H157535   5.441   4.711   1.728  1.9657  0.8928  0.1975
12040TIP3    H257536   5.448   4.571   1.786 -0.8458  0.5229 -0.2775
12041TIP3   OH257537   4.324   2.568  15.174 -0.0662  0.3935  0.3157
12041TIP3    H157538   4.307   2.582  15.081 -0.7614 -0.0203  0.3802
12041TIP3    H257539   4.352   2.476  15.179  1.5660  0.8607  0.3001
12042TIP3   OH257540   3.536   2.436   1.358  0.2068  0.3383 -0.0373
12042TIP3    H157541   3.569   2.521   1.387  1.6233  0.0631 -0.7856
12042TIP3    H257542   3.496   2.453   1.273 -1.9192  0.7336  1.0227
12043TIP3   OH257543   4.557   6.005   4.963 -0.1146  0.1441  0.4920
12043TIP3    H157544   4.613   5.977   5.036 -1.2152  0.1314  1.3502
12043TIP3    H257545   4.468   5.992   4.995 -0.6210 -1.4094 -1.4730
12044TIP3   OH257546   5.816   2.355   0.662 -0.2029 -0.3068  0.2163
12044TIP3    H157547   5.908   2.353   0.635 -0.5913 -0.4984 -1.1495
12044TIP3    H257548   5.817   2.324   0.752  1.0128 -0.8840  0.0178
12045TIP3   OH257549   0.349   5.254  12.433 -0.1119 -0.1349  0.2673
12045TIP3    H157550   0.411   5.204  12.486  1.4184  0.0667 -1.2784
12045TIP3    H257551   0.289   5.294  12.496  2.8306  1.7097  2.0287
12046TIP3   OH257552   2.117   1.593   3.528 -0.2990  0.4641 -0.3458
12046TIP3    H157553   2.084   1.621   3.613  0.2753 -0.6457  0.2570
12046TIP3    H257554   2.204   1.558   3.547 -0.1843  0.1889 -1.3850
12047TIP3   OH257555   3.992   2.960   0.852  0.0036  1.0148 -0.6080
12047TIP3    H157556   4.016   2.895   0.785  0.4040 -0.8697  1.3047
12047TIP3    H257557   3.981   3.041   0.803  1.7919  0.0279 -2.7620
12048TIP3   OH257558   5.614   0.720   0.684 -0.3760  0.0025  0.2792
12048TIP3    H157559   5.627   0.811   0.713  2.6314  0.1738 -1.4099
12048TIP3    H257560   5.683   0.671   0.728 -0.3353 -1.0011 -0.8780
12049TIP3   OH257561   3.908   4.303   0.694  0.7103  0.5572 -0.0225
12049TIP3    H157562   3.980   4.336   0.641  1.1684 -0.2058  0.1214
12049TIP3    H257563   3.829   4.341   0.654  1.0164 -0.2964 -1.4823
12050TIP3   OH257564   6.588   0.450   0.834  0.1046  0.5354  0.3050
12050TIP3    H157565   6.654   0.509   0.800  0.5822  0.8362  1.6967
12050TIP3    H257566   6.529   0.506   0.884  0.2549 -0.0754  1.1835
12051TIP3   OH257567   5.716   0.976   3.307 -0.1654 -0.8694  0.6650
12051TIP3    H157568   5.740   1.061   3.342 -1.1704 -0.6968  0.9556
12051TIP3    H257569   5.787   0.918   3.333  1.6805  0.3356 -1.5001
12052TIP3   OH257570   3.140   0.988  12.476  0.2664 -0.0038 -0.3896
12052TIP3    H157571   3.163   1.009  12.567 -1.4860  1.2645 -0.2253
12052TIP3    H257572   3.219   0.947  12.441  0.2061 -2.6367  2.3738
12053TIP3   OH257573   2.251   1.834   6.166  0.0475 -0.3157  0.7620
12053TIP3    H157574   2.276   1.752   6.209  0.1905 -0.0455  1.1881
12053TIP3    H257575   2.334   1.880   6.151 -0.1038  0.1283  1.2741
12054TIP3   OH257576   3.413   1.104   2.607 -0.5419  0.1012 -0.1534
12054TIP3    H157577   3.444   1.022   2.643 -0.2296  0.0121 -0.6293
12054TIP3    H257578   3.488   1.163   2.611 -0.2895 -0.1223 -1.3240
12055TIP3   OH257579   2.296   2.325  16.516  0.4571  0.1327  0.0592
12055TIP3    H157580   2.272   2.345  16.606 -0.7515 -1.8047  0.1880
12055TIP3    H257581   2.313   2.410  16.476 -3.4325  1.3763  0.8934
12056TIP3   OH257582   0.252   3.463   6.812  0.0377  0.1800 -0.4060
12056TIP3    H157583   0.298   3.380   6.797 -0.4259 -0.0582 -0.5274
12056TIP3    H257584   0.225   3.491   6.725 -2.5849 -1.1556 -0.0549
12057TIP3   OH257585   3.877   2.939   0.282  0.2121 -0.1236  0.0482
12057TIP3    H157586   3.969   2.947   0.305 -0.6447  2.0113  2.9279
12057TIP3    H257587   3.856   2.847   0.300  1.3698 -0.2335  0.8592
12058TIP3   OH257588   5.713   4.817  16.639 -0.2704  0.2538 -0.4595
12058TIP3    H157589   5.695   4.837  16.731 -0.6627 -1.9713 -0.0252
12058TIP3    H257590   5.767   4.738  16.643  0.0033  0.3570 -2.1415
12059TIP3   OH257591   6.203   3.511   2.383 -0.4492  0.1479  0.1022
12059TIP3    H157592   6.177   3.460   2.306 -0.3070 -1.2481  0.9476
12059TIP3    H257593   6.287   3.474   2.409 -0.2867  0.8998  0.6700
12060TIP3   OH257594   4.454   4.057   2.993  0.2545  0.4397 -0.2895
12060TIP3    H157595   4.415   3.977   3.027  1.1603 -0.2090 -0.7746
12060TIP3    H257596   4.441   4.053   2.899  1.2196  0.3578 -0.4266
12061TIP3   OH257597   5.475   4.597  16.214 -0.6500 -0.5461  0.1586
12061TIP3    H157598   5.553   4.634  16.172 -0.3830  0.1741  1.2526
12061TIP3    H257599   5.418   4.673  16.230 -1.0439 -0.9030  0.4581
12062TIP3   OH257600   4.888   1.640   2.494 -0.1530 -0.4550 -0.1747
12062TIP3    H157601   4.977   1.611   2.473  0.2537  1.8388 -1.7300
12062TIP3    H257602   4.834   1.562   2.479  1.4428 -1.6074 -0.1278
12063TIP3   OH257603   0.278   6.446  13.405  0.6081 -0.1624 -0.0599
12063TIP3    H157604   0.350   6.399  13.447 -0.3582 -1.9444 -0.3750
12063TIP3    H257605   0.218   6.465  13.477  1.1857  1.0070  0.1389
12064TIP3   OH257606   1.851   0.807  12.811  0.4552  0.4262 -0.4500
12064TIP3    H157607   1.929   0.763  12.844  0.1379 -0.2057 -0.5252
12064TIP3    H257608   1.884   0.885  12.767  0.8834  1.2997  1.3824
12065TIP3   OH257609   5.370   0.569  10.323 -0.1294  0.0365 -0.0307
12065TIP3    H157610   5.354   0.517  10.402  1.2887 -1.6403 -0.8037
12065TIP3    H257611   5.392   0.504  10.256  0.9098  1.5919 -1.2312
12066TIP3   OH257612   1.051   6.403  11.985 -0.1110 -0.6141  0.2004
12066TIP3    H157613   0.994   6.343  11.937 -0.9325  0.0450  0.3347
12066TIP3    H257614   1.062   6.363  12.071  1.0023 -1.5776 -0.3874
12067TIP3   OH257615   0.014   4.831   1.246 -0.3018  0.3994  0.0437
12067TIP3    H157616   0.057   4.836   1.332 -0.3434  2.6865 -0.0437
12067TIP3    H257617   0.077   4.867   1.185 -0.0895 -1.6786 -0.9917
12068TIP3   OH257618   3.097   4.157  14.672  0.4314 -0.3672  0.3676
12068TIP3    H157619   3.078   4.219  14.602  0.8892 -0.4839  0.1372
12068TIP3    H257620   3.012   4.115  14.690  0.6528 -1.6919 -1.4279
12069TIP3   OH257621   6.562   5.931   4.765  0.4168 -0.1455 -0.2897
12069TIP3    H157622   6.544   5.898   4.853  0.7926 -2.0250 -0.9002
12069TIP3    H257623   6.521   5.868   4.707 -0.6488  1.5998 -1.4701
12070TIP3   OH257624   5.161   0.825   3.142  0.1573 -0.4552  0.4968
12070TIP3    H157625   5.165   0.839   3.048 -2.4255 -3.8765 -0.2341
12070TIP3    H257626   5.249   0.845   3.174  0.7180  1.9935 -2.4017
12071TIP3   OH257627   4.593   5.618   5.016  0.4804 -0.6340  0.1505
12071TIP3    H157628   4.590   5.697   5.069 -1.3426  1.6286 -3.1569
12071TIP3    H257629   4.687   5.601   5.003  0.8924  0.7705  1.1790
12072TIP3   OH257630   5.708   5.774  12.099 -0.7910 -0.1126  0.3176
12072TIP3    H157631   5.697   5.692  12.147  1.1158 -1.3976 -1.3387
12072TIP3    H257632   5.780   5.819  12.144 -0.9380  0.0165  0.4207
12073TIP3   OH257633   5.106   0.633   4.011 -0.2947  0.2521 -0.3868
12073TIP3    H157634   5.202   0.639   4.003 -0.2153  0.2465  0.4707
12073TIP3    H257635   5.076   0.603   3.925  0.5724 -0.8618 -0.3103
12074TIP3   OH257636   1.045   0.195   5.525 -0.2653  0.3106 -0.4927
12074TIP3    H157637   1.120   0.217   5.470 -0.1934  0.9782 -0.1383
12074TIP3    H257638   1.082   0.185   5.613 -0.7805  2.0446 -0.0529
12075TIP3   OH257639   3.217   0.818   6.113  0.1565 -0.0698 -0.5654
12075TIP3    H157640   3.280   0.796   6.181  0.8744  0.0778 -1.1708
12075TIP3    H257641   3.143   0.759   6.128  0.3337 -0.0850  0.2900
12076TIP3   OH257642   4.658   5.929  16.084  0.1039  0.3483 -0.3165
12076TIP3    H157643   4.596   5.874  16.036  0.6783 -0.5579 -0.0388
12076TIP3    H257644   4.686   5.875  16.157 -0.1295  1.4130  0.5719
12077TIP3   OH257645   3.852   3.325   5.164 -0.4098 -0.1689 -0.0594
12077TIP3    H157646   3.777   3.305   5.108 -0.7222  2.2423 -0.5887
12077TIP3    H257647   3.925   3.337   5.103 -0.5969  1.7698  0.0604
12078TIP3   OH257648   5.749   5.066  10.737 -0.1633  0.4010 -0.1273
12078TIP3    H157649   5.659   5.040  10.716  0.3277 -0.4515 -1.2262
12078TIP3    H257650   5.803   5.024  10.670  0.8286  2.8868 -0.9409
12079TIP3   OH257651   6.273   4.555   4.697 -0.1809  0.0470  1.0423
12079TIP3    H157652   6.267   4.497   4.773  0.7506  0.6305  1.5747
12079TIP3    H257653   6.315   4.634   4.730  0.0284  0.4000 -0.0328
12080TIP3   OH257654   0.539   3.293  16.005  0.3269 -0.0345 -0.2501
12080TIP3    H157655   0.586   3.244  16.072  2.7579  1.4552 -0.8217
12080TIP3    H257656   0.536   3.235  15.929  0.5231 -0.4368  0.0551
12081TIP3   OH257657   4.649   4.376  15.780  0.2012  0.3962  0.0810
12081TIP3    H157658   4.704   4.313  15.827  0.9467  0.5955 -0.5126
12081TIP3    H257659   4.571   4.385  15.835  0.4667 -0.3885  0.6032
12082TIP3   OH257660   5.443   0.753   2.766  0.3188  0.3349 -0.8125
12082TIP3    H157661   5.443   0.682   2.830 -1.2882  1.3457  0.3557
12082TIP3    H257662   5.428   0.710   2.682 -1.8139 -0.6425  0.0192
12083TIP3   OH257663   1.049   3.471   5.196  0.1410  0.5177 -0.1193
12083TIP3    H157664   0.979   3.520   5.239  1.7322  3.8358 -1.1458
12083TIP3    H257665   1.127   3.489   5.248  1.2816  1.3296 -2.0403
12084TIP3   OH257666   5.799   1.112  16.396 -1.3217 -0.1727  0.0385
12084TIP3    H157667   5.812   1.056  16.473  0.5042  1.6146  1.0792
12084TIP3    H257668   5.770   1.196  16.431 -1.9567  0.2079 -1.3476
12085TIP3   OH257669   5.874   5.032   0.232 -0.2618  0.4549 -0.2134
12085TIP3    H157670   5.895   4.943   0.263 -0.3368  0.7018  0.5562
12085TIP3    H257671   5.959   5.070   0.212 -0.1830  0.4145  0.0356
12086TIP3   OH257672   1.221   4.033  11.557  0.1799 -0.1206  0.0883
12086TIP3    H157673   1.275   3.994  11.488  0.2248 -1.1932  0.7211
12086TIP3    H257674   1.160   4.090  11.510 -1.1541 -2.4074 -1.0228
12087TIP3   OH257675   2.817   0.336   5.951  0.1236 -0.3543 -0.3490
12087TIP3    H157676   2.896   0.365   5.997  0.0423 -1.9168  0.8098
12087TIP3    H257677   2.808   0.244   5.975  0.1734 -1.2812 -3.6318
12088TIP3   OH257678   6.684   5.358  16.845 -0.1369  0.0492  0.1753
12088TIP3    H157679   6.707   5.283  16.901  0.9099 -0.3117 -0.7278
12088TIP3    H257680   6.752   5.423  16.864  0.4050 -0.1984 -0.9151
12089TIP3   OH257681   2.641   5.651   0.160 -0.3478 -0.2157  0.6648
12089TIP3    H157682   2.660   5.584   0.095  0.6229  0.6125  0.0921
12089TIP3    H257683   2.588   5.716   0.114  1.7045  1.1916  0.2259
12090TIP3   OH257684   0.787   6.246  16.025 -0.0790 -0.3536 -0.0611
12090TIP3    H157685   0.868   6.284  15.992 -2.4814  4.0771 -1.3585
12090TIP3    H257686   0.791   6.257  16.120 -0.0118  1.7915 -0.2897
12091TIP3   OH257687   4.158   1.217   5.979  0.0853  0.0391 -0.0288
12091TIP3    H157688   4.208   1.161   5.919  0.2337  0.7460 -0.5814
12091TIP3    H257689   4.224   1.250   6.041  0.4972  1.7155 -1.3234
12092TIP3   OH257690   2.896   2.793   0.664 -0.0213 -0.1302  0.1906
12092TIP3    H157691   2.934   2.862   0.719  1.2040 -0.8614  0.2859
12092TIP3    H257692   2.939   2.803   0.579  1.3872 -1.8001  0.6862
12093TIP3   OH257693   1.446   2.663  15.288  0.4364  0.0367 -0.3072
12093TIP3    H157694   1.435   2.625  15.375  1.7378  0.6758  0.1454
12093TIP3    H257695   1.378   2.621  15.235  0.6966 -1.5854  0.6133
12094TIP3   OH257696   4.101   0.549  11.618  0.9056  0.2198 -0.2153
12094TIP3    H157697   4.116   0.546  11.713 -0.1221  0.2824 -0.0513
12094TIP3    H257698   4.091   0.458  11.593  1.5351  0.1783 -0.3245
12095TIP3   OH257699   4.689   1.293   1.741  0.8370 -0.3825  0.7020
12095TIP3    H157700   4.599   1.278   1.713  1.5126 -0.7348 -1.3965
12095TIP3    H257701   4.708   1.383   1.717  1.0135 -0.2781  1.2238
12096TIP3   OH257702   6.195   4.137  14.863  0.2396 -0.1623  0.1540
12096TIP3    H157703   6.245   4.196  14.920  0.3092 -0.1175  0.0457
12096TIP3    H257704   6.146   4.082  14.924  0.0082  0.1505  0.2534
12097TIP3   OH257705   4.810   0.308  12.917 -0.3468  0.3005 -0.0360
12097TIP3    H157706   4.719   0.335  12.904  0.3594  2.2154 -1.2647
12097TIP3    H257707   4.844   0.296  12.828  0.9416  0.7744  0.3833
12098TIP3   OH257708   5.589   5.143  13.854  0.2975 -0.3488  0.1284
12098TIP3    H157709   5.542   5.141  13.771 -0.8794  1.5852  0.7153
12098TIP3    H257710   5.681   5.143  13.829 -0.0242  3.9741 -1.3510
12099TIP3   OH257711   2.926   1.811   0.434 -0.3545  0.0983 -0.2673
12099TIP3    H157712   2.973   1.733   0.461  1.3505  0.8390 -1.0242
12099TIP3    H257713   2.909   1.797   0.340 -0.8964  0.2053 -0.1853
12100TIP3   OH257714   4.642   1.618  10.645  0.7797  0.6140 -0.8536
12100TIP3    H157715   4.619   1.551  10.709 -1.9920 -0.5800 -2.9927
12100TIP3    H257716   4.731   1.644  10.668  0.2024 -0.4336  2.8606
12101TIP3   OH257717   4.769   1.780  12.451 -0.2896  0.1570 -0.0992
12101TIP3    H157718   4.840   1.741  12.400 -1.1278 -0.5144 -0.7580
12101TIP3    H257719   4.690   1.758  12.403 -1.1649 -1.0665  1.8347
12102TIP3   OH257720   5.513   1.818   0.034  0.2846 -0.4491 -1.1855
12102TIP3    H157721   5.546   1.729   0.046 -1.2998 -1.1623 -1.9407
12102TIP3    H257722   5.425   1.815   0.071 -0.3635  0.3718 -2.6153
12103TIP3   OH257723   4.357   2.329   4.514 -0.1490  0.4126  0.1761
12103TIP3    H157724   4.305   2.308   4.436 -0.9510  0.9141  0.5681
12103TIP3    H257725   4.396   2.246   4.540  0.3499  0.2869 -0.9177
12104TIP3   OH257726   5.147   6.725  16.034 -0.3065  0.2963 -0.3696
12104TIP3    H157727   5.173   6.762  15.950 -1.9282  1.3589 -0.4138
12104TIP3    H257728   5.087   6.789  16.072 -0.2118 -0.5300  1.2523
12105TIP3   OH257729   2.271   5.342  12.810  0.3359 -0.4267 -0.3529
12105TIP3    H157730   2.263   5.307  12.721 -2.1510  0.2421 -0.4132
12105TIP3    H257731   2.362   5.325  12.833  0.3855 -2.8913 -2.0736
12106TIP3   OH257732   3.249   3.540  12.075 -0.4033 -0.3066 -0.5067
12106TIP3    H157733   3.329   3.503  12.113  0.3059  2.5775  0.9969
12106TIP3    H257734   3.253   3.516  11.983  3.1633  1.2822 -0.8423
12107TIP3   OH257735   3.151   4.421   1.573 -0.7224 -0.1210 -0.6705
12107TIP3    H157736   3.114   4.509   1.576  0.4223  0.3791 -0.8452
12107TIP3    H257737   3.102   4.377   1.504 -0.2991  0.8533 -1.6027
12108TIP3   OH257738   3.938   0.094  13.954  0.1599 -0.5682 -0.0857
12108TIP3    H157739   4.010   0.132  14.004  0.2367  0.9187 -1.2890
12108TIP3    H257740   3.964   0.105  13.862 -2.1225  1.0430 -0.5643
12109TIP3   OH257741   2.441   4.886   2.623  0.0800 -0.2752 -0.0664
12109TIP3    H157742   2.523   4.855   2.586 -0.6242 -2.4343  0.1332
12109TIP3    H257743   2.383   4.810   2.621 -2.0515  1.3127 -0.5672
12110TIP3   OH257744   2.061   5.314   2.473  0.2731 -0.0185  0.1389
12110TIP3    H157745   2.080   5.400   2.510  0.9556  0.0752 -0.4076
12110TIP3    H257746   2.110   5.253   2.528  0.1723 -0.0083  0.2391
12111TIP3   OH257747   4.884   0.806  13.333  0.0116  0.3257  0.3225
12111TIP3    H157748   4.928   0.884  13.301  0.5732  0.4165  1.3003
12111TIP3    H257749   4.823   0.782  13.263 -2.5763  3.5275  1.3579
12112TIP3   OH257750   1.076   5.633  14.997  0.1529 -0.5782 -0.3421
12112TIP3    H157751   1.092   5.727  14.987  0.2615 -0.5883 -0.2599
12112TIP3    H257752   1.007   5.626  15.063  1.5358 -0.6360  1.1200
12113TIP3   OH257753   1.528   0.296  12.812  0.3644  0.3439 -0.5819
12113TIP3    H157754   1.523   0.239  12.888  0.7189 -1.4052 -1.8320
12113TIP3    H257755   1.448   0.349  12.816  2.5475  3.5734  3.4922
12114TIP3   OH257756   2.414   6.310   0.082  0.3809  0.3004 -0.0155
12114TIP3    H157757   2.503   6.280   0.063  0.0256 -1.6279  1.2353
12114TIP3    H257758   2.358   6.251   0.033 -0.2487  1.1579 -0.3447
12115TIP3   OH257759   4.030   0.013   4.440 -0.5973 -0.5089 -0.2551
12115TIP3    H157760   4.043  -0.025   4.527  0.5625 -0.0784 -0.2361
12115TIP3    H257761   4.012   0.105   4.456  0.1862 -0.3088 -0.4970
12116TIP3   OH257762   5.112   6.381   5.995  0.2006 -0.0438  0.3808
12116TIP3    H157763   5.089   6.473   6.001  0.4992  0.0705 -0.2176
12116TIP3    H257764   5.145   6.359   6.082 -2.6337 -0.3459  1.4299
12117TIP3   OH257765   4.761   2.040  13.728 -0.2904 -0.0019 -0.6251
12117TIP3    H157766   4.824   2.020  13.658 -0.6092  0.0122 -0.9153
12117TIP3    H257767   4.676   2.017  13.691 -0.4259 -0.3213 -0.1187
12118TIP3   OH257768   3.993   1.883   2.869 -0.1874  0.4390 -0.4798
12118TIP3    H157769   3.913   1.907   2.822  0.3245  0.5108 -1.3382
12118TIP3    H257770   4.062   1.893   2.803  0.2871 -1.4877 -0.2832
12119TIP3   OH257771   5.574   6.517   0.099  0.4316 -0.2505 -0.2710
12119TIP3    H157772   5.600   6.598   0.055  1.8748  0.2343  1.4149
12119TIP3    H257773   5.655   6.466   0.105  0.3066 -0.2442  1.8911
12120TIP3   OH257774   0.651   1.751   0.499  0.0712  0.7652 -0.4765
12120TIP3    H157775   0.660   1.723   0.590  0.0996 -1.9755 -1.2917
12120TIP3    H257776   0.684   1.841   0.499  0.6909  0.5882  2.0832
12121TIP3   OH257777   4.093   5.444  14.437 -0.0021  0.1650  0.3020
12121TIP3    H157778   4.144   5.505  14.490  0.9398  0.5711 -1.0377
12121TIP3    H257779   4.010   5.490  14.421  1.2393  1.7646 -1.9002
12122TIP3   OH257780   0.506   3.779   3.058  0.1525 -0.0434  0.0650
12122TIP3    H157781   0.546   3.851   3.108 -0.8175  1.2933 -1.0538
12122TIP3    H257782   0.474   3.820   2.978 -2.5584 -1.2558  0.4628
12123TIP3   OH257783   3.616   1.602   4.984  0.7927 -0.2303  0.1454
12123TIP3    H157784   3.562   1.629   5.058  1.3680  2.3956 -0.3419
12123TIP3    H257785   3.553   1.566   4.921 -0.0082 -0.0245  0.8152
12124TIP3   OH257786   5.898   5.960   1.329 -0.1398 -0.0280 -0.1039
12124TIP3    H157787   5.965   5.932   1.392  0.6452 -2.0592 -1.7732
12124TIP3    H257788   5.838   5.886   1.324 -0.3330  0.2257 -1.5236
12125TIP3   OH257789   4.738   6.069   5.171 -0.2246 -0.3607 -0.1662
12125TIP3    H157790   4.713   6.118   5.250 -2.2539  0.9987 -1.6024
12125TIP3    H257791   4.811   6.119   5.134  0.3812 -0.7050  0.5491
12126TIP3   OH257792   4.635   1.975  11.576 -0.2169 -0.5676 -0.8736
12126TIP3    H157793   4.722   2.013  11.564 -0.9187  1.3959  0.0404
12126TIP3    H257794   4.629   1.908  11.507  1.9821 -0.7174 -0.9670
12127TIP3   OH257795   3.407   1.143   0.206  0.4937  0.2801 -0.2044
12127TIP3    H157796   3.378   1.091   0.280  1.6391  0.9657  0.7472
12127TIP3    H257797   3.497   1.114   0.190  1.6062  2.8319  1.1744
12128TIP3   OH257798   5.505   4.454   4.074  0.1342 -0.0474  0.1672
12128TIP3    H157799   5.488   4.467   4.167 -0.5586  0.9583 -0.1021
12128TIP3    H257800   5.540   4.365   4.069 -0.0828 -0.2078  1.3509
12129TIP3   OH257801   0.610   0.604  14.752  0.3650 -0.2520  0.1090
12129TIP3    H157802   0.564   0.687  14.741  0.8327  0.1562  1.1461
12129TIP3    H257803   0.613   0.566  14.664 -0.4665  0.4990 -0.2479
12130TIP3   OH257804   4.028   0.327  13.154  0.0509  0.4432  0.1578
12130TIP3    H157805   4.027   0.373  13.070 -3.8753 -1.0555 -0.7277
12130TIP3    H257806   3.946   0.351  13.196 -0.2450 -2.5592  1.4509
12131TIP3   OH257807   6.242   4.074   1.257 -0.1384  0.4500  0.1661
12131TIP3    H157808   6.211   4.029   1.179 -2.0464  2.1953 -0.1167
12131TIP3    H257809   6.188   4.039   1.328  2.2198 -1.8334  0.9403
12132TIP3   OH257810   4.671   1.353  16.433 -0.2069  0.2495 -0.5772
12132TIP3    H157811   4.730   1.279  16.425 -1.7769 -1.0368 -0.4772
12132TIP3    H257812   4.665   1.370  16.528  0.4272  0.7275 -0.6208
12133TIP3   OH257813   1.552   0.873   5.959  0.0997  0.3876  0.6909
12133TIP3    H157814   1.486   0.852   5.893 -0.6452 -1.0354  1.8642
12133TIP3    H257815   1.505   0.926   6.024  1.0097  2.4299 -0.2547
12134TIP3   OH257816   3.712   5.489  15.253 -0.2025  0.0225  0.0125
12134TIP3    H157817   3.700   5.577  15.217  1.0147  0.4895  0.7318
12134TIP3    H257818   3.630   5.444  15.233 -1.0687  1.4945  0.1654
12135TIP3   OH257819   2.982   0.901  11.347 -0.4885 -0.5193  0.2042
12135TIP3    H157820   2.990   0.996  11.341  1.7659 -0.5881  1.3468
12135TIP3    H257821   3.052   0.875  11.407 -1.2465 -2.8768  0.1253
12136TIP3   OH257822   1.780   6.701   3.308 -0.6622  0.4149  0.2499
12136TIP3    H157823   1.831   6.771   3.348  0.6107 -0.5822  0.4010
12136TIP3    H257824   1.833   6.673   3.233 -2.6367  1.7257 -1.7207
12137TIP3   OH257825   6.378   2.344  12.699  0.0983  0.8135 -0.1121
12137TIP3    H157826   6.296   2.392  12.683 -0.5549 -0.7621 -1.6398
12137TIP3    H257827   6.394   2.355  12.792 -1.3369  1.9655  0.0227
12138TIP3   OH257828   3.185   5.006  11.989 -0.2895 -0.5549  0.0015
12138TIP3    H157829   3.152   5.074  11.930  0.7394  0.3017  0.4079
12138TIP3    H257830   3.107   4.955  12.012 -0.9930  0.1818 -0.6928
12139TIP3   OH257831   1.159   6.309   2.053 -0.3131  0.5983  0.3371
12139TIP3    H157832   1.237   6.365   2.062  0.2897 -0.0444 -0.8230
12139TIP3    H257833   1.188   6.222   2.082 -0.3164  0.1259 -1.0608
12140TIP3   OH257834   2.433   0.655  11.975  0.5859  0.7114 -0.3819
12140TIP3    H157835   2.398   0.667  11.886  2.2764 -1.2010 -1.3467
12140TIP3    H257836   2.520   0.693  11.972  0.9030  0.0461  0.2729
12141TIP3   OH257837   4.933   6.398   3.338  0.7062  0.1175  0.7802
12141TIP3    H157838   4.857   6.345   3.313  0.2841  1.1917 -0.3065
12141TIP3    H257839   4.997   6.335   3.370  0.3190 -1.0772 -0.7393
12142TIP3   OH257840   4.884   1.863  12.098 -0.3527  0.2682  0.4752
12142TIP3    H157841   4.945   1.870  12.024 -0.2331  1.0890  0.6429
12142TIP3    H257842   4.930   1.807  12.161  1.4084  2.9305  1.7023
12143TIP3   OH257843   1.045   5.419   1.311  0.2647 -0.0002 -0.0691
12143TIP3    H157844   1.019   5.509   1.291 -0.3488  0.2827  1.8797
12143TIP3    H257845   0.968   5.366   1.288  0.4575  0.0153 -0.7690
12144TIP3   OH257846   5.990   6.704  15.329  0.1749 -0.5460  0.5153
12144TIP3    H157847   5.947   6.680  15.412  0.9909 -1.1657  0.7610
12144TIP3    H257848   5.925   6.758  15.284 -1.0546 -1.8343  0.6845
12145TIP3   OH257849   4.544   1.561   6.506 -0.2853  0.6971 -0.1751
12145TIP3    H157850   4.517   1.509   6.582  1.7130 -2.8725 -1.8076
12145TIP3    H257851   4.639   1.572   6.517 -0.3901  2.4339 -0.8417
12146TIP3   OH257852   5.069   5.611   2.448 -0.6634 -0.5419  0.7226
12146TIP3    H157853   5.104   5.554   2.516  0.1184 -1.5019 -0.4841
12146TIP3    H257854   5.092   5.569   2.366 -1.4918  0.6781 -0.1593
12147TIP3   OH257855   4.522   2.705  16.243  0.5646 -0.5274  0.1703
12147TIP3    H157856   4.581   2.731  16.173  0.9494 -0.5062  0.4996
12147TIP3    H257857   4.555   2.620  16.273  1.1107  0.0072  1.1116
12148TIP3   OH257858   6.406   1.145  12.445  0.1557 -0.2711  0.0044
12148TIP3    H157859   6.339   1.210  12.467  0.0861  0.0050 -1.0171
12148TIP3    H257860   6.365   1.061  12.466  0.1365 -0.0056  1.0470
12149TIP3   OH257861   3.903   0.762  11.611  0.4597 -0.1987 -0.4395
12149TIP3    H157862   3.970   0.698  11.591  0.4770  0.2586 -1.8907
12149TIP3    H257863   3.834   0.747  11.547 -0.1971  0.2660  0.1375
12150TIP3   OH257864   3.692   5.692  15.985  0.0408 -0.8601  0.2717
12150TIP3    H157865   3.685   5.719  16.077 -1.5534 -1.3813  0.3227
12150TIP3    H257866   3.604   5.703  15.950  1.3594  2.6428 -2.1664
12151TIP3   OH257867   3.396   3.834  11.702 -0.5561 -0.3654 -0.4191
12151TIP3    H157868   3.331   3.772  11.670 -0.6370 -0.2920 -0.3954
12151TIP3    H257869   3.408   3.811  11.794  0.1077 -0.9529 -0.6468
12152TIP3   OH257870   5.503   5.956   0.925  0.6547  0.6705  0.4765
12152TIP3    H157871   5.413   5.950   0.892  1.0210  0.7614 -0.5483
12152TIP3    H257872   5.557   5.921   0.854  1.4229  0.5367  1.1221
12153TIP3   OH257873   0.586   5.953  16.115 -0.2815  0.0024  0.1156
12153TIP3    H157874   0.502   5.927  16.076  0.2762 -1.8113  0.0793
12153TIP3    H257875   0.561   6.013  16.186 -1.5923 -0.2770 -0.0845
12154TIP3   OH257876   4.461   0.769  12.095 -0.4911  0.2621 -0.4854
12154TIP3    H157877   4.544   0.766  12.047 -0.5269  0.1667 -0.5409
12154TIP3    H257878   4.461   0.855  12.137 -0.3064  0.2136 -0.3840
12155TIP3   OH257879   4.715   3.195   1.973 -0.2152 -0.3167 -0.8287
12155TIP3    H157880   4.784   3.229   1.916 -0.5954 -1.2493 -1.8590
12155TIP3    H257881   4.640   3.180   1.915 -1.3365  0.7719  0.2908
12156TIP3   OH257882   1.962   1.749   2.095  0.4731  0.2706  0.3488
12156TIP3    H157883   2.003   1.682   2.040  0.2588  0.7813 -0.4409
12156TIP3    H257884   2.036   1.797   2.134  0.6392  1.1411 -1.0143
12157TIP3   OH257885   1.989   4.054  13.375 -0.4516 -0.2666  0.5721
12157TIP3    H157886   1.954   4.092  13.294  0.6967 -0.6225 -0.0981
12157TIP3    H257887   1.977   3.960  13.365  0.8532 -0.4137  0.2390
12158TIP3   OH257888   4.847   5.035  12.377 -0.0826 -0.4461  0.3769
12158TIP3    H157889   4.792   5.105  12.411 -1.8884 -1.1577 -1.0065
12158TIP3    H257890   4.872   4.984  12.454  0.6658  1.2798  1.3000
12159TIP3   OH257891   0.787   1.360  16.210 -0.6041  0.0166  0.4485
12159TIP3    H157892   0.723   1.288  16.213 -2.5419  1.6142 -1.4043
12159TIP3    H257893   0.847   1.335  16.140 -1.7558  0.5632 -0.7518
12160TIP3   OH257894   6.029   1.902  13.722 -0.3508  0.2575 -0.6863
12160TIP3    H157895   6.114   1.882  13.761 -0.3273  1.1061 -0.2757
12160TIP3    H257896   6.006   1.988  13.759 -0.8660  0.5414 -1.6557
12161TIP3   OH257897   1.780   3.265  16.771 -0.5474 -0.2997 -0.2969
12161TIP3    H157898   1.851   3.206  16.745 -1.3212 -1.8967  1.1004
12161TIP3    H257899   1.793   3.278  16.865 -0.7069  1.3537 -0.4904
12162TIP3   OH257900   5.863   3.781   3.424 -0.0544 -0.4543  0.3454
12162TIP3    H157901   5.860   3.724   3.346 -0.7041 -0.9923  0.7576
12162TIP3    H257902   5.839   3.723   3.496 -0.0357  0.1870  0.8629
12163TIP3   OH257903   3.915   2.618   0.631  0.1798 -0.7022  0.4431
12163TIP3    H157904   3.985   2.675   0.599  0.1710 -0.9398  0.0067
12163TIP3    H257905   3.952   2.530   0.627  0.0158 -0.7812  0.6500
12164TIP3   OH257906   4.399   2.235   2.341 -0.0691  0.1124  0.6388
12164TIP3    H157907   4.352   2.319   2.334  1.4748  0.8221 -2.0750
12164TIP3    H257908   4.458   2.247   2.415  0.5311  1.6776 -0.0537
12165TIP3   OH257909   0.816   3.183  12.432 -0.4158 -0.4392  0.5411
12165TIP3    H157910   0.863   3.116  12.482 -0.4541 -0.7511  0.1635
12165TIP3    H257911   0.777   3.240  12.499  1.3498  0.4284  0.8431
12166TIP3   OH257912   2.120   1.963  10.533  0.1078  0.1181 -0.4560
12166TIP3    H157913   2.190   2.008  10.579 -0.1179  0.4118 -0.4025
12166TIP3    H257914   2.120   2.002  10.445 -1.1151  1.3363  0.0644
12167TIP3   OH257915   5.721   5.262  15.893 -0.2531 -0.2893 -0.1279
12167TIP3    H157916   5.770   5.271  15.975 -1.6233 -1.9407  0.9089
12167TIP3    H257917   5.656   5.332  15.896  0.3021  0.2332 -0.2439
12168TIP3   OH257918   4.899   6.648   3.534 -0.4386  0.0176  0.6296
12168TIP3    H157919   4.906   6.583   3.464 -1.9578  1.6342 -1.0757
12168TIP3    H257920   4.805   6.655   3.550 -0.5396  3.6829 -1.0805
12169TIP3   OH257921   4.379   5.866  13.034  0.2922  0.2690 -0.5272
12169TIP3    H157922   4.319   5.845  13.105  0.4499  0.2677 -0.3925
12169TIP3    H257923   4.459   5.894  13.078 -0.0590  1.5694 -0.7190
12170TIP3   OH257924   6.142   5.793   2.340  0.8521  0.2624 -0.1099
12170TIP3    H157925   6.158   5.766   2.431 -1.1305 -1.4947 -0.2485
12170TIP3    H257926   6.052   5.823   2.339  0.8686  0.2930 -1.5046
12171TIP3   OH257927   1.520   3.610  13.502 -0.1076  0.0878 -0.1670
12171TIP3    H157928   1.477   3.670  13.563 -0.1841  0.1497 -0.2835
12171TIP3    H257929   1.614   3.622  13.519  0.0591  2.8860 -2.6859
12172TIP3   OH257930   4.595   4.451  13.014 -0.0421 -0.4360 -0.7098
12172TIP3    H157931   4.653   4.498  12.954 -0.1966 -1.0256 -1.3337
12172TIP3    H257932   4.595   4.503  13.094  1.3726 -0.4386 -0.6992
12173TIP3   OH257933   1.404   0.999  13.087 -0.5107 -0.5073  0.1065
12173TIP3    H157934   1.405   1.092  13.110  0.7181 -0.3015 -0.6914
12173TIP3    H257935   1.421   0.998  12.993 -0.5164 -1.5403  0.1158
12174TIP3   OH257936   1.969   0.360   4.857  0.0871  0.3547 -0.7631
12174TIP3    H157937   1.956   0.302   4.782  1.3938  0.6469 -1.2187
12174TIP3    H257938   2.037   0.421   4.829 -0.0248  1.0108  0.3559
12175TIP3   OH257939   1.189   2.003   4.557  0.0606 -0.5383 -0.2008
12175TIP3    H157940   1.134   2.079   4.573  0.7804 -0.3098  1.2374
12175TIP3    H257941   1.147   1.932   4.605  1.0173 -0.3520  0.9488
12176TIP3   OH257942   3.985   5.344  12.617 -0.8789  0.4549 -0.2643
12176TIP3    H157943   3.890   5.342  12.607 -0.7284  1.5642 -2.1837
12176TIP3    H257944   4.019   5.313  12.533  0.4533  2.3825 -0.4648
12177TIP3   OH257945   3.857   1.501  12.312 -0.5687 -0.9923 -0.3938
12177TIP3    H157946   3.904   1.521  12.231  0.6149 -1.1039  0.2638
12177TIP3    H257947   3.871   1.407  12.325  0.4311 -0.6950  0.6978
12178TIP3   OH257948   0.094   0.041   3.538  0.2801 -0.0440  0.1960
12178TIP3    H157949   0.004   0.072   3.528  0.4608 -0.1091 -1.9639
12178TIP3    H257950   0.085  -0.049   3.568 -0.3644  0.1664  0.6421
12179TIP3   OH257951   5.707   3.048  14.447 -0.1454 -0.0080  0.3145
12179TIP3    H157952   5.781   3.062  14.388  0.3781 -0.7368  0.7774
12179TIP3    H257953   5.726   2.964  14.489 -2.0303 -0.9776 -0.7142
12180TIP3   OH257954   0.509   1.647  16.205  0.4898  0.5490 -0.3830
12180TIP3    H157955   0.590   1.649  16.255  0.7416 -0.0032 -0.7634
12180TIP3    H257956   0.529   1.593  16.129 -0.4631 -0.2219 -0.0979
12181TIP3   OH257957   0.449   0.960  14.173  0.1705 -0.6427 -0.3914
12181TIP3    H157958   0.540   0.931  14.168  0.4738  0.5254 -1.7513
12181TIP3    H257959   0.447   1.043  14.126 -1.4246 -0.2143  0.3864
12182TIP3   OH257960   6.681   1.733   3.088 -0.8373 -0.2553 -0.3199
12182TIP3    H157961   6.753   1.727   3.026  0.3686  1.4711  0.8703
12182TIP3    H257962   6.629   1.807   3.058 -1.7134 -1.0329 -0.7457
12183TIP3   OH257963   1.317   5.174   0.645  0.0308  0.4691 -0.0420
12183TIP3    H157964   1.404   5.215   0.645 -0.7577  2.2617  2.0020
12183TIP3    H257965   1.266   5.227   0.584  0.6701 -1.3436 -2.2037
12184TIP3   OH257966   4.040   2.186   2.786  0.5572  0.6511 -0.5152
12184TIP3    H157967   4.007   2.117   2.728 -1.5617  2.1132 -1.0817
12184TIP3    H257968   3.980   2.187   2.860  0.6015  1.8566 -0.4853
12185TIP3   OH257969   5.668   3.119   0.867 -0.2943  0.0013  0.2692
12185TIP3    H157970   5.745   3.173   0.851  0.3767 -1.0019  0.0417
12185TIP3    H257971   5.603   3.150   0.805 -0.2336  1.1593  0.7706
12186TIP3   OH257972   3.125   3.687   6.133  0.2273 -0.0212  0.3029
12186TIP3    H157973   3.214   3.671   6.103  0.4898 -1.2377  1.7201
12186TIP3    H257974   3.109   3.621   6.200 -2.8228 -1.7641 -2.0540
12187TIP3   OH257975   1.763   0.766  16.291 -0.2560  0.1779 -0.2050
12187TIP3    H157976   1.727   0.800  16.209 -1.7099 -1.3054 -0.1982
12187TIP3    H257977   1.692   0.774  16.353  0.2214 -0.5205  0.4329
12188TIP3   OH257978   3.020   3.115   0.367  0.9759  0.4412 -0.6293
12188TIP3    H157979   2.969   3.056   0.311  2.7458  0.4969 -2.3362
12188TIP3    H257980   3.056   3.180   0.308  0.7547  2.0424  0.9527
12189TIP3   OH257981   3.854   6.069  14.355  0.1740  0.2222 -0.4085
12189TIP3    H157982   3.798   6.078  14.278 -2.5545 -0.2805  1.4511
12189TIP3    H257983   3.825   6.140  14.413  1.5713  0.0314  0.5303
12190TIP3   OH257984   2.460   0.359   3.900 -0.0558  0.1679 -0.5513
12190TIP3    H157985   2.531   0.296   3.889 -0.8688 -0.7511 -0.6852
12190TIP3    H257986   2.425   0.371   3.811 -0.1611  0.4898 -0.4664
12191TIP3   OH257987   0.470   6.090   6.049 -0.0682 -0.4809  0.8865
12191TIP3    H157988   0.520   6.088   5.967 -1.7439 -0.8236 -0.1680
12191TIP3    H257989   0.420   6.008   6.047 -0.8952 -0.0009  1.7506
12192TIP3   OH257990   3.961   1.457  13.991  0.4022 -0.1733  0.0725
12192TIP3    H157991   3.882   1.432  13.944 -0.3211 -1.4217  1.8708
12192TIP3    H257992   3.978   1.548  13.965 -1.7234  0.1556 -0.2027
12193TIP3   OH257993   1.077   5.108   4.142 -0.7384  0.4288 -0.3135
12193TIP3    H157994   1.092   5.099   4.048 -3.3468 -2.0783 -0.5515
12193TIP3    H257995   1.106   5.025   4.179 -0.6671  1.0147  0.9710
12194TIP3   OH257996   1.972   6.490  15.807  0.5517  0.5684 -0.3782
12194TIP3    H157997   1.887   6.510  15.847 -0.3138  0.2398 -2.0312
12194TIP3    H257998   2.012   6.427  15.867 -0.0230  1.3198  0.8126
12195TIP3   OH257999   5.148   3.691  14.913 -0.3169  0.1944  0.2873
12195TIP3    H158000   5.067   3.740  14.900 -0.9717 -1.2056 -1.0102
12195TIP3    H258001   5.209   3.755  14.949 -0.8281  2.2645 -2.3494
12196TIP3   OH258002   1.487   5.893  14.860  0.1588  0.6398 -0.3852
12196TIP3    H158003   1.475   5.946  14.782 -1.4385 -1.5135 -1.6375
12196TIP3    H258004   1.400   5.888  14.900  0.4540 -0.3681  0.1479
12197TIP3   OH258005   0.825   2.581  12.723  0.1312  0.3623 -0.7185
12197TIP3    H158006   0.781   2.553  12.804 -1.2589  0.2429 -1.4979
12197TIP3    H258007   0.906   2.530  12.721 -0.6767 -0.9536 -0.2960
12198TIP3   OH258008   0.632   0.028  10.857  0.1679  0.6007  0.0522
12198TIP3    H158009   0.726   0.015  10.874  0.6523  0.1444 -2.7597
12198TIP3    H258010   0.630   0.089  10.783 -1.7082 -1.4367 -1.6125
12199TIP3   OH258011   6.279   5.543  15.573  0.5826  0.5113 -0.1964
12199TIP3    H158012   6.299   5.450  15.585  1.2269  0.6015 -0.5205
12199TIP3    H258013   6.251   5.549  15.482  1.7023  0.8185 -0.5347
12200TIP3   OH258014   6.326   3.100   5.485  0.9176  0.0158 -0.1534
12200TIP3    H158015   6.292   3.069   5.570 -0.4389 -2.4488 -1.5377
12200TIP3    H258016   6.303   3.193   5.483 -0.4395 -0.2446  1.5378
12201TIP3   OH258017   2.471   2.772  11.915  0.1732 -0.4152  0.1952
12201TIP3    H158018   2.533   2.787  11.986  0.9029 -0.1607 -0.4916
12201TIP3    H258019   2.395   2.824  11.938  0.3727 -0.3959  0.8275
12202TIP3   OH258020   1.721   5.226   3.249 -0.0654 -0.0237 -0.4645
12202TIP3    H158021   1.759   5.304   3.210  0.1656  0.6175  1.0112
12202TIP3    H258022   1.763   5.153   3.203 -0.1491  0.7076 -1.7245
12203TIP3   OH258023   1.962   0.045  10.541 -0.7472  0.0249 -0.3443
12203TIP3    H158024   1.914   0.092  10.473 -2.3589 -1.4452 -0.2602
12203TIP3    H258025   1.929   0.082  10.623 -1.0079 -0.2711 -0.3114
12204TIP3   OH258026   2.730   1.577  14.990  0.2961 -0.0993  0.0652
12204TIP3    H158027   2.696   1.605  15.075  0.3027 -0.0244  0.0431
12204TIP3    H258028   2.814   1.622  14.982 -0.1294  0.6156 -0.3932
12205TIP3   OH258029   4.628   5.633  16.110 -0.0968  0.3031 -0.0794
12205TIP3    H158030   4.662   5.549  16.142 -0.0348  0.7590  1.0529
12205TIP3    H258031   4.662   5.640  16.021 -0.2641 -0.9657 -0.2586
12206TIP3   OH258032   1.455   4.087   1.130 -0.6194 -0.3809 -0.1217
12206TIP3    H158033   1.492   4.145   1.196  2.0829  0.2456 -2.0921
12206TIP3    H258034   1.496   4.002   1.145  0.3038 -0.1403 -1.2022
12207TIP3   OH258035   0.732   3.286   3.796  0.4906 -0.4850 -0.0202
12207TIP3    H158036   0.795   3.322   3.859  0.1934 -0.2229  0.1294
12207TIP3    H258037   0.672   3.234   3.849 -1.1517  1.6199  0.2444
12208TIP3   OH258038   3.358   5.855  13.181 -0.1349 -0.1619 -0.3528
12208TIP3    H158039   3.443   5.874  13.140  0.0699 -1.3656 -0.5068
12208TIP3    H258040   3.326   5.941  13.209  1.0245  0.3400 -0.4967
12209TIP3   OH258041   3.002   3.495   1.981 -0.5909 -0.0105 -0.1831
12209TIP3    H158042   3.076   3.452   1.939 -0.6721 -0.3257  0.0020
12209TIP3    H258043   2.973   3.560   1.917  0.7794  1.1368  0.3383
12210TIP3   OH258044   2.910   4.345   5.067 -0.2971 -0.2064  0.2610
12210TIP3    H158045   2.850   4.345   5.141  0.1513  1.0379  0.6320
12210TIP3    H258046   2.936   4.436   5.056  1.5347 -0.7177  0.1132
12211TIP3   OH258047   1.252   3.822  11.799  0.6249  0.2701 -0.3263
12211TIP3    H158048   1.179   3.812  11.861  0.7941 -0.1658 -0.1898
12211TIP3    H258049   1.222   3.886  11.736 -0.1111 -0.3416 -0.6082
12212TIP3   OH258050   5.659   0.509   2.433  0.7396 -0.2169  0.0087
12212TIP3    H158051   5.582   0.542   2.480  0.2258 -3.3847  1.5053
12212TIP3    H258052   5.636   0.518   2.340 -0.6158  0.7100  0.4216
12213TIP3   OH258053   4.674   5.502   4.402  0.0501 -0.4226  0.1174
12213TIP3    H158054   4.711   5.576   4.355  0.0771 -1.1380 -1.0161
12213TIP3    H258055   4.585   5.493   4.366  0.1378 -1.0898  0.0523
12214TIP3   OH258056   4.096   2.796  16.414 -0.0461 -0.4395 -0.0946
12214TIP3    H158057   4.108   2.878  16.461 -0.1974  0.1925 -1.1282
12214TIP3    H258058   4.164   2.797  16.346  0.8878 -1.8593  0.8012
12215TIP3   OH258059   1.173   0.515   2.793  0.2443 -0.6606 -0.1533
12215TIP3    H158060   1.107   0.576   2.825 -0.5152 -2.0848  1.0254
12215TIP3    H258061   1.153   0.432   2.836  2.0456 -1.4292 -0.7385
12216TIP3   OH258062   2.876   6.086  11.968 -0.6051  0.0506 -0.0849
12216TIP3    H158063   2.822   6.163  11.946  1.1453  1.2536 -0.2951
12216TIP3    H258064   2.836   6.014  11.919 -1.0147  1.2570 -1.5834
12217TIP3   OH258065   3.645   0.375   6.295 -0.3144 -0.1985  0.1104
12217TIP3    H158066   3.643   0.438   6.367  0.2353  0.8807 -0.7988
12217TIP3    H258067   3.653   0.290   6.337  0.3826  0.4517  1.3112
12218TIP3   OH258068   4.822   6.173   3.655  0.2713 -0.2215  0.0141
12218TIP3    H158069   4.773   6.142   3.579  1.8586 -1.6947 -0.4472
12218TIP3    H258070   4.763   6.160   3.729 -1.3424  1.3431 -0.9510
12219TIP3   OH258071   4.855   2.953  14.455 -0.3173 -0.4518  0.0906
12219TIP3    H158072   4.909   2.994  14.522 -0.3408 -0.0122 -0.1600
12219TIP3    H258073   4.778   2.921  14.503 -0.3439 -0.1194  0.2667
12220TIP3   OH258074   2.312   3.490  15.064 -0.1396 -0.1854 -0.2064
12220TIP3    H158075   2.278   3.469  14.977 -0.4961  0.9762 -0.3606
12220TIP3    H258076   2.347   3.407  15.097 -1.6163 -1.0405 -0.7318
12221TIP3   OH258077   0.656   0.922   3.946  0.2397 -0.0103  0.0463
12221TIP3    H158078   0.644   0.887   3.858  2.0534  0.5314 -0.4463
12221TIP3    H258079   0.678   1.014   3.934  2.1603 -0.3110  0.9278
12222TIP3   OH258080   2.912   0.591   2.007  0.0390  0.2978  0.3274
12222TIP3    H158081   2.911   0.611   2.101  0.3153 -0.0810  0.4137
12222TIP3    H258082   2.885   0.500   2.002  1.4257 -0.1262  0.1586
12223TIP3   OH258083   2.394   4.189   4.771  0.0380 -0.2293  0.5203
12223TIP3    H158084   2.475   4.234   4.795  0.3509 -0.3422 -0.3093
12223TIP3    H258085   2.339   4.196   4.849  0.8592 -0.1872  1.1046
12224TIP3   OH258086   1.510   0.018  11.996 -0.8833 -0.2336  0.1980
12224TIP3    H158087   1.511  -0.047  11.926  2.9951  0.1496 -0.2267
12224TIP3    H258088   1.508   0.102  11.951  1.2209  0.0062  0.4951
12225TIP3   OH258089   5.438   2.823   3.074 -0.2121  0.0273 -0.5293
12225TIP3    H158090   5.354   2.829   3.029  0.6068  2.4411 -1.8202
12225TIP3    H258091   5.501   2.803   3.004  0.6050  0.4377  0.0803
12226TIP3   OH258092   3.113   0.909   2.504 -0.1388 -0.3536  0.3296
12226TIP3    H158093   3.089   0.903   2.596  2.7084 -1.0964  1.1006
12226TIP3    H258094   3.167   0.831   2.489  0.9101  0.6784 -1.4718
12227TIP3   OH258095   3.734   5.812  12.220  0.0697 -0.0656  0.7066
12227TIP3    H158096   3.735   5.857  12.304 -0.8940  1.7211 -0.2169
12227TIP3    H258097   3.667   5.745  12.229  0.0194  0.0764  1.3903
12228TIP3   OH258098   1.944   5.240  12.195  0.3920 -0.2505  0.6491
12228TIP3    H158099   2.011   5.299  12.230  0.0322  2.1273 -2.4134
12228TIP3    H258100   1.973   5.221  12.105 -0.7303 -2.8793  0.7973
12229TIP3   OH258101   2.042   2.340   4.743  0.3223  0.0344  0.0373
12229TIP3    H158102   2.080   2.318   4.658  0.0099 -1.3267  0.2490
12229TIP3    H258103   2.068   2.431   4.757  1.9147 -0.2848 -0.6878
12230TIP3   OH258104   1.262   3.760  12.443  0.3401  0.1387  1.0251
12230TIP3    H158105   1.345   3.783  12.402 -1.0983  1.4877 -1.2702
12230TIP3    H258106   1.216   3.707  12.378 -0.5615 -0.7132  2.3108
12231TIP3   OH258107   0.089   4.494   1.346 -0.3908  0.1460 -0.5654
12231TIP3    H158108   0.008   4.448   1.326 -1.3294  1.9976 -1.1614
12231TIP3    H258109   0.107   4.546   1.268  1.3561 -0.1963 -0.4132
12232TIP3   OH258110   0.060   3.810   5.333 -0.1740 -0.6684 -0.3807
12232TIP3    H158111   0.044   3.898   5.367  1.0698 -2.3113  4.8460
12232TIP3    H258112  -0.019   3.761   5.357 -0.1234 -1.4163 -1.7108
12233TIP3   OH258113   0.614   3.523   3.214 -0.4051  0.2687 -0.2687
12233TIP3    H158114   0.609   3.609   3.173 -1.3196  0.0890 -0.5378
12233TIP3    H258115   0.554   3.528   3.289  0.3785  0.2209  0.3759
12234TIP3   OH258116   0.923   3.320   4.615 -0.4929 -0.2597  0.1088
12234TIP3    H158117   0.848   3.320   4.556  1.1242  0.3467 -2.0270
12234TIP3    H258118   0.898   3.260   4.685 -2.4976 -0.9883 -1.1714
12235TIP3   OH258119   1.865   4.121   6.302  0.8577  0.5154  0.2395
12235TIP3    H158120   1.909   4.123   6.387  1.1322  0.0058  0.1122
12235TIP3    H258121   1.887   4.035   6.266  1.9276  1.2877 -0.9746
12236TIP3   OH258122   2.095   4.379   5.125  0.3690 -0.0889 -0.2333
12236TIP3    H158123   2.016   4.393   5.178  0.1896 -0.4726 -0.3946
12236TIP3    H258124   2.168   4.395   5.186  0.1596 -1.7395  0.4741
12237TIP3   OH258125   5.840   5.740   5.024 -0.1740  0.0446  0.5795
12237TIP3    H158126   5.841   5.686   4.945 -2.7841  0.3795  0.2819
12237TIP3    H258127   5.862   5.828   4.993  0.4682 -0.1465  0.4918
12238TIP3   OH258128   1.951   3.694   5.883  0.3734  0.4532  0.4756
12238TIP3    H158129   1.893   3.767   5.863  1.0315  0.7893 -0.2649
12238TIP3    H258130   2.002   3.682   5.803  0.9813 -0.1435  0.9473
12239TIP3   OH258131   3.875   6.748   0.736  0.3979 -0.2119 -0.3222
12239TIP3    H158132   3.799   6.754   0.794  1.8883 -0.0244  1.6579
12239TIP3    H258133   3.933   6.819   0.765  0.7953  0.4779 -2.6507
12240TIP3   OH258134   6.278   5.740  13.255  0.5255 -0.4970  0.0682
12240TIP3    H158135   6.242   5.678  13.191  1.3790 -1.5059  0.5693
12240TIP3    H258136   6.333   5.687  13.312  0.1441  0.4805  1.3689
12241TIP3   OH258137   1.097   2.327   0.042  0.3986  0.3129  0.2504
12241TIP3    H158138   1.103   2.334   0.137  0.4018 -0.5098  0.3123
12241TIP3    H258139   1.040   2.252   0.027  1.7142 -0.5760 -0.4001
12242TIP3   OH258140   5.146   3.512  13.885 -0.2122 -0.1055  0.1230
12242TIP3    H158141   5.220   3.469  13.842  0.9000  0.8242  1.0604
12242TIP3    H258142   5.092   3.545  13.813  0.7702  0.0073 -0.5688
12243TIP3   OH258143   3.064   6.407   5.907  0.3365 -1.0999 -0.1216
12243TIP3    H158144   3.009   6.454   5.970 -0.5455  0.8841 -2.3229
12243TIP3    H258145   3.021   6.322   5.897 -0.1702 -0.9957  1.0543
12244TIP3   OH258146   6.750   1.323   3.895  0.4610  0.1601 -0.4254
12244TIP3    H158147   6.812   1.345   3.826 -1.0626 -0.2641 -1.9958
12244TIP3    H258148   6.683   1.392   3.890 -0.8108 -1.0850 -0.8698
12245TIP3   OH258149   5.782   2.817   0.388 -0.5052  0.2831 -0.3298
12245TIP3    H158150   5.797   2.725   0.365 -0.2899  0.5767 -1.3856
12245TIP3    H258151   5.688   2.822   0.404 -0.3582 -0.3554  0.8454
12246TIP3   OH258152   6.215   4.569   4.027  0.1921 -0.1338  0.4991
12246TIP3    H158153   6.159   4.491   4.023  1.4934 -1.2826  3.4359
12246TIP3    H258154   6.168   4.629   4.085 -0.0146  0.6408 -0.4555
12247TIP3   OH258155   0.000   0.096   2.717 -0.2300  0.1082  0.0015
12247TIP3    H158156  -0.088   0.074   2.748 -0.3677 -1.7295 -1.5673
12247TIP3    H258157   0.059   0.042   2.770 -0.1349  0.5695  0.3597
12248TIP3   OH258158   5.295   4.781   2.507  0.1777 -0.4095 -0.0052
12248TIP3    H158159   5.372   4.760   2.560 -0.8095  0.0904  1.7028
12248TIP3    H258160   5.231   4.714   2.531 -1.4000  1.7069  1.9861
12249TIP3   OH258161   6.586   5.809   4.088 -0.5278  0.1205  0.1856
12249TIP3    H158162   6.591   5.775   3.998  1.3524 -0.8363  0.6264
12249TIP3    H258163   6.617   5.737   4.143  0.6782  1.5266  1.3953
12250TIP3   OH258164   4.278   4.236   2.349 -0.0906 -0.1275  0.2390
12250TIP3    H158165   4.357   4.290   2.352 -0.2386  0.1487 -0.8941
12250TIP3    H258166   4.207   4.298   2.335 -0.2474 -0.6145 -1.1772
12251TIP3   OH258167   4.328   6.368   1.577 -0.2057 -0.0980 -0.5477
12251TIP3    H158168   4.282   6.427   1.518 -0.3196 -0.0710 -0.4317
12251TIP3    H258169   4.396   6.328   1.523 -0.0436  0.2359 -0.5944
12252TIP3   OH258170   1.652   1.424  13.790 -0.3950  0.2824  0.1835
12252TIP3    H158171   1.584   1.469  13.840 -0.6827 -0.4220  0.4272
12252TIP3    H258172   1.735   1.458  13.826 -0.6086  0.8941  0.1073
12253TIP3   OH258173   6.574   6.640   3.794 -0.4820 -0.0182  0.3935
12253TIP3    H158174   6.554   6.713   3.736  1.5298  0.6102  0.4330
12253TIP3    H258175   6.651   6.599   3.754 -0.6188 -1.1215  1.2442
12254TIP3   OH258176   2.702   0.355  11.617 -0.1840 -0.0456 -0.1922
12254TIP3    H158177   2.657   0.428  11.575  1.0023  0.0354 -1.3747
12254TIP3    H258178   2.714   0.383  11.707 -1.0184  0.6157 -0.2788
12255TIP3   OH258179   4.309   3.484  14.472 -0.1083  0.6207  0.8580
12255TIP3    H158180   4.351   3.567  14.493  2.8480 -1.0923  2.0326
12255TIP3    H258181   4.302   3.438  14.556  3.0695 -2.3692 -0.3463
12256TIP3   OH258182   2.326   6.764   2.236 -0.3239  0.3135 -0.0830
12256TIP3    H158183   2.323   6.680   2.190 -1.8496 -0.6365  1.6741
12256TIP3    H258184   2.419   6.777   2.255 -0.0410 -0.8615 -0.5803
12257TIP3   OH258185   0.757   2.846  14.393  0.1083 -0.1112 -0.4253
12257TIP3    H158186   0.747   2.840  14.488  0.0323 -0.3774 -0.4477
12257TIP3    H258187   0.706   2.773  14.359 -0.2180  0.2399 -0.6921
12258TIP3   OH258188   0.215   5.481   1.252 -0.1676  0.4075  0.2918
12258TIP3    H158189   0.260   5.541   1.312 -0.1016  1.8827 -1.2149
12258TIP3    H258190   0.146   5.534   1.212 -0.8756 -0.8452 -0.1769
12259TIP3   OH258191   4.017   2.388  16.057  0.0266 -0.2273  0.4046
12259TIP3    H158192   4.113   2.396  16.061  0.1275 -0.8988 -0.5367
12259TIP3    H258193   3.985   2.459  16.112  1.0578  0.6754 -0.1316
12260TIP3   OH258194   0.453   5.612  13.724  0.6909  0.3198 -0.0622
12260TIP3    H158195   0.462   5.666  13.803  1.0616 -0.0039  0.1209
12260TIP3    H258196   0.366   5.633  13.690  1.2218  1.7910 -0.5620
12261TIP3   OH258197   1.762   0.368   0.208  0.6748 -0.0307  0.3389
12261TIP3    H158198   1.703   0.350   0.135  0.1679 -0.1218  0.7703
12261TIP3    H258199   1.780   0.283   0.246  0.3073  0.1021  0.8083
12262TIP3   OH258200   2.137   2.738  11.600 -0.2092 -0.0879 -0.1434
12262TIP3    H158201   2.114   2.761  11.510  0.8169 -0.4017 -0.4974
12262TIP3    H258202   2.143   2.822  11.646 -0.1786  0.1118 -0.5107
12263TIP3   OH258203   6.076   0.095   1.016 -0.0810 -0.5824  0.0880
12263TIP3    H158204   6.133   0.111   1.091 -1.0880  1.6914  0.3908
12263TIP3    H258205   5.987   0.098   1.051 -0.5720  0.8405 -1.2408
12264TIP3   OH258206   5.583   0.431  13.678 -0.1105  0.0750 -0.1696
12264TIP3    H158207   5.541   0.497  13.622 -0.6196 -1.6713 -1.8937
12264TIP3    H258208   5.675   0.432  13.651 -0.3980 -0.9222 -1.2302
12265TIP3   OH258209   3.628   2.531  11.947 -0.3349  0.2565 -0.2744
12265TIP3    H158210   3.647   2.569  12.033  3.1639 -1.1652 -0.3137
12265TIP3    H258211   3.631   2.436  11.962  1.1205 -0.0107 -2.0694
12266TIP3   OH258212   5.488   1.883   5.307 -0.3177  0.1016  0.1480
12266TIP3    H158213   5.562   1.854   5.253 -1.1665 -2.0244  0.0882
12266TIP3    H258214   5.526   1.897   5.394  0.4347  0.4986 -0.2359
12267TIP3   OH258215   2.899   6.153   3.546  0.5341  0.0271 -0.4416
12267TIP3    H158216   2.897   6.057   3.550 -2.0306  0.1459  1.8979
12267TIP3    H258217   2.973   6.178   3.602  1.2953 -0.5394 -1.1673
12268TIP3   OH258218   3.777   6.123   3.072 -0.2143 -0.1121 -0.1100
12268TIP3    H158219   3.802   6.214   3.083  1.6677 -0.6776  0.4922
12268TIP3    H258220   3.707   6.109   3.135  1.6422  0.0992  2.0456
12269TIP3   OH258221   4.405   1.511   2.233 -0.6269  0.4112  0.2709
12269TIP3    H158222   4.386   1.601   2.207 -0.3802  0.5734  0.6452
12269TIP3    H258223   4.470   1.481   2.170 -1.1426  0.3005 -0.2071
12270TIP3   OH258224   5.497   0.267   1.493  0.1449 -0.3631 -0.3217
12270TIP3    H158225   5.511   0.175   1.470  0.4350 -0.6378  0.9172
12270TIP3    H258226   5.511   0.315   1.411 -1.7153 -1.5685 -1.3806
12271TIP3   OH258227   4.084   3.538  14.054  0.3052  0.0413 -0.1131
12271TIP3    H158228   4.116   3.475  14.119 -0.0453  0.5790  0.5712
12271TIP3    H258229   4.066   3.617  14.103 -2.8319 -0.4643 -0.3619
12272TIP3   OH258230   5.051   1.245   0.108 -0.0461 -0.0263 -0.0278
12272TIP3    H158231   5.132   1.283   0.073  0.6876  0.6780  2.3383
12272TIP3    H258232   4.983   1.308   0.083  0.4598  0.4491 -0.2352
12273TIP3   OH258233   3.600   6.249  13.939  0.4713  0.0619 -0.1507
12273TIP3    H158234   3.625   6.281  13.852  2.2043  0.2631  0.3983
12273TIP3    H258235   3.580   6.329  13.989 -0.2944 -0.0383 -0.2950
12274TIP3   OH258236   3.874   6.351  13.082  0.3166 -0.0330  0.3495
12274TIP3    H158237   3.966   6.330  13.066  0.3126 -0.9337  1.4602
12274TIP3    H258238   3.865   6.350  13.177 -0.4096  1.9829  0.3297
12275TIP3   OH258239   4.725   3.893   0.867  0.4218 -0.6679 -0.4795
12275TIP3    H158240   4.637   3.911   0.902 -0.6960  0.1772 -3.5044
12275TIP3    H258241   4.757   3.820   0.919 -1.6612 -0.3234  1.3831
12276TIP3   OH258242   2.703   4.201  15.211 -0.1661  0.0658 -0.2491
12276TIP3    H158243   2.727   4.112  15.237  1.6422 -0.1743 -2.6259
12276TIP3    H258244   2.727   4.255  15.287  1.6588 -1.0658  0.0063
12277TIP3   OH258245   5.699   4.650  10.716  0.2140  0.5454 -0.5872
12277TIP3    H158246   5.627   4.697  10.674 -0.7543 -1.3282 -1.0937
12277TIP3    H258247   5.766   4.644  10.648 -1.2341 -2.2183 -1.8790
12278TIP3   OH258248   2.923   0.556  14.913 -0.4840 -0.3798  0.3373
12278TIP3    H158249   2.924   0.475  14.964 -0.8611  0.2932  1.4433
12278TIP3    H258250   3.015   0.574  14.894 -0.3919 -0.9967  0.2056
12279TIP3   OH258251   4.936   6.090   0.597 -0.1582 -0.5034 -0.7938
12279TIP3    H158252   4.845   6.110   0.573 -1.2240 -1.8535  1.9919
12279TIP3    H258253   4.957   6.012   0.547 -1.8715 -2.4362  1.4213
12280TIP3   OH258254   5.258   6.118   5.873  0.4709  0.4456 -0.3132
12280TIP3    H158255   5.289   6.170   5.798 -0.3925 -0.4340 -1.2979
12280TIP3    H258256   5.242   6.031   5.837  2.1031 -0.5892  1.3768
12281TIP3   OH258257   6.558   5.750  17.185 -0.1408 -0.1356  0.1836
12281TIP3    H158258   6.627   5.730  17.248 -0.2615  1.6055  0.8926
12281TIP3    H258259   6.592   5.824  17.135 -0.1503 -1.3461 -1.6442
12282TIP3   OH258260   6.447   4.917  14.833 -0.3882 -0.0754 -0.0901
12282TIP3    H158261   6.499   4.902  14.755  0.1851  1.4323 -0.0114
12282TIP3    H258262   6.381   4.847  14.833  1.1237 -1.5123 -0.6183
12283TIP3   OH258263   5.767   0.602  16.654  0.1019 -0.0804 -0.3833
12283TIP3    H158264   5.721   0.629  16.575 -2.0629  0.8997  1.1593
12283TIP3    H258265   5.700   0.562  16.709  1.7359 -1.4823  0.6305
12284TIP3   OH258266   5.169   1.797  12.834 -0.6485  0.2916  0.0833
12284TIP3    H158267   5.178   1.805  12.929  0.6450 -0.6875  0.0570
12284TIP3    H258268   5.118   1.716  12.822 -2.2547  1.3008 -0.0196
12285TIP3   OH258269   6.046   1.259   3.705 -0.3604 -0.0160 -0.0602
12285TIP3    H158270   5.959   1.295   3.688 -0.7635 -0.6988  0.4839
12285TIP3    H258271   6.048   1.179   3.652  1.3035  1.8177 -2.9004
12286TIP3   OH258272   5.172   2.145  13.773 -0.2305  0.0111  0.2671
12286TIP3    H158273   5.252   2.123  13.822  0.5338  0.8628 -0.5870
12286TIP3    H258274   5.126   2.061  13.765  1.2778 -0.7653 -0.4974
12287TIP3   OH258275   3.130   3.116  11.941  0.1857 -0.2923 -0.1601
12287TIP3    H158276   3.060   3.057  11.914  0.5377 -0.2459 -1.2141
12287TIP3    H258277   3.112   3.197  11.895  1.0798 -0.3679 -0.6513
12288TIP3   OH258278   0.288   5.610   2.969  0.4404  0.2285  0.3333
12288TIP3    H158279   0.265   5.528   3.013 -1.8074  0.9792  0.6322
12288TIP3    H258280   0.299   5.585   2.877  0.9259 -0.6112  0.6176
12289TIP3   OH258281   1.640   4.948  14.179  0.3060  0.0446  0.0515
12289TIP3    H158282   1.662   4.968  14.270  2.3162 -1.2946 -0.0962
12289TIP3    H258283   1.670   5.024  14.130  1.8009 -0.3994  0.2285
12290TIP3   OH258284   0.261   4.881  10.471 -0.6863 -0.4909  0.0065
12290TIP3    H158285   0.204   4.876  10.395 -0.8742  0.0517  0.1086
12290TIP3    H258286   0.257   4.973  10.498  2.7995  0.3518 -1.9832
12291TIP3   OH258287   6.721   2.784   2.240 -0.1115  0.2620  0.1982
12291TIP3    H158288   6.720   2.842   2.165 -0.4199  1.8046  1.3714
12291TIP3    H258289   6.632   2.788   2.275  0.6616  1.4982  2.0934
12292TIP3   OH258290   2.092   4.281   3.303  0.4986 -0.2436 -0.0096
12292TIP3    H158291   2.010   4.259   3.257 -0.4533  0.7666  1.1751
12292TIP3    H258292   2.160   4.270   3.236 -0.4402 -2.3598 -0.6693
12293TIP3   OH258293   2.898   2.648   1.423  0.5282 -0.5466  0.8165
12293TIP3    H158294   2.952   2.627   1.346 -0.2806  1.1999 -0.2666
12293TIP3    H258295   2.960   2.682   1.487  0.5107  3.6992 -1.2708
12294TIP3   OH258296   2.578   4.315   0.702 -0.0719 -0.4996  0.1062
12294TIP3    H158297   2.588   4.351   0.790 -1.2366 -0.7195  0.3363
12294TIP3    H258298   2.489   4.341   0.676  0.3948 -0.1165 -1.1466
12295TIP3   OH258299   1.301   6.229   4.411  0.7665  0.9763 -0.2559
12295TIP3    H158300   1.292   6.259   4.320 -1.2944 -0.8030 -0.7048
12295TIP3    H258301   1.382   6.178   4.412  0.5070  0.5404 -1.2355
12296TIP3   OH258302   1.020   4.650  11.332  0.0806 -0.0122  0.0216
12296TIP3    H158303   1.067   4.726  11.364 -0.7087 -0.1886  1.6297
12296TIP3    H258304   1.029   4.655  11.236  1.1543  1.3494  0.1787
12297TIP3   OH258305   1.030   5.935   1.322 -0.3165  0.2894  0.7838
12297TIP3    H158306   1.042   6.013   1.376 -1.6162 -0.0036  1.4985
12297TIP3    H258307   0.962   5.958   1.259  2.7214  1.4229 -2.3210
12298TIP3   OH258308   1.249   3.516  12.940 -0.2921  0.4047  0.4847
12298TIP3    H158309   1.340   3.531  12.914 -0.2668 -0.2441  0.1939
12298TIP3    H258310   1.197   3.551  12.867 -0.3047  1.6477  1.0790
12299TIP3   OH258311   3.146   6.439   0.379  0.3239 -0.1337 -0.1743
12299TIP3    H158312   3.235   6.407   0.390  0.5988  0.7874  0.3547
12299TIP3    H258313   3.128   6.430   0.286  1.1788  0.2161 -0.3752
12300TIP3   OH258314   6.466   2.449   5.359  0.0463  0.5038  0.3712
12300TIP3    H158315   6.462   2.541   5.334  0.9752  0.6849  0.8780
12300TIP3    H258316   6.502   2.405   5.282 -0.3324  0.5760  0.1544
12301TIP3   OH258317   0.357   1.872  16.132  0.4878  0.0893 -0.0501
12301TIP3    H158318   0.377   1.939  16.197  0.8702 -1.3578  1.3831
12301TIP3    H258319   0.400   1.793  16.166 -2.1661 -1.5228 -0.2951
12302TIP3   OH258320   6.018   0.796   4.037  0.1187 -0.1782 -0.2623
12302TIP3    H158321   5.994   0.708   4.067 -0.3658  0.5507  1.5602
12302TIP3    H258322   6.039   0.844   4.117 -1.3330  1.8737 -1.0636
12303TIP3   OH258323   0.247   5.023  10.806  0.3558 -0.6248  0.3763
12303TIP3    H158324   0.230   4.939  10.764 -0.3932 -0.0810 -0.4270
12303TIP3    H258325   0.252   5.085  10.733  0.8088  0.0385  0.9720
12304TIP3   OH258326   6.579   5.875  16.294 -0.2257 -0.4407 -0.1317
12304TIP3    H158327   6.602   5.880  16.201  1.6436  0.0558  0.3293
12304TIP3    H258328   6.619   5.953  16.333 -1.0752 -0.5930  1.0775
12305TIP3   OH258329   4.768   0.001  12.773  0.2524 -0.8419  0.2686
12305TIP3    H158330   4.755  -0.093  12.778 -0.8240 -0.7955 -1.4015
12305TIP3    H258331   4.680   0.037  12.761  0.6224  0.4013  1.1688
12306TIP3   OH258332   4.665   5.757   1.756 -0.0756  0.5103 -0.2464
12306TIP3    H158333   4.755   5.752   1.788 -0.5114  1.2722  1.0917
12306TIP3    H258334   4.611   5.747   1.834 -1.1394  2.9711 -0.6510
12307TIP3   OH258335   3.539   0.184  14.155  0.0337  0.2670 -0.1537
12307TIP3    H158336   3.478   0.179  14.228  0.4610  0.0755  0.1937
12307TIP3    H258337   3.484   0.205  14.079 -0.2173  1.9017  0.4669
12308TIP3   OH258338   4.367   1.848   3.594  0.6792  0.1658  0.3511
12308TIP3    H158339   4.450   1.801   3.602 -0.5930 -2.3184 -0.4049
12308TIP3    H258340   4.318   1.822   3.673  0.8359  2.1271  1.1255
12309TIP3   OH258341   2.964   6.154   2.395 -0.9662  0.1202  0.1195
12309TIP3    H158342   2.960   6.065   2.428  3.1594  0.1106  0.9221
12309TIP3    H258343   2.963   6.210   2.473 -1.6208  0.6794 -0.2806
12310TIP3   OH258344   0.032   4.094  15.471 -0.1265  0.4638  0.2158
12310TIP3    H158345  -0.045   4.043  15.497 -0.9238  0.9353 -1.1275
12310TIP3    H258346  -0.003   4.160  15.411  1.5038 -0.0240 -1.3024
12311TIP3   OH258347   1.409   5.207  12.335 -0.1818 -0.5626  0.3023
12311TIP3    H158348   1.389   5.199  12.241  0.5843 -0.6950  0.1528
12311TIP3    H258349   1.395   5.299  12.354  0.1438 -0.4364 -0.0552
12312TIP3   OH258350   3.825   6.593  12.339 -0.2094 -0.2181  0.4021
12312TIP3    H158351   3.733   6.586  12.313  0.2051 -2.0855 -0.6548
12312TIP3    H258352   3.874   6.591  12.256  0.8025  0.4344  0.9714
12313TIP3   OH258353   2.233   3.412  16.128  0.1138 -0.1655  0.2358
12313TIP3    H158354   2.184   3.418  16.046  0.3336 -0.3769  0.0886
12313TIP3    H258355   2.172   3.371  16.190 -1.1310  2.7146  1.0281
12314TIP3   OH258356   0.866   2.132   6.807  0.3480 -0.2557 -0.6734
12314TIP3    H158357   0.793   2.127   6.746  1.2132  1.7730 -1.9274
12314TIP3    H258358   0.942   2.105   6.755  0.6696 -1.1865  0.2788
12315TIP3   OH258359   1.332   0.614   3.152  0.3536  0.4880  0.3912
12315TIP3    H158360   1.392   0.546   3.121  0.0431  0.1897  0.4383
12315TIP3    H258361   1.245   0.577   3.138  0.2260 -0.3511  3.1954
12316TIP3   OH258362   0.497   6.344   1.801 -0.1678 -0.0875  0.3373
12316TIP3    H158363   0.431   6.361   1.867 -0.8094 -1.9414  0.1977
12316TIP3    H258364   0.522   6.253   1.814  1.7915  0.3530 -0.1188
12317TIP3   OH258365   1.510   0.950   2.767 -0.7939  0.5190  0.6336
12317TIP3    H158366   1.499   0.963   2.673  0.3116 -0.9961  0.2873
12317TIP3    H258367   1.532   1.037   2.801 -3.1039  1.4715 -0.2023
12318TIP3   OH258368   5.013   6.111  15.477  0.3780  0.4546  0.1915
12318TIP3    H158369   5.030   6.097  15.383 -0.4103  0.6406  0.0241
12318TIP3    H258370   4.918   6.117  15.484  0.4266  0.2419  1.0356
12319TIP3   OH258371   3.922   3.000   6.845 -0.0972  0.4845 -0.5001
12319TIP3    H158372   3.999   2.945   6.856  0.2549  0.9512 -0.6347
12319TIP3    H258373   3.948   3.066   6.780 -0.1497  1.4771  0.4673
12320TIP3   OH258374   5.838   0.265   1.030 -0.2594 -0.4417  0.4521
12320TIP3    H158375   5.925   0.298   1.055 -0.6171  1.0809 -0.2666
12320TIP3    H258376   5.803   0.331   0.971 -1.4114 -1.6661 -0.2622
12321TIP3   OH258377   0.060   2.617  13.079  0.3552  0.8249  0.0926
12321TIP3    H158378   0.155   2.622  13.093  0.8082 -1.7835 -1.7882
12321TIP3    H258379   0.025   2.588  13.163  1.6361 -1.8304 -0.2503
12322TIP3   OH258380   1.863   0.372  15.922 -0.3755 -0.1683 -0.0807
12322TIP3    H158381   1.876   0.467  15.917  0.5337 -0.3153 -0.5782
12322TIP3    H258382   1.811   0.359  16.001  0.6576  0.6275  0.7426
12323TIP3   OH258383   2.333   0.564  14.641  0.2222 -0.8585  0.3596
12323TIP3    H158384   2.294   0.645  14.676  1.5554 -0.4374  0.8921
12323TIP3    H258385   2.417   0.556  14.687  1.4308 -0.9815 -1.8120
12324TIP3   OH258386   3.658   4.887  14.465  0.2368 -0.1694 -0.3387
12324TIP3    H158387   3.563   4.901  14.459  0.3194  0.3078 -0.5069
12324TIP3    H258388   3.672   4.803  14.421 -0.0921 -0.1915 -0.4045
12325TIP3   OH258389   3.741   1.359  13.849 -0.7557  0.5913 -0.1922
12325TIP3    H158390   3.653   1.341  13.817 -0.3983 -0.8565 -0.3741
12325TIP3    H258391   3.793   1.285  13.819  0.1933  0.6462  1.2894
12326TIP3   OH258392   0.849   0.356  14.389 -0.3083  0.4828  0.0397
12326TIP3    H158393   0.862   0.363  14.295 -0.1590 -0.4683 -0.0199
12326TIP3    H258394   0.849   0.262  14.406  0.7223  0.6681  1.1386
12327TIP3   OH258395   5.099   2.393   0.697 -0.0963  0.0418  0.0173
12327TIP3    H158396   5.049   2.468   0.728  0.8897  1.2037 -1.1165
12327TIP3    H258397   5.187   2.405   0.734  0.4579  0.2383 -1.3099
12328TIP3   OH258398   0.914   1.745  16.960 -0.3191  0.4218  0.3901
12328TIP3    H158399   0.826   1.769  16.933 -0.4833 -0.8073 -0.2388
12328TIP3    H258400   0.972   1.790  16.898 -0.6325 -1.1061 -1.0543
12329TIP3   OH258401   4.254   4.793   1.259  0.5663  0.0129  0.6474
12329TIP3    H158402   4.283   4.817   1.171  2.5241 -1.5929  0.8238
12329TIP3    H258403   4.309   4.846   1.317  0.6202 -0.3535  0.9321
12330TIP3   OH258404   5.280   5.880   2.868 -0.2793 -0.0642 -0.3835
12330TIP3    H158405   5.191   5.908   2.886 -0.1567 -0.1474  0.3426
12330TIP3    H258406   5.278   5.853   2.776 -0.8926  0.3494 -0.4930
12331TIP3   OH258407   2.520   4.690   4.413  0.2628 -0.1716  0.6364
12331TIP3    H158408   2.509   4.781   4.386  1.0023 -0.8547 -2.0746
12331TIP3    H258409   2.462   4.640   4.357  1.6721 -1.6250  0.4193
12332TIP3   OH258410   5.985   4.926   3.467 -0.1212 -0.0180 -0.2484
12332TIP3    H158411   5.977   4.833   3.447  1.5872 -0.1792 -0.3233
12332TIP3    H258412   6.021   4.965   3.387  2.4282  0.0940  0.8742
12333TIP3   OH258413   0.271   6.619   1.461 -0.1090  0.1058 -0.1513
12333TIP3    H158414   0.365   6.617   1.483 -0.0692  0.3868 -0.3034
12333TIP3    H258415   0.263   6.684   1.392 -0.6865  1.4524  1.1461
12334TIP3   OH258416   5.728   3.959  12.982  0.2261  0.2978 -0.0626
12334TIP3    H158417   5.729   4.051  13.006 -0.3989  0.3567 -0.2738
12334TIP3    H258418   5.640   3.943  12.950  0.2280 -0.4591  0.3006
12335TIP3   OH258419   0.187   1.711  11.840 -0.5570  0.5364 -0.2875
12335TIP3    H158420   0.115   1.664  11.881  0.1235 -0.5359 -0.3124
12335TIP3    H258421   0.265   1.680  11.886  0.3236 -1.3428 -2.9566
12336TIP3   OH258422   5.489   5.243  14.326  0.7449  0.6261 -0.3904
12336TIP3    H158423   5.549   5.207  14.392  0.8953  2.4746  0.4873
12336TIP3    H258424   5.474   5.169  14.266  5.0067  0.4516 -1.4471
12337TIP3   OH258425   1.753   4.042  15.041  0.2733 -0.0891  0.1758
12337TIP3    H158426   1.662   4.063  15.016  0.0972 -1.0658 -0.0154
12337TIP3    H258427   1.749   3.952  15.072  0.8300  0.5099  2.0407
12338TIP3   OH258428   0.051   0.572  14.005  0.3362 -0.7296  0.0342
12338TIP3    H158429   0.046   0.667  14.012  1.4780 -0.6980  0.5680
12338TIP3    H258430  -0.033   0.540  14.038 -1.9671  0.2564 -4.4572
12339TIP3   OH258431   3.996   6.381   5.526  0.2859 -0.3081 -0.3669
12339TIP3    H158432   3.972   6.310   5.467  1.9241  0.9178 -2.5809
12339TIP3    H258433   3.924   6.444   5.520  0.1381 -0.4932 -0.5149
12340TIP3   OH258434   1.674   3.374  13.153 -0.0006  0.0652 -0.4240
12340TIP3    H158435   1.611   3.443  13.175  1.4421  0.7469  1.7377
12340TIP3    H258436   1.732   3.414  13.089  0.7503  0.8605  0.7200
12341TIP3   OH258437   3.041   1.461   4.460  0.3155  0.6823 -0.1681
12341TIP3    H158438   2.967   1.510   4.495  0.9834 -0.2554  2.7879
12341TIP3    H258439   3.007   1.416   4.383 -1.7300  1.5428  0.2017
12342TIP3   OH258440   2.713   3.401  16.209 -0.1351 -0.3485  0.0420
12342TIP3    H158441   2.729   3.427  16.118 -0.1201 -1.6674 -0.3464
12342TIP3    H258442   2.659   3.472  16.245  1.6132  1.2397 -0.3634
12343TIP3   OH258443   0.354   0.190   6.056 -0.0272 -0.1403  0.4466
12343TIP3    H158444   0.421   0.232   6.003 -2.6327  0.0617 -2.8302
12343TIP3    H258445   0.384   0.100   6.066  1.7693  0.4921  0.9046
12344TIP3   OH258446   6.383   4.803   4.828 -0.6340 -0.6550 -0.7609
12344TIP3    H158447   6.330   4.841   4.898 -1.9858 -0.0477 -2.0906
12344TIP3    H258448   6.471   4.838   4.843 -0.8134 -0.8657  0.8658
12345TIP3   OH258449   3.244   5.277   4.121  0.5331  0.0243  0.4390
12345TIP3    H158450   3.195   5.302   4.043 -1.0246  0.6889  1.6178
12345TIP3    H258451   3.334   5.264   4.090 -0.3173 -0.9288 -1.6750
12346TIP3   OH258452   0.433   4.909  16.340  0.1939  0.2127 -0.1892
12346TIP3    H158453   0.451   4.859  16.260 -0.9584  0.0019 -0.3275
12346TIP3    H258454   0.514   4.903  16.391  0.3879 -1.0411 -0.6148
12347TIP3   OH258455   0.271   2.213   3.024 -0.3302  0.2047  0.2740
12347TIP3    H158456   0.323   2.207   2.944 -0.1833 -1.7530  0.5067
12347TIP3    H258457   0.333   2.242   3.091 -0.1267  0.4026  0.0031
12348TIP3   OH258458   5.565   4.254  16.798 -0.1364  0.3957 -0.3124
12348TIP3    H158459   5.584   4.328  16.741  1.5727 -0.8653 -1.4182
12348TIP3    H258460   5.507   4.290  16.865 -2.1512  1.9141 -2.7737
12349TIP3   OH258461   2.121   4.986   4.182 -0.0785 -0.0336  0.2181
12349TIP3    H158462   2.025   4.976   4.184 -0.3420  1.6686 -1.9722
12349TIP3    H258463   2.135   5.081   4.181  1.6726 -0.2685  1.1379
12350TIP3   OH258464   2.511   3.477   3.434 -0.4530 -0.2391  0.0294
12350TIP3    H158465   2.605   3.491   3.444 -0.4457  0.1977 -0.6367
12350TIP3    H258466   2.476   3.563   3.411 -1.3253  0.0596  2.3966
12351TIP3   OH258467   0.203   6.018  11.048 -0.4822 -0.5621 -0.0794
12351TIP3    H158468   0.134   5.952  11.055 -0.8254 -0.1319  0.6763
12351TIP3    H258469   0.187   6.061  10.964 -2.1755  0.6970  0.8755
12352TIP3   OH258470   4.732   5.570  15.036 -0.4460 -0.1406  0.3318
12352TIP3    H158471   4.703   5.649  15.081 -1.3576  0.4572 -1.2681
12352TIP3    H258472   4.651   5.522  15.017 -0.0800 -0.3086 -0.8138
12353TIP3   OH258473   2.948   5.837   6.152  0.8865  0.6848 -0.2323
12353TIP3    H158474   2.900   5.917   6.130  0.4490  0.3344 -0.5679
12353TIP3    H258475   2.889   5.789   6.211  0.8067  0.2392 -0.6702
12354TIP3   OH258476   3.434   1.415   2.860  0.0109 -0.4727 -0.2676
12354TIP3    H158477   3.456   1.353   2.790  1.6116 -1.9531  1.4885
12354TIP3    H258478   3.455   1.369   2.941  3.1119  2.9653  1.0736
12355TIP3   OH258479   3.349   2.230   4.404  1.0202  0.1944 -0.1946
12355TIP3    H158480   3.255   2.249   4.410  1.5839  3.1387 -0.0105
12355TIP3    H258481   3.365   2.169   4.476 -0.4726  0.8988  0.7737
12356TIP3   OH258482   2.674   1.458  11.893  0.4297  0.5836 -0.1501
12356TIP3    H158483   2.699   1.472  11.984  0.2272 -1.0930  0.1769
12356TIP3    H258484   2.618   1.533  11.872 -0.7012  0.2479  1.5498
12357TIP3   OH258485   0.067   6.624  14.191 -0.0041 -0.3850 -0.3485
12357TIP3    H158486   0.065   6.566  14.267  0.9739 -0.3300 -0.2722
12357TIP3    H258487  -0.024   6.632  14.164 -0.3207 -0.6668  0.6255
12358TIP3   OH258488   0.640   6.549  15.931  0.0473 -0.2170  0.3249
12358TIP3    H158489   0.727   6.588  15.941  0.9626 -1.9046 -0.8308
12358TIP3    H258490   0.646   6.497  15.851 -2.3163  0.3695 -0.2564
12359TIP3   OH258491   0.521   4.591  15.763 -0.2262 -0.2103 -0.1068
12359TIP3    H158492   0.607   4.633  15.774  0.9508 -2.1376 -1.7244
12359TIP3    H258493   0.541   4.505  15.726 -2.9406 -0.3585 -1.2899
12360TIP3   OH258494   1.936   1.489   1.250 -0.6246  0.0812 -0.0892
12360TIP3    H158495   2.001   1.541   1.204 -0.3715 -0.1553  0.0055
12360TIP3    H258496   1.852   1.516   1.212 -0.4441  0.1359 -0.4430
12361TIP3   OH258497   1.843   2.138   3.397  0.0888 -0.2041  0.2670
12361TIP3    H158498   1.856   2.226   3.434  0.4341 -0.4101  0.6420
12361TIP3    H258499   1.776   2.098   3.452 -0.2318 -0.0913 -0.0450
12362TIP3   OH258500   5.211   2.084   2.533  0.4794  0.0167 -0.0993
12362TIP3    H158501   5.174   2.003   2.568  0.4964  0.3783  0.7855
12362TIP3    H258502   5.271   2.055   2.465  0.2219 -0.6969 -0.0331
12363TIP3   OH258503   4.593   2.605   2.362 -0.5482  0.4736 -0.3874
12363TIP3    H158504   4.689   2.609   2.372 -0.6355  1.0575  0.1929
12363TIP3    H258505   4.569   2.520   2.399 -0.1438 -0.0905 -1.4083
12364TIP3   OH258506   6.413   5.998   2.677 -0.1888 -0.3077  1.1120
12364TIP3    H158507   6.430   5.974   2.586 -0.3437  0.5181  0.8564
12364TIP3    H258508   6.325   6.036   2.675 -0.2598 -0.4419  1.6355
12365TIP3   OH258509   3.359   3.880   1.517 -0.1179 -0.4034  0.3345
12365TIP3    H158510   3.417   3.816   1.474  1.2763  2.0954 -1.7115
12365TIP3    H258511   3.319   3.927   1.444 -1.6276  0.6087  1.8001
12366TIP3   OH258512   3.843   3.391   4.044 -0.2062  0.1068 -0.0595
12366TIP3    H158513   3.937   3.411   4.049 -0.3053  0.7599 -0.7508
12366TIP3    H258514   3.812   3.400   4.134 -0.0302  2.0981 -0.1753
12367TIP3   OH258515   1.556   6.191   1.935 -0.0533 -0.5084  0.1708
12367TIP3    H158516   1.634   6.196   1.880 -0.9871  0.2411 -1.1132
12367TIP3    H258517   1.496   6.135   1.886 -0.6994 -0.2621  0.6725
12368TIP3   OH258518   6.698   1.746  12.727 -0.1314 -0.0896  0.0713
12368TIP3    H158519   6.725   1.836  12.746 -1.6756  1.1325 -3.1208
12368TIP3    H258520   6.779   1.700  12.706  0.3707  1.4091 -1.3993
12369TIP3   OH258521   1.328   2.585  14.139 -0.0914 -0.4763  0.1565
12369TIP3    H158522   1.395   2.536  14.186  0.2073  0.3027  0.5539
12369TIP3    H258523   1.352   2.576  14.047  2.9726  3.2095  0.4897
12370TIP3   OH258524   3.298   1.590  11.890  0.0538 -0.0374 -0.4221
12370TIP3    H158525   3.379   1.641  11.897 -0.1310  0.4243 -1.5330
12370TIP3    H258526   3.235   1.650  11.850 -0.6623 -0.6025 -0.1646
12371TIP3   OH258527   4.577   4.778   0.275 -0.3569  0.4865 -0.3629
12371TIP3    H158528   4.530   4.785   0.358 -1.2941  0.1966 -0.8541
12371TIP3    H258529   4.530   4.710   0.227 -1.2563  2.2690 -2.0531
12372TIP3   OH258530   2.957   6.215  13.564 -0.1677 -0.0829  0.5267
12372TIP3    H158531   2.874   6.240  13.523  0.5309  2.7012  0.7105
12372TIP3    H258532   3.023   6.240  13.500  0.6444 -0.4278  1.2266
12373TIP3   OH258533   5.887   4.623   4.354 -0.3426  0.5456  0.2972
12373TIP3    H158534   5.913   4.540   4.315 -1.5980  0.7396 -0.9611
12373TIP3    H258535   5.927   4.622   4.441  3.4845  0.5915 -1.3403
12374TIP3   OH258536   6.344   6.464   0.076 -0.3519  0.2776  0.5041
12374TIP3    H158537   6.349   6.450  -0.018 -0.7448 -0.0153  0.5278
12374TIP3    H258538   6.432   6.492   0.101 -0.3933  0.8765 -0.0320
12375TIP3   OH258539   0.787   4.207   1.620 -0.6363  0.7209 -1.1524
12375TIP3    H158540   0.864   4.222   1.565 -0.4485  2.6245 -0.4015
12375TIP3    H258541   0.752   4.294   1.637 -1.6041  0.0483  0.4378
12376TIP3   OH258542   1.355   2.556   2.302 -0.2024  0.2354  0.0719
12376TIP3    H158543   1.333   2.549   2.395  0.1111 -0.8000  0.0625
12376TIP3    H258544   1.309   2.483   2.260 -0.1293  0.5397 -0.5520
12377TIP3   OH258545   1.254   5.195   5.410  0.2718 -0.1390 -0.3005
12377TIP3    H158546   1.171   5.165   5.374 -0.0337  0.8306 -0.4213
12377TIP3    H258547   1.320   5.139   5.368 -0.3006 -0.8451 -0.2768
12378TIP3   OH258548   2.380   0.665  13.904 -0.0768 -0.1997  0.2366
12378TIP3    H158549   2.375   0.736  13.840  0.6959 -0.6843 -0.3791
12378TIP3    H258550   2.294   0.623  13.901 -0.9048  1.3742  1.3991
12379TIP3   OH258551   3.761   1.183   6.730  0.0004 -0.2831  0.6751
12379TIP3    H158552   3.828   1.252   6.728  1.0200 -1.2516  0.8217
12379TIP3    H258553   3.767   1.141   6.644 -1.3931  0.5209  0.1697
12380TIP3   OH258554   4.881   5.580   5.068  0.1590  0.0523 -0.4677
12380TIP3    H158555   4.908   5.585   5.160  0.2413 -1.0327 -0.4222
12380TIP3    H258556   4.882   5.670   5.038 -2.1007  0.7160  1.2372
12381TIP3   OH258557   2.707   1.817   3.376 -0.8618 -0.1473 -0.2778
12381TIP3    H158558   2.755   1.736   3.394 -0.6819  0.2879  1.3392
12381TIP3    H258559   2.744   1.880   3.438 -3.0609  0.3727  0.5620
12382TIP3   OH258560   3.713   1.824  13.929  0.2531  0.7081 -0.0292
12382TIP3    H158561   3.779   1.831  13.999 -0.2188 -0.0946  0.4966
12382TIP3    H258562   3.746   1.881  13.860  1.0481  1.0166  0.5971
12383TIP3   OH258563   3.481   2.488   3.971  0.1587  0.1602  0.1815
12383TIP3    H158564   3.503   2.577   3.944  0.8903  0.2490  1.0408
12383TIP3    H258565   3.550   2.464   4.033 -1.8418  0.2273  2.4983
12384TIP3   OH258566   0.313   0.098  12.684  0.1123  0.5949 -0.5174
12384TIP3    H158567   0.247   0.165  12.702 -0.6712 -0.2789 -0.0879
12384TIP3    H258568   0.305   0.036  12.757  0.4695 -0.2369 -1.1716
12385TIP3   OH258569   3.084   1.874  16.197  0.2998  0.1002 -0.0661
12385TIP3    H158570   3.045   1.954  16.232 -0.5556 -0.3166 -0.0410
12385TIP3    H258571   3.011   1.830  16.153  0.8310 -0.5151 -0.3302
12386TIP3   OH258572   1.213   4.121   0.197 -0.1621  0.7400  0.3725
12386TIP3    H158573   1.125   4.102   0.165 -0.2367  0.9163  0.4690
12386TIP3    H258574   1.267   4.126   0.118 -0.4225  1.5585  0.2422
12387TIP3   OH258575   4.979   2.116   3.495 -0.3058 -0.6051  0.4262
12387TIP3    H158576   4.975   2.188   3.431  0.2054 -1.5247 -0.6566
12387TIP3    H258577   5.040   2.147   3.562 -0.2259  0.0421  0.0605
12388TIP3   OH258578   6.637   1.441  15.601 -0.5403  0.3017  0.2015
12388TIP3    H158579   6.618   1.515  15.659 -0.2430  1.2338 -0.8713
12388TIP3    H258580   6.697   1.477  15.536  0.3843 -1.1422  0.2357
12389TIP3   OH258581   4.720   2.288   4.578 -0.0929 -0.2607 -0.6484
12389TIP3    H158582   4.728   2.273   4.672 -0.9046 -1.9584 -0.8304
12389TIP3    H258583   4.651   2.228   4.550  0.2574  0.1065 -2.3595
12390TIP3   OH258584   0.682   3.252   4.784  0.7237  0.1683  0.7383
12390TIP3    H158585   0.702   3.330   4.835  0.8484  0.2919  0.5024
12390TIP3    H258586   0.596   3.270   4.745  0.7599  0.1928  0.6709
12391TIP3   OH258587   3.453   0.413  11.390  0.2164 -0.9653 -0.7018
12391TIP3    H158588   3.521   0.363  11.344 -1.3136 -2.1122 -1.7780
12391TIP3    H258589   3.401   0.451  11.319  0.2080  0.5630  0.1208
12392TIP3   OH258590   5.862   4.748  10.460 -0.3720 -0.0866 -0.1849
12392TIP3    H158591   5.937   4.702  10.422 -1.3189 -2.0382  0.2196
12392TIP3    H258592   5.898   4.830  10.493  1.6451 -1.1127  0.2336
12393TIP3   OH258593   2.851   1.143  13.621  0.3299 -0.5795  0.2560
12393TIP3    H158594   2.863   1.237  13.608  1.6507 -0.9727 -1.7183
12393TIP3    H258595   2.934   1.104  13.591 -0.4882 -2.4130  0.2957
12394TIP3   OH258596   4.676   6.211   1.805 -0.1751 -0.8993  0.0246
12394TIP3    H158597   4.679   6.193   1.899 -1.1383  0.0044  0.2433
12394TIP3    H258598   4.676   6.306   1.798  0.7241 -0.9598 -0.9349
12395TIP3   OH258599   5.042   3.848  13.242  0.0661 -0.4695 -0.3933
12395TIP3    H158600   5.117   3.789  13.232 -1.0372 -1.6867 -1.7083
12395TIP3    H258601   5.011   3.863  13.152 -1.2768 -0.0236  0.1299
12396TIP3   OH258602   0.623   3.303  12.806  0.3450 -0.0594  0.2464
12396TIP3    H158603   0.548   3.327  12.752 -0.2789 -0.5559  0.8778
12396TIP3    H258604   0.585   3.249  12.876  1.3695 -0.8134  0.2307
12397TIP3   OH258605   2.251   0.123  12.896  0.2017  0.4142 -0.7827
12397TIP3    H158606   2.198   0.191  12.938  0.9148  0.8793 -0.6225
12397TIP3    H258607   2.242   0.047  12.953  0.4976  0.7940 -0.2231
12398TIP3   OH258608   1.940   6.230  11.301 -0.4737  0.1975 -0.5415
12398TIP3    H158609   1.995   6.219  11.379  0.5962  2.9276 -0.8671
12398TIP3    H258610   2.002   6.246  11.231 -1.6492  2.7103 -1.0393
12399TIP3   OH258611   2.415   1.138   6.250 -0.3567 -0.1314 -0.0414
12399TIP3    H158612   2.345   1.114   6.311 -0.3443 -0.4334 -0.1455
12399TIP3    H258613   2.488   1.165   6.305  0.5656 -2.8595  0.1551
12400TIP3   OH258614   2.591   2.013   0.423 -0.1169 -0.8130  0.4584
12400TIP3    H158615   2.579   1.927   0.383 -0.8063  0.0291 -1.1769
12400TIP3    H258616   2.677   2.009   0.465  1.2792 -1.2352 -2.3623
12401TIP3   OH258617   2.050   0.586   0.597  0.1376  0.8587 -0.0080
12401TIP3    H158618   1.960   0.617   0.599 -0.2005 -0.0367 -0.8879
12401TIP3    H258619   2.100   0.652   0.645 -0.6894  2.3080 -1.1082
12402TIP3   OH258620   4.763   6.071   4.607 -0.2711 -0.3486  0.0682
12402TIP3    H158621   4.788   6.135   4.673 -0.2299 -0.0935 -0.1922
12402TIP3    H258622   4.808   6.100   4.527  0.0916 -0.9426  0.0540
12403TIP3   OH258623   0.765   4.262  12.702  0.3213  0.6216 -0.2251
12403TIP3    H158624   0.676   4.288  12.725  0.7964  1.3347  0.8553
12403TIP3    H258625   0.815   4.344  12.701  1.2815  0.0704  0.6779
12404TIP3   OH258626   0.562   1.612   6.082 -0.0074 -0.1926 -0.2495
12404TIP3    H158627   0.542   1.520   6.065 -1.9570  0.1704  0.0314
12404TIP3    H258628   0.480   1.658   6.066  0.4626  1.2724  1.4350
12405TIP3   OH258629   3.773   3.337  11.696  0.4405  0.1223  0.1905
12405TIP3    H158630   3.847   3.333  11.637 -0.8783 -0.3071 -1.4716
12405TIP3    H258631   3.719   3.261  11.673 -1.0749  1.0337  0.5996
12406TIP3   OH258632   2.577   6.467   1.908 -0.0916 -0.2282 -0.1349
12406TIP3    H158633   2.627   6.526   1.852  2.1353  1.1199  3.1177
12406TIP3    H258634   2.510   6.524   1.948 -1.5919 -1.1546 -1.2630
12407TIP3   OH258635   5.714   3.092   4.737 -0.5557  0.2790 -0.1529
12407TIP3    H158636   5.799   3.058   4.710  0.4670 -0.0212  3.2224
12407TIP3    H258637   5.717   3.185   4.717  0.3453  0.1716 -0.5171
12408TIP3   OH258638   4.010   6.559  15.729 -0.6102 -0.0636 -0.1020
12408TIP3    H158639   4.022   6.633  15.789  0.9073  1.4653 -2.1828
12408TIP3    H258640   3.955   6.595  15.659 -0.3851 -1.1130 -0.8234
12409TIP3   OH258641   1.122   2.534   4.521 -0.2090 -0.2530  0.2003
12409TIP3    H158642   1.036   2.518   4.560  0.6708  1.6271  3.1093
12409TIP3    H258643   1.180   2.472   4.565  0.3151 -0.0332 -0.1753
12410TIP3   OH258644   4.034   1.167   0.235  1.1698 -0.2404 -0.1497
12410TIP3    H158645   4.079   1.116   0.302  1.2442 -1.3074 -0.9868
12410TIP3    H258646   4.084   1.149   0.155 -0.0789 -0.5565 -0.8709
12411TIP3   OH258647   1.116   5.605   5.080 -0.2036 -0.3707 -0.2570
12411TIP3    H158648   1.059   5.682   5.076  0.0382 -0.2026 -0.4793
12411TIP3    H258649   1.198   5.634   5.041  0.2496 -0.4307  0.6564
12412TIP3   OH258650   5.525   3.268  14.541  0.0291  1.0430 -0.0963
12412TIP3    H158651   5.606   3.219  14.525 -1.0279 -0.7530 -0.0435
12412TIP3    H258652   5.471   3.251  14.463 -0.3700  2.0803 -0.0477
12413TIP3   OH258653   0.069   1.491  15.267  0.0853 -0.4110 -0.9932
12413TIP3    H158654   0.065   1.565  15.328 -0.9693 -1.1898 -0.1046
12413TIP3    H258655   0.064   1.413  15.322 -1.5633 -1.1233 -2.0963
12414TIP3   OH258656   1.102   1.435  13.214  0.1040  0.2893  0.7278
12414TIP3    H158657   1.135   1.398  13.132 -0.9750  0.4610  0.2122
12414TIP3    H258658   1.074   1.359  13.265  0.1202  0.2290  0.6473
12415TIP3   OH258659   4.386   1.361  16.560  0.0832 -0.0158  0.2262
12415TIP3    H158660   4.403   1.269  16.541  0.7621  0.5283 -2.0500
12415TIP3    H258661   4.466   1.393  16.600 -0.3548 -0.5360  1.5314
12416TIP3   OH258662   5.873   3.118  11.605 -0.0472  0.1397  0.1916
12416TIP3    H158663   5.945   3.058  11.581 -0.0542  0.2017  0.0118
12416TIP3    H258664   5.813   3.112  11.531  0.8274  1.7596 -0.6636
12417TIP3   OH258665   3.245   4.405   3.662  0.0745 -0.0276  0.0016
12417TIP3    H158666   3.164   4.360   3.687  0.9399 -1.4672  0.3102
12417TIP3    H258667   3.300   4.335   3.626  0.6824  1.1703 -1.4115
12418TIP3   OH258668   4.077   4.135  15.351  0.3037 -0.1572 -0.0312
12418TIP3    H158669   4.159   4.173  15.319 -0.0085  0.7180  0.2007
12418TIP3    H258670   4.070   4.052  15.304  0.4952  0.5176 -1.2821
12419TIP3   OH258671   0.303   4.213   0.512 -0.4583  0.0403  0.4112
12419TIP3    H158672   0.240   4.163   0.564 -1.6535  0.9929 -0.1063
12419TIP3    H258673   0.253   4.244   0.437  0.9033 -0.1062 -0.5766
12420TIP3   OH258674   0.778   4.587  11.549 -0.1535 -0.0791  0.5108
12420TIP3    H158675   0.692   4.602  11.589 -0.6279 -2.2197  0.3544
12420TIP3    H258676   0.768   4.619  11.460 -0.3367  0.9950  0.9040
12421TIP3   OH258677   6.580   6.624  15.547 -0.3755  0.6422  0.1100
12421TIP3    H158678   6.542   6.655  15.629 -2.3137  0.4424 -0.6866
12421TIP3    H258679   6.564   6.694  15.484  2.5518  1.4959  0.2471
12422TIP3   OH258680   5.118   5.316   2.857  0.9288  0.2076 -0.0308
12422TIP3    H158681   5.111   5.376   2.931  1.9036  1.4455 -0.9353
12422TIP3    H258682   5.032   5.274   2.853  0.1996  1.6171  0.5429
12423TIP3   OH258683   6.665   0.125   0.928 -0.2333  0.1817 -0.2688
12423TIP3    H158684   6.734   0.185   0.899  1.1421 -0.0174  2.4999
12423TIP3    H258685   6.707   0.070   0.995 -2.9386 -0.3033  1.0793
12424TIP3   OH258686   0.533   0.576   2.939 -0.2518 -0.1824 -0.1319
12424TIP3    H158687   0.585   0.510   2.986  2.1341  0.5681 -1.6412
12424TIP3    H258688   0.536   0.653   2.996 -0.9208 -0.5660  0.4383
12425TIP3   OH258689   1.639   4.779  11.261 -0.4843  0.3973 -0.4916
12425TIP3    H158690   1.688   4.796  11.180 -0.5781  1.0396 -0.4117
12425TIP3    H258691   1.576   4.850  11.266 -1.0916 -0.1541 -0.3258
12426TIP3   OH258692   0.282   4.312  10.761 -0.3347  0.3963 -0.0638
12426TIP3    H158693   0.189   4.333  10.762 -0.3941  0.0942  0.8776
12426TIP3    H258694   0.286   4.223  10.725 -0.2669  1.0691 -1.7635
12427TIP3   OH258695   4.460   2.395   5.897  0.1365 -0.3400 -0.0554
12427TIP3    H158696   4.479   2.302   5.905  0.2158 -0.1882  1.7225
12427TIP3    H258697   4.483   2.417   5.807  1.7523 -1.6721  0.0066
12428TIP3   OH258698   6.588   3.323   2.669 -0.0197  0.0289 -0.0145
12428TIP3    H158699   6.648   3.261   2.627  2.2592  1.6006  0.8158
12428TIP3    H258700   6.587   3.399   2.612  0.1400  0.6871  0.8463
12429TIP3   OH258701   2.488   3.142   4.743  0.0145 -0.0263 -0.5241
12429TIP3    H158702   2.487   3.211   4.676  0.9863  1.7006  1.1726
12429TIP3    H258703   2.441   3.181   4.817  2.2891 -0.4299  1.1707
12430TIP3   OH258704   4.391   4.905   2.240  0.0585  0.2418 -0.0199
12430TIP3    H158705   4.405   4.999   2.230 -3.3914  0.6288 -1.7824
12430TIP3    H258706   4.428   4.866   2.161  1.8225  0.0189  0.8786
12431TIP3   OH258707   1.764   4.370   1.138 -0.4990  0.1681  0.3968
12431TIP3    H158708   1.696   4.436   1.123 -1.1087 -0.4211  0.5588
12431TIP3    H258709   1.719   4.299   1.184  0.4468  0.1935  1.3833
12432TIP3   OH258710   3.498   0.437   1.238 -0.0056 -0.3132 -0.4044
12432TIP3    H158711   3.402   0.442   1.239 -0.0066 -0.1744 -1.0437
12432TIP3    H258712   3.517   0.360   1.184  0.2623  0.1984 -1.0388
12433TIP3   OH258713   5.315   2.476   6.003 -0.1038 -0.1130  0.4632
12433TIP3    H158714   5.282   2.429   5.927 -0.6445 -2.2186  1.9610
12433TIP3    H258715   5.410   2.466   5.998 -0.1634 -0.5795  0.2803
12434TIP3   OH258716   0.074   1.132   2.414 -0.0115  0.1015 -0.1302
12434TIP3    H158717   0.070   1.041   2.385  0.4493  0.3081 -0.8312
12434TIP3    H258718   0.155   1.138   2.465 -0.1723  0.0623  0.1357
12435TIP3   OH258719   2.014   0.900   4.428  0.0665  0.3087 -0.3339
12435TIP3    H158720   2.004   0.816   4.384 -1.6600 -1.1115  2.5667
12435TIP3    H258721   2.106   0.924   4.415  0.3049 -1.4615 -2.1302
12436TIP3   OH258722   1.527   4.464   5.195  0.2755 -0.5144  0.3155
12436TIP3    H158723   1.454   4.404   5.175 -0.7877  0.6150  0.7552
12436TIP3    H258724   1.599   4.434   5.139 -0.2366 -2.2157  0.5336
12437TIP3   OH258725   6.010   3.075   0.106 -0.0541  0.2761  0.2070
12437TIP3    H158726   5.916   3.072   0.087 -0.3385 -0.6098  1.6620
12437TIP3    H258727   6.018   3.138   0.178  0.0162 -2.1990  2.4244
12438TIP3   OH258728   1.507   4.300  15.443 -0.2289  0.7139 -0.2764
12438TIP3    H158729   1.524   4.206  15.445  0.7112  0.9101  2.6638
12438TIP3    H258730   1.435   4.312  15.506  0.2284  2.0745 -0.0106
12439TIP3   OH258731   3.118   4.602  11.505 -0.1294 -0.7729 -0.6841
12439TIP3    H158732   3.169   4.528  11.472  0.7122 -1.0467  1.2176
12439TIP3    H258733   3.045   4.563  11.552  0.5622 -0.4249  0.7152
12440TIP3   OH258734   2.997   6.608  12.790  0.6950 -0.0108 -0.4014
12440TIP3    H158735   2.927   6.543  12.791 -1.0093  1.7604 -0.4205
12440TIP3    H258736   3.070   6.564  12.747  0.4734 -2.7553  1.8594
12441TIP3   OH258737   3.197   1.135   0.027 -0.1191 -0.2939  0.7977
12441TIP3    H158738   3.215   1.147  -0.066 -1.7880  0.1185  0.5159
12441TIP3    H258739   3.282   1.115   0.065  1.1827  2.7829 -0.2836
12442TIP3   OH258740   1.876   6.498   3.500  0.4291  0.0763  0.0707
12442TIP3    H158741   1.826   6.422   3.469 -0.3337 -1.4889  4.7100
12442TIP3    H258742   1.852   6.569   3.441 -4.7261 -1.4445  0.1206
12443TIP3   OH258743   1.416   3.892   5.883  0.6330  0.1705 -0.2103
12443TIP3    H158744   1.338   3.903   5.937 -0.0998 -2.6038 -0.5990
12443TIP3    H258745   1.385   3.846   5.805  2.3226  0.7718 -1.2645
12444TIP3   OH258746   5.717   6.156  15.491 -0.2756  0.0646 -0.0611
12444TIP3    H158747   5.784   6.187  15.430  1.1742 -1.1436  0.9063
12444TIP3    H258748   5.764   6.137  15.572 -1.2979 -3.2961 -0.1639
12445TIP3   OH258749   2.436   0.245  14.747  0.1755  0.0538  0.3900
12445TIP3    H158750   2.347   0.243  14.782 -0.6437 -0.5254 -1.6456
12445TIP3    H258751   2.471   0.329  14.774 -2.2782  1.8634 -1.8046
12446TIP3   OH258752   4.342   6.654   2.024  0.1070 -0.6508  0.3779
12446TIP3    H158753   4.332   6.559   2.018 -0.6795 -0.6774  1.7690
12446TIP3    H258754   4.423   6.668   2.072  1.7645 -0.5592 -2.3591
12447TIP3   OH258755   0.148   3.273  13.849  0.5277  0.0947  0.5185
12447TIP3    H158756   0.237   3.290  13.817  0.4549 -1.3720 -0.5266
12447TIP3    H258757   0.141   3.325  13.929  2.6067 -0.3914  1.0574
12448TIP3   OH258758   1.867   2.331   5.454 -0.6345  0.0163 -0.5919
12448TIP3    H158759   1.852   2.245   5.494 -1.7407  0.0618 -0.8976
12448TIP3    H258760   1.783   2.375   5.458  0.4450  1.9583  1.5610
12449TIP3   OH258761   4.408   6.501   4.052 -0.1612  0.2969  0.0778
12449TIP3    H158762   4.369   6.589   4.052 -0.5945  0.1007  1.1599
12449TIP3    H258763   4.377   6.462   3.970  0.2855  1.2582 -0.5654
12450TIP3   OH258764   4.054   0.829  12.047 -0.4589  0.1941  0.2636
12450TIP3    H158765   4.097   0.888  11.985  1.1773 -1.6310 -0.4266
12450TIP3    H258766   3.984   0.788  11.995 -0.6895  0.4934  0.3381
12451TIP3   OH258767   6.751   5.187  13.750  0.0797 -0.4452  0.3309
12451TIP3    H158768   6.693   5.186  13.826  1.8658 -0.5965  1.7440
12451TIP3    H258769   6.832   5.146  13.782  0.3818 -1.8111 -2.0594
12452TIP3   OH258770   2.422   0.618   3.308  0.7802 -0.0038 -0.1093
12452TIP3    H158771   2.343   0.670   3.300  0.7514  0.2986  1.8804
12452TIP3    H258772   2.487   0.665   3.256  0.0824  0.6150 -0.4284
12453TIP3   OH258773   2.968   0.011  14.410  0.4804  0.2411 -0.1777
12453TIP3    H158774   2.879  -0.017  14.387  0.7035 -0.5933 -0.0343
12453TIP3    H258775   3.025  -0.040  14.353  0.9053  0.1537  0.3229
12454TIP3   OH258776   5.739   3.030   1.690  0.4111 -0.1788  0.6126
12454TIP3    H158777   5.769   2.952   1.736 -0.9212 -0.2815  1.3145
12454TIP3    H258778   5.725   3.095   1.759  0.7832  0.4486  0.1066
12455TIP3   OH258779   4.450   1.798   0.364 -0.1410  0.1001 -0.6848
12455TIP3    H158780   4.478   1.715   0.401 -1.1930  0.0729  0.0744
12455TIP3    H258781   4.359   1.783   0.336  0.6127  0.1112 -3.3202
12456TIP3   OH258782   5.621   0.508  13.932  0.5409 -0.2067 -0.0906
12456TIP3    H158783   5.619   0.472  13.843 -1.7137  0.8691 -0.5108
12456TIP3    H258784   5.628   0.432  13.989  2.8961 -0.8687 -1.1927
12457TIP3   OH258785   1.270   1.547   2.899 -0.4717 -0.5398  0.0163
12457TIP3    H158786   1.338   1.610   2.875 -0.7988  0.0629  0.6606
12457TIP3    H258787   1.210   1.548   2.824  0.0682 -0.8562 -0.4265
12458TIP3   OH258788   1.192   0.647   1.725 -0.1439  0.4343  0.6237
12458TIP3    H158789   1.222   0.718   1.782  0.4969  0.4599  0.2632
12458TIP3    H258790   1.269   0.624   1.673 -0.5352 -0.0588  0.2551
12459TIP3   OH258791   1.860   0.347  14.925  0.2264 -0.1041 -0.3170
12459TIP3    H158792   1.812   0.270  14.957 -1.1520  1.1851  0.7881
12459TIP3    H258793   1.915   0.373  14.999 -0.0993  0.6005 -0.3196
12460TIP3   OH258794   3.906   0.499   3.759 -0.5375  0.2273 -0.3899
12460TIP3    H158795   3.925   0.406   3.763  1.9711  0.6730 -1.0007
12460TIP3    H258796   3.938   0.534   3.842 -1.7948  0.4950 -0.0135
12461TIP3   OH258797   0.135   0.499  13.717 -0.1317  0.0273  0.0811
12461TIP3    H158798   0.205   0.553  13.679  0.6846 -1.7194 -0.9347
12461TIP3    H258799   0.167   0.477  13.805  0.7480 -1.0153 -0.4895
12462TIP3   OH258800   6.061   2.379  14.656  0.6314  0.8750 -0.1781
12462TIP3    H158801   5.993   2.396  14.590 -2.0166 -0.1624  2.1442
12462TIP3    H258802   6.053   2.285  14.675  1.5762  1.0751  1.3409
12463TIP3   OH258803   3.922   3.683   2.838 -0.0308 -0.1962  0.2734
12463TIP3    H158804   3.904   3.703   2.930 -0.3757  0.7258  0.0132
12463TIP3    H258805   3.881   3.755   2.790 -0.1626 -0.8605 -0.6209
12464TIP3   OH258806   6.180   6.022  11.123  0.3393 -1.1631 -0.4618
12464TIP3    H158807   6.150   6.085  11.057  0.6593  0.3511  0.8109
12464TIP3    H258808   6.102   6.002  11.175  0.4385 -1.0827 -0.2802
12465TIP3   OH258809   6.273   4.446   3.619  0.3707  0.1024 -0.2429
12465TIP3    H158810   6.304   4.490   3.540 -0.4377  0.9000 -0.1339
12465TIP3    H258811   6.187   4.412   3.594  0.5988 -0.6165 -0.0430
12466TIP3   OH258812   6.253   1.637   3.657  0.2802  0.4883  0.5258
12466TIP3    H158813   6.192   1.621   3.585  1.1470 -2.5663  0.3854
12466TIP3    H258814   6.199   1.631   3.736  0.0721 -0.3715  0.3187
12467TIP3   OH258815   2.984   1.875  13.898 -0.3312 -0.0675 -0.3114
12467TIP3    H158816   3.041   1.915  13.964  0.7081 -0.6298 -0.8650
12467TIP3    H258817   2.992   1.932  13.822  1.7926 -1.7248 -1.3849
12468TIP3   OH258818   1.287   2.337  15.631 -0.0525  0.4217  0.5556
12468TIP3    H158819   1.338   2.403  15.678  0.9501 -0.1014  0.2224
12468TIP3    H258820   1.352   2.287  15.582 -1.1166  1.6663 -2.3083
12469TIP3   OH258821   3.081   3.806  15.476  0.1862 -0.7334  1.0040
12469TIP3    H158822   3.110   3.853  15.398  0.6031 -1.4374  0.7310
12469TIP3    H258823   3.134   3.844  15.547 -0.8312  0.5289  1.0962
12470TIP3   OH258824   0.979   4.905   1.254  0.3960 -0.3084  0.4367
12470TIP3    H158825   1.040   4.925   1.325  0.4127  0.6078  0.1730
12470TIP3    H258826   1.027   4.930   1.174 -0.9003  1.9473  0.3228
12471TIP3   OH258827   2.762   4.691   5.751 -0.0410 -0.3420 -0.2045
12471TIP3    H158828   2.784   4.747   5.677 -0.4412 -1.9487 -1.5596
12471TIP3    H258829   2.846   4.675   5.794  0.6186 -1.6092 -1.9086
12472TIP3   OH258830   2.250   5.743   5.561 -0.2744  0.0151 -0.0881
12472TIP3    H158831   2.274   5.664   5.610  0.9383 -0.6615 -1.7399
12472TIP3    H258832   2.327   5.800   5.568 -0.0899 -0.0938 -1.2235
12473TIP3   OH258833   4.671   1.309  13.797  0.0340 -0.4217 -0.4664
12473TIP3    H158834   4.707   1.278  13.880  0.7002  0.2800 -0.4849
12473TIP3    H258835   4.733   1.377  13.768 -0.9642  0.3402 -0.8254
12474TIP3   OH258836   6.527   6.422   0.727 -0.1233  0.2454  0.2448
12474TIP3    H158837   6.601   6.482   0.723 -0.6565  0.8557 -0.4155
12474TIP3    H258838   6.450   6.477   0.715 -0.6692 -0.4349  0.5873
12475TIP3   OH258839   0.109   1.423   3.691  0.1112  0.1221  0.1139
12475TIP3    H158840   0.052   1.418   3.614 -1.3464 -0.8928  1.2194
12475TIP3    H258841   0.126   1.516   3.703 -1.5101  0.4572 -0.1241
12476TIP3   OH258842   3.656   5.196   2.132  0.4521 -0.4607  0.2139
12476TIP3    H158843   3.587   5.207   2.066  2.5835 -2.3027 -2.4303
12476TIP3    H258844   3.638   5.112   2.172 -0.1395  0.1083  1.1583
12477TIP3   OH258845   2.259   0.954  11.136 -0.3603  0.2853 -0.1801
12477TIP3    H158846   2.208   0.884  11.176 -0.7301  0.8570  0.3586
12477TIP3    H258847   2.339   0.910  11.105 -1.4055 -0.7060 -1.5299
12478TIP3   OH258848   2.166   3.458   4.079  0.6057 -0.1124 -0.2342
12478TIP3    H158849   2.186   3.424   4.166  2.2882 -1.9693 -1.3066
12478TIP3    H258850   2.224   3.533   4.068  0.4997  0.0318  0.1707
12479TIP3   OH258851   5.922   5.304  14.666  0.4073  0.1573 -0.5353
12479TIP3    H158852   5.954   5.237  14.606 -1.8618 -0.1497 -1.4672
12479TIP3    H258853   5.957   5.386  14.633 -1.4579  0.0846 -2.7879
12480TIP3   OH258854   3.940   5.208   1.641 -0.2910  0.1216  0.0402
12480TIP3    H158855   3.894   5.268   1.582 -1.9184 -1.5529 -0.4411
12480TIP3    H258856   4.033   5.230   1.630 -0.6078  0.3435 -2.6363
12481TIP3   OH258857   2.532   3.671   0.339  0.3058  0.2256 -0.1006
12481TIP3    H158858   2.595   3.740   0.355  0.1258  0.0932  1.2982
12481TIP3    H258859   2.460   3.690   0.399 -0.9625  0.3363 -1.6203
12482TIP3   OH258860   5.730   0.489  11.830  0.0310  0.0908 -0.2258
12482TIP3    H158861   5.657   0.514  11.773  0.1365 -3.7965 -2.2274
12482TIP3    H258862   5.808   0.505  11.778  0.1754 -2.5855 -0.9103
12483TIP3   OH258863   6.686   3.943  13.653 -0.6900  0.0344  0.4822
12483TIP3    H158864   6.629   3.875  13.618  0.3466 -1.2525  1.2464
12483TIP3    H258865   6.682   4.013  13.588  0.0525 -1.7174 -1.5065
12484TIP3   OH258866   2.402   2.717  13.407  0.7083  0.3885  0.0277
12484TIP3    H158867   2.490   2.748  13.429  0.7836  1.9755 -2.2749
12484TIP3    H258868   2.345   2.757  13.473  1.4569  1.1548  0.2115
12485TIP3   OH258869   6.069   0.961   1.185 -0.2332 -0.6490 -0.4840
12485TIP3    H158870   5.994   1.001   1.229  0.2488  0.2412 -0.4701
12485TIP3    H258871   6.038   0.873   1.160 -1.9831  0.4298 -2.3079
12486TIP3   OH258872   1.358   2.823   3.310  0.0648  0.1660 -0.4175
12486TIP3    H158873   1.272   2.828   3.350 -0.9496 -0.0172 -2.5084
12486TIP3    H258874   1.381   2.730   3.312  1.6799  0.5614  3.0440
12487TIP3   OH258875   2.558   0.681   6.049 -0.1991  0.2774 -0.1287
12487TIP3    H158876   2.583   0.633   5.970 -0.2463  1.2261 -0.7315
12487TIP3    H258877   2.637   0.727   6.076  0.1599 -1.0661  1.1264
12488TIP3   OH258878   3.879   1.227  12.386 -0.0773  0.6591 -0.1236
12488TIP3    H158879   3.790   1.233  12.351 -0.2115 -1.8553 -0.2959
12488TIP3    H258880   3.915   1.148  12.345  1.5649  0.5877  1.4381
12489TIP3   OH258881   5.518   6.081  11.314 -0.2370  0.8315 -0.1850
12489TIP3    H158882   5.464   6.011  11.279  1.4329 -0.7350  0.2950
12489TIP3    H258883   5.498   6.082  11.408 -0.1536  0.9112 -0.1693
12490TIP3   OH258884   3.592   0.042   1.243 -0.2873 -0.6034 -0.2614
12490TIP3    H158885   3.632   0.106   1.184 -1.2698 -0.8090 -1.1699
12490TIP3    H258886   3.539  -0.014   1.186  1.9415 -3.3655  0.2613
12491TIP3   OH258887   0.966   6.324   2.292 -0.3129 -0.5335 -0.5770
12491TIP3    H158888   1.035   6.296   2.232  0.3947 -0.1949  0.0739
12491TIP3    H258889   1.006   6.394   2.344 -0.1410 -2.3962  1.8948
12492TIP3   OH258890   0.596   6.254   6.327  0.2359  0.1571  0.0648
12492TIP3    H158891   0.625   6.167   6.299 -3.0348 -1.6727  2.0277
12492TIP3    H258892   0.650   6.275   6.403 -0.7586 -1.4018  1.2276
12493TIP3   OH258893   4.169   5.353   6.428 -0.0355 -0.0022  0.0365
12493TIP3    H158894   4.127   5.283   6.477  1.2907  0.0700  1.2976
12493TIP3    H258895   4.241   5.310   6.381 -0.1346  0.2534 -0.3543
12494TIP3   OH258896   1.786   5.303  12.447  0.1709  0.0840 -0.2864
12494TIP3    H158897   1.840   5.244  12.499  0.5604 -0.2804 -1.1088
12494TIP3    H258898   1.825   5.303  12.360  0.3828  1.8125 -0.2265
12495TIP3   OH258899   1.552   4.475  13.311 -0.2338 -0.2524 -0.5981
12495TIP3    H158900   1.549   4.480  13.407 -0.3716  1.4603 -0.6615
12495TIP3    H258901   1.631   4.425  13.291  0.0884 -0.1543  0.4106
12496TIP3   OH258902   3.449   0.899   4.065  0.0944 -0.2658 -0.1170
12496TIP3    H158903   3.474   0.855   3.984  0.7090  2.9873 -1.7802
12496TIP3    H258904   3.431   0.989   4.039 -0.4166  0.6905  3.2598
12497TIP3   OH258905   2.897   0.944  16.859  0.4895 -0.6658 -0.1205
12497TIP3    H158906   2.933   0.859  16.837  0.7498 -0.7445  0.5892
12497TIP3    H258907   2.919   0.956  16.952 -0.7543 -0.4458  0.1660
12498TIP3   OH258908   5.005   0.807   4.958 -0.5524 -0.2837  0.5834
12498TIP3    H158909   5.011   0.738   4.892  2.8513 -0.1180  0.6178
12498TIP3    H258910   4.985   0.886   4.909  0.2551 -0.4772 -0.0680
12499TIP3   OH258911   5.288   6.622   5.295 -0.3301  0.1243  0.0534
12499TIP3    H158912   5.371   6.660   5.324  0.2513 -0.6751 -0.5442
12499TIP3    H258913   5.279   6.541   5.346  0.0256 -0.5906 -1.0025
12500TIP3   OH258914   2.416   4.398  16.792  0.2253  0.5871  0.1833
12500TIP3    H158915   2.367   4.372  16.870 -2.8430  0.8864 -1.5613
12500TIP3    H258916   2.392   4.333  16.725  3.5823 -0.2625 -0.2911
12501TIP3   OH258917   4.182   2.711  11.424  0.1226  0.0308  0.6768
12501TIP3    H158918   4.217   2.799  11.413 -0.1327  0.3604  2.3714
12501TIP3    H258919   4.215   2.662  11.349  0.7845  1.4063  0.0666
12502TIP3   OH258920   0.899   4.171   1.880  0.2261  0.6932  0.0907
12502TIP3    H158921   0.851   4.143   1.802  0.6532 -0.0352  0.0939
12502TIP3    H258922   0.909   4.266   1.869 -0.6411  0.7526 -0.2274
12503TIP3   OH258923   1.483   2.136   1.232  0.5405 -0.2172  0.1456
12503TIP3    H158924   1.548   2.172   1.172  1.5692  1.1408  2.0536
12503TIP3    H258925   1.519   2.051   1.259  0.4708 -0.4480 -0.4700
12504TIP3   OH258926   1.538   1.222   2.808 -0.3971  0.0860 -0.2527
12504TIP3    H158927   1.515   1.256   2.721  1.9287 -2.3177 -1.8998
12504TIP3    H258928   1.627   1.191   2.798 -1.4358 -3.8884  1.8910
12505TIP3   OH258929   2.910   0.344   4.695 -0.5196  0.0530 -0.1204
12505TIP3    H158930   2.853   0.395   4.637 -1.9037  0.2304  1.3745
12505TIP3    H258931   2.871   0.256   4.696 -0.0115 -0.1728 -0.1335
12506TIP3   OH258932   5.723   3.392  13.657  0.0507  0.5210  0.0293
12506TIP3    H158933   5.699   3.398  13.565 -0.4675 -0.6882  0.0804
12506TIP3    H258934   5.662   3.327  13.694  0.1350  1.1188  1.2552
12507TIP3   OH258935   1.065   4.847  12.642 -0.1427 -0.3824 -0.2575
12507TIP3    H158936   1.019   4.913  12.693 -0.2285 -0.7467  0.1435
12507TIP3    H258937   1.084   4.777  12.705  2.6652  0.5907  0.0650
12508TIP3   OH258938   2.156   4.729   4.272 -0.5017 -0.4028  0.0949
12508TIP3    H158939   2.079   4.707   4.325 -1.3277 -0.2203 -1.0284
12508TIP3    H258940   2.148   4.823   4.256 -0.7284 -0.6250 -1.1115
12509TIP3   OH258941   4.777   3.945  11.019  0.0691 -0.7307 -0.6650
12509TIP3    H158942   4.691   3.931  10.978 -0.3229  0.7218 -0.3896
12509TIP3    H258943   4.834   3.879  10.979 -0.8891 -0.9300 -1.7392
12510TIP3   OH258944   1.953   4.544  14.807  0.7174 -0.1717 -0.2362
12510TIP3    H158945   1.943   4.449  14.797  0.9978 -0.0101 -2.2538
12510TIP3    H258946   1.895   4.581  14.740 -0.2474  1.1267  1.2609
12511TIP3   OH258947   4.149   0.704  10.347 -0.5159 -0.2157  0.3463
12511TIP3    H158948   4.175   0.633  10.288  0.0635 -0.7710  1.2517
12511TIP3    H258949   4.231   0.749  10.366 -1.0046  1.2389 -0.8946
12512TIP3   OH258950   0.703   0.646  13.132  0.3335  0.3187  0.5482
12512TIP3    H158951   0.651   0.610  13.203 -0.9466  2.1774  0.5950
12512TIP3    H258952   0.781   0.681  13.174  1.3319 -1.8870  0.5632
12513TIP3   OH258953   4.965   1.203  11.743  0.0939  0.4772 -0.4082
12513TIP3    H158954   4.882   1.236  11.709  0.4702 -0.9619 -2.8025
12513TIP3    H258955   5.027   1.215  11.672  1.0009 -2.2525 -0.1270
12514TIP3   OH258956   5.870   0.126  11.133  0.0061  0.1111 -0.1237
12514TIP3    H158957   5.849   0.105  11.042 -1.8418 -0.3458  0.3985
12514TIP3    H258958   5.786   0.133  11.177  0.8704  0.5789  1.5128
12515TIP3   OH258959   5.397   3.279  16.830  0.1660  0.2714  0.1987
12515TIP3    H158960   5.469   3.241  16.882  0.0867  1.4165  1.1619
12515TIP3    H258961   5.321   3.225  16.852  0.4465 -0.1358  0.1789
12516TIP3   OH258962   1.727   0.458   2.812  0.1869 -0.3537  0.1525
12516TIP3    H158963   1.718   0.433   2.904  1.3042  1.9001  0.9235
12516TIP3    H258964   1.690   0.546   2.808 -0.1905 -0.5813 -1.6536
12517TIP3   OH258965   6.311   6.209   4.083 -0.0833  0.8187  0.8636
12517TIP3    H158966   6.403   6.226   4.062 -0.4683  2.6590  0.6404
12517TIP3    H258967   6.307   6.114   4.097  1.0632  0.1337 -3.0265
12518TIP3   OH258968   4.776   5.921   2.026 -0.4662  0.3139 -0.5706
12518TIP3    H158969   4.822   5.866   1.961 -0.8424 -0.9203  0.1882
12518TIP3    H258970   4.707   5.864   2.059 -0.6511  1.1558  0.4784
12519TIP3   OH258971   1.618   2.554  15.962 -0.2452  0.5766  0.2790
12519TIP3    H158972   1.570   2.473  15.943 -0.7779  1.2300 -1.2814
12519TIP3    H258973   1.592   2.577  16.051 -0.3336 -0.8038  0.6169
12520TIP3   OH258974   3.631   6.010  17.113 -0.5751  0.2287 -0.5711
12520TIP3    H158975   3.627   5.945  17.183  0.8394  0.3139 -0.3886
12520TIP3    H258976   3.546   6.003  17.069 -0.8851 -0.9199  0.1779
12521TIP3   OH258977   5.427   0.922  11.820  0.3178  0.3374 -0.9329
12521TIP3    H158978   5.334   0.900  11.817  0.3522  0.2988 -4.6079
12521TIP3    H258979   5.429   1.015  11.843 -0.7840  0.8166 -2.6368
12522TIP3   OH258980   4.685   5.206   1.863  0.2271  0.4443  0.0890
12522TIP3    H158981   4.635   5.255   1.799  0.4442  1.3872  0.6359
12522TIP3    H258982   4.621   5.149   1.906 -0.5450  2.1794  1.3129
12523TIP3   OH258983   2.107   0.740  12.379 -0.3033 -0.3785 -0.5110
12523TIP3    H158984   2.198   0.732  12.350 -0.3343  0.0363 -0.7141
12523TIP3    H258985   2.112   0.792  12.459 -0.2251 -1.4640  0.1964
12524TIP3   OH258986   1.962   4.691  11.936 -0.2496  0.5389 -0.2433
12524TIP3    H158987   1.881   4.720  11.895 -0.8541 -0.3398  0.3241
12524TIP3    H258988   2.012   4.650  11.865 -0.5568  0.5482 -0.4662
12525TIP3   OH258989   6.456   6.176   0.054  0.0544  0.2268  0.0362
12525TIP3    H158990   6.453   6.235   0.130 -1.3638 -1.8370  1.6598
12525TIP3    H258991   6.368   6.181   0.017  0.3112  0.1320 -0.5783
12526TIP3   OH258992   4.108   2.639   6.088 -0.0753  0.3229 -0.6285
12526TIP3    H158993   4.113   2.617   6.181  0.7967  0.3681 -0.6649
12526TIP3    H258994   4.123   2.556   6.042  2.8229  0.8708 -0.7592
12527TIP3   OH258995   2.395   5.338  11.609  0.3451 -0.2361 -0.3764
12527TIP3    H158996   2.444   5.257  11.596 -0.6342 -1.0898  1.1621
12527TIP3    H258997   2.307   5.319  11.577  0.1157  0.2004 -0.0177
12528TIP3   OH258998   6.495   6.062  10.883  0.3097 -0.1052  0.4810
12528TIP3    H158999   6.525   6.059  10.792  0.9154 -1.9138  0.7074
12528TIP3    H259000   6.558   6.118  10.928  1.8788 -1.7504  0.4066
12529TIP3   OH259001   3.970   1.227   1.122 -0.3736  0.0242 -0.3858
12529TIP3    H159002   4.055   1.201   1.087 -0.7586  0.0620 -1.3930
12529TIP3    H259003   3.960   1.176   1.202  1.2735  1.1917  0.5837
12530TIP3   OH259004   0.891   4.770  12.121  0.4893 -0.0819 -0.0167
12530TIP3    H159005   0.899   4.790  12.214  0.6086  2.9486 -0.6216
12530TIP3    H259006   0.798   4.750  12.109  0.0985  1.3441  0.4580
12531TIP3   OH259007   3.462   3.096  14.577 -0.4235 -0.1330  0.8574
12531TIP3    H159008   3.403   3.167  14.603 -0.1235  0.6384 -0.5150
12531TIP3    H259009   3.421   3.017  14.612 -1.5667  0.5491  1.0779
12532TIP3   OH259010   0.750   6.259  12.607 -0.0424  0.0766 -0.2787
12532TIP3    H159011   0.816   6.282  12.541  0.2805  0.1641  0.0717
12532TIP3    H259012   0.666   6.269  12.562  0.2501 -1.7404 -1.2568
12533TIP3   OH259013   5.935   4.150   5.120 -0.2919 -1.1784  0.0998
12533TIP3    H159014   5.853   4.168   5.168  0.5802  0.2934  1.0867
12533TIP3    H259015   6.004   4.164   5.185  0.8675 -0.1709 -1.3255
12534TIP3   OH259016   3.577   6.164  16.453  0.0451 -0.1327  0.5015
12534TIP3    H159017   3.605   6.099  16.517 -0.0531  0.4621  1.1550
12534TIP3    H259018   3.649   6.170  16.391 -0.1251 -1.1760  0.1984
12535TIP3   OH259019   3.149   3.056  14.144  0.2210 -0.5127  0.4663
12535TIP3    H159020   3.092   3.042  14.068  1.8839 -1.1280 -0.7148
12535TIP3    H259021   3.091   3.092  14.211 -1.5348 -1.0678 -0.7009
12536TIP3   OH259022   1.156   2.302  16.508  0.0023 -0.2497  0.0519
12536TIP3    H159023   1.220   2.283  16.439  0.5066  0.8870  0.1858
12536TIP3    H259024   1.208   2.338  16.580 -0.6056 -0.7678  0.7573
12537TIP3   OH259025   5.282   6.598   2.100  0.1090  0.4532 -0.0060
12537TIP3    H159026   5.245   6.546   2.171 -0.4838 -0.6272 -1.0834
12537TIP3    H259027   5.207   6.633   2.054  0.4874  0.9957 -0.2134
12538TIP3   OH259028   0.602   0.025  15.570  0.1530  0.3831 -0.1257
12538TIP3    H159029   0.679   0.012  15.625  0.3682  1.3651 -0.1889
12538TIP3    H259030   0.531  -0.020  15.616  0.9069 -1.1567 -0.4333
12539TIP3   OH259031   1.214   5.513  15.490  0.1984 -0.3113  0.8555
12539TIP3    H159032   1.304   5.481  15.496 -0.1423 -2.0799 -2.3794
12539TIP3    H259033   1.211   5.562  15.408 -1.7589 -0.1112  1.0066
12540TIP3   OH259034   4.063   2.833   5.755 -0.2377  0.3284 -0.2688
12540TIP3    H159035   4.069   2.919   5.714 -1.4327  0.5505 -0.0028
12540TIP3    H259036   4.042   2.774   5.682  0.3402  0.2952 -0.4114
12541TIP3   OH259037   2.145   2.327   0.108 -0.0244 -0.2416  0.6004
12541TIP3    H159038   2.237   2.300   0.118 -0.1625 -1.2910 -0.8297
12541TIP3    H259039   2.122   2.364   0.193  2.0807  1.1027  0.6331
12542TIP3   OH259040   0.224   6.276   0.629  0.1443  0.5480  0.5295
12542TIP3    H159041   0.308   6.296   0.588  0.0463 -0.4047 -0.1381
12542TIP3    H259042   0.194   6.196   0.586 -1.1382  0.9155  0.7218
12543TIP3   OH259043   4.875   3.190   4.390  0.0789  0.0287  0.2897
12543TIP3    H159044   4.873   3.159   4.299  4.1987  0.6240 -0.0734
12543TIP3    H259045   4.915   3.118   4.439  1.8174  1.3627  0.8732
12544TIP3   OH259046   6.005   1.668  15.161 -0.1910  0.0475 -0.1819
12544TIP3    H159047   6.043   1.745  15.119  2.0480 -1.5282 -1.1639
12544TIP3    H259048   5.971   1.616  15.088 -0.1163 -0.7085  0.3157
12545TIP3   OH259049   5.497   2.671   5.448  0.2672 -0.1267  0.5736
12545TIP3    H159050   5.427   2.656   5.512 -0.9525  1.9318 -0.2217
12545TIP3    H259051   5.507   2.587   5.404 -3.4826  0.1601 -1.0115
12546TIP3   OH259052   5.030   5.873  14.288  0.1521  0.0456 -0.5645
12546TIP3    H159053   5.083   5.843  14.214 -0.9334  1.6376 -2.0121
12546TIP3    H259054   5.060   5.962  14.305 -0.3317  0.0614  0.2432
12547TIP3   OH259055   1.397   0.887  15.131 -0.5860 -0.1414  0.1479
12547TIP3    H159056   1.469   0.828  15.154  0.4889  0.2960 -1.9686
12547TIP3    H259057   1.405   0.959  15.194  0.6693 -0.2333  0.1099
12548TIP3   OH259058   3.618   6.772  16.295  0.3040 -0.2259  0.1889
12548TIP3    H159059   3.703   6.748  16.332 -0.2251 -0.6067  1.1580
12548TIP3    H259060   3.615   6.726  16.211  1.2354  0.1316 -0.0455
12549TIP3   OH259061   3.801   6.446  14.740  0.0039  0.3511  0.5301
12549TIP3    H159062   3.864   6.420  14.807 -1.3253 -1.5746  1.0644
12549TIP3    H259063   3.716   6.419  14.775 -0.9203  1.1676 -1.0341
12550TIP3   OH259064   3.656   2.421  14.392  0.5403 -0.1219  0.5410
12550TIP3    H159065   3.723   2.444  14.328 -0.0258  0.4114  0.1268
12550TIP3    H259066   3.688   2.341  14.433 -0.9094 -2.7235 -3.1579
12551TIP3   OH259067   0.839   0.195  16.323 -0.1747 -0.0816 -0.1405
12551TIP3    H159068   0.775   0.230  16.261 -1.1956 -1.1679  0.2784
12551TIP3    H259069   0.899   0.144  16.268 -0.7176 -0.5372 -0.3206
12552TIP3   OH259070   0.580   1.922   6.224  0.2658 -0.1997  0.0012
12552TIP3    H159071   0.646   1.986   6.249 -0.7521  0.8242  0.1506
12552TIP3    H259072   0.535   1.900   6.305  1.5344 -2.2008  0.1795
12553TIP3   OH259073   2.795   3.626  15.793 -0.2644 -0.1447  0.5097
12553TIP3    H159074   2.736   3.660  15.860 -1.4783 -3.0728  0.9683
12553TIP3    H259075   2.808   3.700  15.734 -0.8191  1.8710  2.8067
12554TIP3   OH259076   1.243   4.991   1.896  0.5514  0.6771 -0.4677
12554TIP3    H159077   1.197   5.014   1.977 -0.0713 -0.4137 -0.5022
12554TIP3    H259078   1.210   5.053   1.831 -0.7352  0.0168 -0.4470
12555TIP3   OH259079   1.665   2.802  15.879 -0.3637  0.3825  0.1748
12555TIP3    H159080   1.661   2.711  15.907  1.9316  0.1831 -0.0447
12555TIP3    H259081   1.636   2.852  15.956 -0.6406 -0.4735  0.6372
12556TIP3   OH259082   0.056   4.264   1.111  0.2895  0.2272 -0.2579
12556TIP3    H159083  -0.030   4.276   1.152  0.6692 -0.2348  0.6917
12556TIP3    H259084   0.039   4.267   1.017 -1.0373 -1.6034 -0.1132
12557TIP3   OH259085   0.231   4.022  15.226  0.9694  0.1531 -0.0103
12557TIP3    H159086   0.166   4.089  15.206  0.0195 -0.9381 -0.6459
12557TIP3    H259087   0.265   3.995  15.140 -1.9291 -3.3724 -0.1845
12558TIP3   OH259088   0.497   2.910   3.680 -0.9494  0.6310  0.3801
12558TIP3    H159089   0.450   2.986   3.716 -1.8706 -0.3965  1.3990
12558TIP3    H259090   0.532   2.941   3.596 -1.7467  2.0254  0.5380
12559TIP3   OH259091   1.310   0.251   1.309 -0.3110 -0.3079 -0.3283
12559TIP3    H159092   1.306   0.156   1.299  2.7307 -0.3217 -1.8944
12559TIP3    H259093   1.261   0.285   1.233 -0.3703 -0.6010 -0.4202
12560TIP3   OH259094   3.136   0.591   4.401  0.0298 -0.1701 -0.2743
12560TIP3    H159095   3.047   0.569   4.372 -0.5851  0.5689  1.0060
12560TIP3    H259096   3.160   0.668   4.349 -0.7034  0.5773  0.4683
12561TIP3   OH259097   2.361   4.153   5.243 -0.6975  0.1676 -0.4137
12561TIP3    H159098   2.270   4.142   5.270 -0.7032  0.5552 -0.2765
12561TIP3    H259099   2.405   4.192   5.319 -0.4172 -0.0172 -0.4797
12562TIP3   OH259100   4.286   6.081   2.756 -0.8117  0.8541 -0.5375
12562TIP3    H159101   4.300   5.994   2.794 -0.2667  1.6624  1.1847
12562TIP3    H259102   4.207   6.072   2.703 -0.9701 -0.5874 -0.0867
12563TIP3   OH259103   0.980   2.412   2.915 -0.7000 -0.2615  0.2505
12563TIP3    H159104   0.889   2.391   2.932 -0.3582 -2.2495 -0.1123
12563TIP3    H259105   0.989   2.402   2.820 -0.1973  0.2714  0.2402
12564TIP3   OH259106   6.107   4.263   0.025 -0.5888  0.1169 -0.4820
12564TIP3    H159107   6.013   4.266   0.040 -0.3078 -0.1111  1.4468
12564TIP3    H259108   6.141   4.207   0.095  1.2140  1.9088  0.1264
12565TIP3   OH259109   4.006   6.280   4.719  0.2948  0.3603  0.0840
12565TIP3    H159110   4.058   6.346   4.674 -0.9067 -0.0927 -2.0353
12565TIP3    H259111   4.069   6.234   4.774  1.4916  2.0199  0.1367
12566TIP3   OH259112   2.051   6.685  14.797 -0.0372  0.4219  0.0821
12566TIP3    H159113   2.138   6.719  14.776  1.1508 -1.0043  2.4659
12566TIP3    H259114   2.059   6.590  14.788 -1.0137  0.2017  1.4120
12567TIP3   OH259115   6.165   1.212  15.343  0.6184  0.0191 -0.1321
12567TIP3    H159116   6.258   1.190  15.335  0.3523 -1.3550  0.4986
12567TIP3    H259117   6.163   1.308  15.334  1.9382 -0.0624 -1.4766
12568TIP3   OH259118   2.529   6.664  15.658  0.1673 -0.5194 -1.0035
12568TIP3    H159119   2.439   6.636  15.676  0.6178 -1.0143  0.4920
12568TIP3    H259120   2.518   6.744  15.606 -1.1298 -2.4733 -3.8845
12569TIP3   OH259121   3.213   4.017   4.520 -0.4971  0.0741 -0.3296
12569TIP3    H159122   3.231   4.077   4.447 -0.5447 -0.4340 -0.7659
12569TIP3    H259123   3.268   3.941   4.501 -0.6703 -0.1437  0.0579
12570TIP3   OH259124   3.561   6.293  17.179 -0.1566  0.6957  1.1792
12570TIP3    H159125   3.594   6.210  17.145  1.3692  1.6670  0.2079
12570TIP3    H259126   3.476   6.271  17.216 -0.5578 -0.9952 -0.6070
12571TIP3   OH259127   1.222   4.351   2.891 -0.4814 -0.3596  0.1544
12571TIP3    H159128   1.196   4.384   2.977  2.4395  1.3880  0.4344
12571TIP3    H259129   1.217   4.427   2.834  3.1077 -0.1245  0.0624
12572TIP3   OH259130   6.428   1.840  14.743 -0.4950  0.1063  0.4112
12572TIP3    H159131   6.480   1.765  14.771  0.0246  0.1565 -0.3988
12572TIP3    H259132   6.493   1.909  14.727 -0.8940  0.4611  0.3237
12573TIP3   OH259133   4.719   4.118   2.730  0.7545  0.0185 -0.0218
12573TIP3    H159134   4.715   4.185   2.799 -1.0066  2.4884 -2.4370
12573TIP3    H259135   4.633   4.076   2.732  1.4139 -1.3244  0.6284
12574TIP3   OH259136   4.891   5.065  15.470 -0.1944 -0.6627 -0.1484
12574TIP3    H159137   4.878   4.983  15.519  0.6879 -0.6653  0.0927
12574TIP3    H259138   4.984   5.064  15.447 -0.2996  0.0203 -0.6113
12575TIP3   OH259139   4.100   6.060   1.535 -0.4801  0.1415 -0.3214
12575TIP3    H159140   4.092   6.099   1.448 -0.4042 -0.5582 -0.6492
12575TIP3    H259141   4.010   6.037   1.559 -0.2443 -2.0192 -1.3329
12576TIP3   OH259142   0.735   4.835  11.848  0.4987  0.1047  0.0823
12576TIP3    H159143   0.790   4.757  11.847  0.5768  0.1583 -1.1012
12576TIP3    H259144   0.796   4.907  11.832  0.3832  0.3737  0.8678
12577TIP3   OH259145   4.469   3.518  12.333 -0.2425  0.1711 -0.3268
12577TIP3    H159146   4.456   3.527  12.427  0.9193  2.3755 -0.3367
12577TIP3    H259147   4.542   3.458  12.324 -0.5464 -0.2745  0.1529
12578TIP3   OH259148   2.380   4.458   1.570 -0.5866 -0.3425  0.0834
12578TIP3    H159149   2.329   4.509   1.507 -0.1854  1.1071  0.9097
12578TIP3    H259150   2.351   4.367   1.557 -0.4114 -0.0943 -2.2850
12579TIP3   OH259151   0.769   5.783  15.016 -0.0043  0.2116 -0.4082
12579TIP3    H159152   0.810   5.712  14.966 -0.5435  0.6558 -1.5040
12579TIP3    H259153   0.681   5.752  15.036 -0.4459  0.7840 -1.3965
12580TIP3   OH259154   5.729   3.301  16.345 -0.0161 -0.0908  0.3241
12580TIP3    H159155   5.682   3.352  16.279  0.3709 -0.3091 -0.1269
12580TIP3    H259156   5.663   3.244  16.383 -0.5134  0.9316  1.0310
12581TIP3   OH259157   0.723   3.699   2.331  0.2603  0.3342 -0.1702
12581TIP3    H159158   0.742   3.784   2.293  0.1066  0.4452  0.0030
12581TIP3    H259159   0.664   3.717   2.404  1.1530  0.2038  0.6015
12582TIP3   OH259160   1.952   3.734   4.345  0.1620  0.6562  0.3608
12582TIP3    H159161   1.906   3.797   4.401 -0.2054 -0.1842  1.0165
12582TIP3    H259162   1.958   3.778   4.260 -3.7190 -0.0110 -0.3539
12583TIP3   OH259163   0.629   0.483  15.893  0.0340 -0.2981 -0.3340
12583TIP3    H159164   0.569   0.535  15.948  0.6710 -0.8568  0.8812
12583TIP3    H259165   0.707   0.472  15.946  0.8593 -0.4114 -1.5569
12584TIP3   OH259166   4.264   1.016   1.657 -0.1453 -0.0974 -0.2991
12584TIP3    H159167   4.204   1.043   1.588 -0.3681  0.3145  0.0503
12584TIP3    H259168   4.270   0.921   1.649 -1.3299 -0.2060  0.0671
12585TIP3   OH259169   4.764   1.315   3.735 -0.5446 -0.2084 -0.2286
12585TIP3    H159170   4.711   1.308   3.815 -0.8844 -1.6936 -0.5566
12585TIP3    H259171   4.851   1.288   3.762 -0.3691  0.4951 -0.0876
12586TIP3   OH259172   0.196   6.205   3.292 -0.2232 -0.0740  0.5615
12586TIP3    H159173   0.194   6.139   3.361 -1.5655  0.5019  1.0750
12586TIP3    H259174   0.264   6.267   3.320  0.7743 -1.0006  0.2627
12587TIP3   OH259175   3.965   4.179   3.137  0.2867  0.1735  0.2354
12587TIP3    H159176   4.016   4.102   3.164 -2.0789 -1.1745  1.0327
12587TIP3    H259177   3.967   4.176   3.042  0.7185 -0.5552  0.2587
12588TIP3   OH259178   0.979   1.093   6.135  0.6400  0.5790 -0.2939
12588TIP3    H159179   1.050   1.129   6.082  2.0237 -1.3487  0.1737
12588TIP3    H259180   1.022   1.059   6.213 -0.5909 -1.8144 -0.5899
12589TIP3   OH259181   3.520   2.285  14.144  0.4095  0.2225 -0.2441
12589TIP3    H159182   3.433   2.321  14.164  0.8283  1.1680 -0.0816
12589TIP3    H259183   3.577   2.362  14.141  0.8921 -0.1836 -2.2925
12590TIP3   OH259184   6.465   4.851   4.462 -0.5616  0.5589  0.0560
12590TIP3    H159185   6.485   4.761   4.437 -0.4662  0.5770  0.0677
12590TIP3    H259186   6.418   4.887   4.387  0.5694  0.9032 -0.4894
12591TIP3   OH259187   1.074   1.045   2.521  0.5762  0.1600 -0.3776
12591TIP3    H159188   1.018   1.012   2.451 -0.4653  1.9645 -0.4203
12591TIP3    H259189   1.079   0.973   2.584 -0.7533 -0.4732 -0.9837
12592TIP3   OH259190   5.101   2.998  12.110  0.0223  0.5171 -0.0574
12592TIP3    H159191   5.173   3.047  12.149  1.1900 -0.7148 -0.6093
12592TIP3    H259192   5.097   2.917  12.160 -1.1950  0.7094  0.1723
12593TIP3   OH259193   4.234   3.397  15.939  0.1749 -0.4752  0.1022
12593TIP3    H159194   4.159   3.381  15.997  0.3545 -1.8047 -0.0128
12593TIP3    H259195   4.211   3.352  15.858  0.3831  0.5132 -0.5098
12594TIP3   OH259196   5.412   2.752   2.145 -0.0982 -0.1783  0.1385
12594TIP3    H159197   5.385   2.669   2.184 -1.7763  0.3804  0.2225
12594TIP3    H259198   5.442   2.729   2.057 -0.3893 -0.8949  0.2218
12595TIP3   OH259199   2.025   5.214   0.156 -0.1533  0.1798 -0.3932
12595TIP3    H159200   2.118   5.209   0.175 -0.0611  0.4192 -0.7884
12595TIP3    H259201   1.983   5.201   0.241  0.2610  1.1473 -0.0352
12596TIP3   OH259202   1.259   5.649  13.780  0.4809  0.3895  0.1516
12596TIP3    H159203   1.176   5.619  13.816  0.2225  0.0791 -0.6858
12596TIP3    H259204   1.288   5.577  13.724  0.8096  0.9173 -0.3638
12597TIP3   OH259205   3.653   4.438  13.514 -0.5642  0.2273  0.4024
12597TIP3    H159206   3.725   4.428  13.452 -0.0367 -0.4452  1.1116
12597TIP3    H259207   3.591   4.496  13.470  0.0523  0.1894 -0.5270
12598TIP3   OH259208   3.458   6.627  16.948  0.6776 -0.0248 -0.3593
12598TIP3    H159209   3.526   6.677  16.902  0.4897 -0.1600 -0.7911
12598TIP3    H259210   3.437   6.555  16.889 -0.2395  0.3279 -0.4823
12599TIP3   OH259211   0.581   5.706  12.385 -0.4131 -0.0667  0.2206
12599TIP3    H159212   0.642   5.649  12.338  0.1745  0.7255  0.0016
12599TIP3    H259213   0.631   5.786  12.401 -1.1591  0.3090  0.7064
12600TIP3   OH259214   5.507   4.656  14.207 -1.2239  0.3175 -0.3460
12600TIP3    H159215   5.463   4.573  14.191  0.8515 -0.4220 -2.4800
12600TIP3    H259216   5.485   4.710  14.130 -0.9836  1.0528  0.0978
12601TIP3   OH259217   0.853   3.465   2.208  0.2159  0.2162 -0.1125
12601TIP3    H159218   0.775   3.437   2.161  1.2183 -0.0336 -1.6717
12601TIP3    H259219   0.820   3.517   2.281 -1.4303 -0.5504 -0.3036
12602TIP3   OH259220   6.307   2.831   4.945 -0.0780  0.5838 -0.0198
12602TIP3    H159221   6.376   2.853   5.008 -1.0728  2.2234  0.5479
12602TIP3    H259222   6.349   2.838   4.860  0.5619  1.2009  0.3395
12603TIP3   OH259223   1.541   0.462  14.688 -0.3656  0.2894 -0.0377
12603TIP3    H159224   1.453   0.478  14.654 -0.0957  0.5062 -0.6493
12603TIP3    H259225   1.598   0.516  14.633 -0.1078  2.1535  1.9997
12604TIP3   OH259226   1.420   3.733  13.721  0.0628 -0.0924  0.3731
12604TIP3    H159227   1.338   3.775  13.746 -0.3847 -1.9026  2.0759
12604TIP3    H259228   1.487   3.786  13.764 -0.3953 -0.2079  1.2461
12605TIP3   OH259229   0.273   2.155   1.998 -0.8301 -0.4116  0.8017
12605TIP3    H159230   0.187   2.115   1.985 -0.0651 -1.5383 -0.9544
12605TIP3    H259231   0.336   2.086   1.976  0.5192  0.8116  0.6985
12606TIP3   OH259232   0.548   3.800   1.478  0.3995 -0.1174  0.4624
12606TIP3    H159233   0.593   3.846   1.548  0.1072  1.4878 -0.3776
12606TIP3    H259234   0.597   3.823   1.398 -1.2158  0.7403 -0.3018
12607TIP3   OH259235   2.560   5.970   1.597 -0.1023  0.1839  0.0500
12607TIP3    H159236   2.621   5.903   1.627 -0.0555 -0.4383 -1.3831
12607TIP3    H259237   2.571   6.042   1.658  1.6792 -0.1323  0.1093
12608TIP3   OH259238   5.016   4.892   5.197 -0.4838 -0.0444  0.2287
12608TIP3    H159239   4.955   4.874   5.125 -0.7625  2.3623 -0.1729
12608TIP3    H259240   5.071   4.964   5.165 -0.7857  1.2544  2.4964
12609TIP3   OH259241   5.559   6.642  10.285 -1.1356  0.2943 -0.3381
12609TIP3    H159242   5.601   6.636  10.199 -2.2893  2.9339 -1.1612
12609TIP3    H259243   5.618   6.596  10.344 -1.3111 -3.3877 -2.8542
12610TIP3   OH259244   4.854   4.150  14.768  0.6154  0.1908  0.5872
12610TIP3    H159245   4.770   4.194  14.785  0.9276  0.6279  1.0110
12610TIP3    H259246   4.908   4.218  14.726 -0.0378 -0.7727 -1.8904
12611TIP3   OH259247   3.922   6.690   3.496 -0.3196 -0.2347  0.2958
12611TIP3    H159248   3.848   6.707   3.554  0.3392  0.2665  1.0128
12611TIP3    H259249   3.941   6.597   3.508 -0.0738 -0.0961  1.0332
12612TIP3   OH259250   6.219   6.044  14.947 -0.2169  0.9326 -0.2622
12612TIP3    H159251   6.185   6.075  14.863 -0.1134 -2.3298 -1.5428
12612TIP3    H259252   6.145   6.052  15.007 -0.9622  1.0855 -1.1990
12613TIP3   OH259253   0.564   4.918  13.458 -0.2129 -0.0814 -0.0310
12613TIP3    H159254   0.567   4.872  13.374 -0.4102 -2.3039  1.1580
12613TIP3    H259255   0.655   4.922  13.486 -0.2695 -0.3741  0.1969
12614TIP3   OH259256   5.021   1.496  17.015 -0.6252  0.0186  0.3153
12614TIP3    H159257   5.079   1.439  17.066 -2.0564  0.1370  2.1164
12614TIP3    H259258   5.024   1.460  16.927 -0.2196 -1.8516  1.0734
12615TIP3   OH259259   0.535   3.499  15.131 -0.1600  0.1159  0.3270
12615TIP3    H159260   0.443   3.514  15.151 -0.3290 -0.7791  0.2375
12615TIP3    H259261   0.581   3.518  15.212 -0.4535  0.3188  0.4447
12616TIP3   OH259262   6.467   4.935   2.239  0.3954  0.2946  0.3666
12616TIP3    H159263   6.495   4.933   2.330  1.5166  1.8842  0.0783
12616TIP3    H259264   6.523   4.870   2.195 -0.0159 -0.3315  0.7524
12617TIP3   OH259265   5.845   1.021  11.396 -0.2013 -0.0953  0.0561
12617TIP3    H159266   5.908   1.003  11.466 -0.9247 -0.1460  0.7010
12617TIP3    H259267   5.766   1.049  11.442 -0.2974  1.0553 -0.7961
12618TIP3   OH259268   2.671   0.090  14.672 -0.0355 -0.2922  0.2146
12618TIP3    H159269   2.664   0.128  14.585  0.0840  0.4234  0.5167
12618TIP3    H259270   2.592   0.120  14.718  0.2574 -0.0739  0.5806
12619TIP3   OH259271   0.434   6.605   0.830  0.0822 -0.2699 -0.4812
12619TIP3    H159272   0.391   6.688   0.807 -0.0975 -0.3019 -0.2644
12619TIP3    H259273   0.524   6.629   0.852  0.4244 -0.3136 -1.7910
12620TIP3   OH259274   1.981   5.892  10.727  0.2465  0.0123 -0.3287
12620TIP3    H159275   2.035   5.893  10.806  1.9193  1.8518 -1.4399
12620TIP3    H259276   2.034   5.845  10.662 -1.2353 -1.7378 -0.3132
12621TIP3   OH259277   3.873   2.027   1.027  0.0025  0.4569 -0.1392
12621TIP3    H159278   3.886   1.932   1.032 -0.7735  0.2828 -1.2101
12621TIP3    H259279   3.801   2.044   1.087 -0.7940  0.1626 -0.9965
12622TIP3   OH259280   0.960   4.061  15.523 -0.0470  0.0587 -0.4894
12622TIP3    H159281   1.022   4.108  15.467  0.0000 -1.9993 -2.2327
12622TIP3    H259282   0.875   4.071  15.479 -0.6626  1.4657  0.9999
12623TIP3   OH259283   6.189   5.011  11.078 -0.0223 -0.0667 -1.0146
12623TIP3    H159284   6.143   5.023  11.161  1.1349  0.6861 -0.4746
12623TIP3    H259285   6.129   4.957  11.025 -1.5271  0.8989 -0.3357
12624TIP3   OH259286   1.757   2.970  11.936  0.3932 -0.3887 -0.4065
12624TIP3    H159287   1.796   3.058  11.936  0.0116 -0.1282 -3.7082
12624TIP3    H259288   1.664   2.985  11.956  0.4375 -0.0735 -0.4317
12625TIP3   OH259289   1.000   1.649   3.937 -0.1720 -0.1604 -0.2393
12625TIP3    H159290   1.031   1.668   3.849  1.4198  1.5581  0.6691
12625TIP3    H259291   1.035   1.562   3.957  0.0475 -0.2532 -1.0256
12626TIP3   OH259292   3.760   0.409  15.073  0.2405  0.2007 -0.2015
12626TIP3    H159293   3.842   0.396  15.120 -0.5363 -0.5183  0.9933
12626TIP3    H259294   3.704   0.337  15.102 -1.8571  2.3710  1.3678
12627TIP3   OH259295   5.728   2.839  11.160  0.4918 -0.0612 -0.1172
12627TIP3    H159296   5.646   2.799  11.191 -1.5953  1.1002 -3.8112
12627TIP3    H259297   5.748   2.907  11.224 -0.4110 -1.5355  1.7925
12628TIP3   OH259298   2.032   1.713   5.167 -0.0460  0.0556  0.0847
12628TIP3    H159299   2.059   1.681   5.081  0.6524  0.7493  0.0449
12628TIP3    H259300   1.949   1.668   5.184  1.1830 -2.2061  0.2561
12629TIP3   OH259301   2.660   0.193   4.282 -0.5035  0.2225 -0.4937
12629TIP3    H159302   2.668   0.180   4.376 -2.6518  0.7224 -0.2185
12629TIP3    H259303   2.714   0.124   4.243  0.8003  0.3257  1.0809
12630TIP3   OH259304   1.858   3.188   4.391 -0.1724 -0.2845  0.5962
12630TIP3    H159305   1.932   3.144   4.349  0.4191 -0.3478  1.6935
12630TIP3    H259306   1.859   3.277   4.356  0.3797 -0.3075  0.5560
12631TIP3   OH259307   0.655   2.362   0.167  0.0950  0.1155 -0.4460
12631TIP3    H159308   0.711   2.298   0.123 -0.1088 -1.6626  1.8248
12631TIP3    H259309   0.567   2.341   0.137  0.0610 -0.4987  0.0720
12632TIP3   OH259310   1.415   5.663  14.303 -0.1537 -0.6217 -0.1249
12632TIP3    H159311   1.494   5.625  14.266  0.1785 -0.9435  0.9155
12632TIP3    H259312   1.432   5.668  14.397 -0.6647  0.9697 -0.1045
12633TIP3   OH259313   5.441   3.772  11.246 -0.0073 -0.0037  0.0699
12633TIP3    H159314   5.485   3.762  11.161 -0.2731  0.1502 -0.0838
12633TIP3    H259315   5.477   3.853  11.282 -2.4260  1.8069 -1.4183
12634TIP3   OH259316   4.936   1.331  16.124 -0.5080  0.6555  0.0066
12634TIP3    H159317   4.965   1.312  16.214 -1.6369 -1.7497 -0.1210
12634TIP3    H259318   4.890   1.415  16.132 -1.0670  0.2152  1.7756
12635TIP3   OH259319   3.655   4.481   1.206  0.1584  0.0216 -0.0245
12635TIP3    H159320   3.659   4.387   1.224 -2.5750 -0.2029 -0.3075
12635TIP3    H259321   3.565   4.495   1.175  0.3282  2.8468  0.6586
12636TIP3   OH259322   3.795   1.455  14.865 -0.1560  0.1905 -0.3118
12636TIP3    H159323   3.865   1.392  14.880  1.0497  1.6567  0.2975
12636TIP3    H259324   3.722   1.422  14.918  0.0072 -1.4016 -1.0376
12637TIP3   OH259325   6.343   1.133   6.443  0.2524 -0.3247 -0.0523
12637TIP3    H159326   6.411   1.124   6.510  1.3097  1.6910 -0.8199
12637TIP3    H259327   6.372   1.076   6.372  1.3311  0.7830 -0.5149
12638TIP3   OH259328   3.215   3.185  17.103  0.1179  0.1959  0.4583
12638TIP3    H159329   3.306   3.160  17.085  0.1226  0.2439  0.4122
12638TIP3    H259330   3.220   3.278  17.126 -0.0124  0.4086 -0.3542
12639TIP3   OH259331   0.947   5.834   4.978  0.1122 -0.3751 -0.2097
12639TIP3    H159332   1.021   5.894   4.964  0.2773 -0.0706  1.7334
12639TIP3    H259333   0.903   5.830   4.894  1.9966 -0.0740 -1.2494
12640TIP3   OH259334   0.702   5.725   1.629  0.0399  0.5998 -0.0195
12640TIP3    H159335   0.620   5.775   1.638  1.2505  2.4512  1.0664
12640TIP3    H259336   0.727   5.704   1.718 -0.1454 -1.5064 -0.4426
12641TIP3   OH259337   4.524   6.766   0.248 -0.2820 -0.0586  0.3825
12641TIP3    H159338   4.479   6.849   0.262 -0.3962 -0.2479  1.1255
12641TIP3    H259339   4.611   6.791   0.216 -0.1261  0.3596  1.1143
12642TIP3   OH259340   3.679   1.376  13.150  0.7142 -0.5661  0.0046
12642TIP3    H159341   3.746   1.309  13.144  1.2674 -0.0768  0.5990
12642TIP3    H259342   3.618   1.356  13.079  1.1779 -1.3515 -0.1768
12643TIP3   OH259343   3.054   5.752   5.722 -0.0191  0.1909 -0.5927
12643TIP3    H159344   3.073   5.846   5.712  0.3130  0.4377  2.0663
12643TIP3    H259345   3.036   5.722   5.633 -0.2978  2.8209 -1.4695
12644TIP3   OH259346   5.578   6.421  14.397  0.1644 -0.5459  0.0923
12644TIP3    H159347   5.637   6.353  14.365  0.7822 -1.5277  3.1546
12644TIP3    H259348   5.569   6.403  14.491 -1.7252  2.0644  0.4707
12645TIP3   OH259349   1.687   5.076   0.519  0.0855  0.1852 -0.4681
12645TIP3    H159350   1.767   5.116   0.554  0.0914 -0.5147  0.3439
12645TIP3    H259351   1.662   5.011   0.585 -0.6256 -0.2608 -1.1666
12646TIP3   OH259352   6.361   0.127  15.634 -0.5269 -0.0140 -0.1574
12646TIP3    H159353   6.432   0.171  15.682  0.0884  0.7951 -1.7972
12646TIP3    H259354   6.372   0.034  15.657 -0.1862  0.3410  1.1909
12647TIP3   OH259355   2.344   5.699  13.112  0.0273 -0.3460  0.2705
12647TIP3    H159356   2.328   5.604  13.118 -1.1910 -0.0325  3.1021
12647TIP3    H259357   2.438   5.707  13.099  0.2893 -1.9496  1.0083
12648TIP3   OH259358   6.527   0.343  16.516 -0.0665 -0.8200  0.8916
12648TIP3    H159359   6.492   0.365  16.429  1.6943 -0.1821  0.3202
12648TIP3    H259360   6.460   0.374  16.577 -0.3757  0.6761 -0.1698
12649TIP3   OH259361   2.944   1.320   0.605  0.2195 -0.2427  0.2358
12649TIP3    H159362   3.026   1.277   0.630  1.0812  2.6455  2.6548
12649TIP3    H259363   2.966   1.375   0.531  0.8967  1.6764  1.8058
12650TIP3   OH259364   2.326   6.619  17.094  0.3374 -0.4975  0.5876
12650TIP3    H159365   2.317   6.713  17.082  0.8129 -0.6086 -0.7410
12650TIP3    H259366   2.291   6.580  17.014  0.1824 -1.4518  1.1037
12651TIP3   OH259367   1.700   1.162   0.152 -0.1038 -0.0116 -0.4144
12651TIP3    H159368   1.702   1.066   0.155 -0.3535 -0.0261 -0.7123
12651TIP3    H259369   1.616   1.183   0.111  0.2144  0.3244 -0.9015
12652TIP3   OH259370   0.306   1.505  16.932  1.5372  0.2350 -0.2198
12652TIP3    H159371   0.360   1.489  16.854  2.2640 -1.6138  0.6490
12652TIP3    H259372   0.367   1.500  17.005  0.4838 -0.2224  0.6442
12653TIP3   OH259373   4.019   1.251  14.447  0.2872  0.8677 -0.0398
12653TIP3    H159374   4.094   1.288  14.493  0.3394 -0.1648  0.7274
12653TIP3    H259375   4.057   1.196  14.379  0.2181  1.2236 -0.3673
12654TIP3   OH259376   5.675   3.816  14.489  0.0875 -0.2621  0.2848
12654TIP3    H159377   5.629   3.769  14.559  0.9045  0.4166  1.3156
12654TIP3    H259378   5.762   3.775  14.487 -0.2406 -0.9150 -1.0035
12655TIP3   OH259379   5.955   0.914   4.513  0.4952 -0.2937 -0.7656
12655TIP3    H159380   5.973   0.981   4.578 -0.9764 -0.0459 -0.5916
12655TIP3    H259381   5.904   0.848   4.560  0.5880 -0.7578 -1.3190
12656TIP3   OH259382   5.049   1.639   1.827 -0.1255 -0.0936 -0.2339
12656TIP3    H159383   5.116   1.707   1.825 -0.2539  0.0720  1.0020
12656TIP3    H259384   4.982   1.671   1.887 -0.5293 -0.9905 -0.1844
12657TIP3   OH259385   3.736   1.146   2.242 -0.5552 -0.4066 -0.0942
12657TIP3    H159386   3.652   1.147   2.196 -0.3868 -0.4672 -0.4044
12657TIP3    H259387   3.799   1.179   2.178  0.0855 -2.7584 -0.7139
12658TIP3   OH259388   4.597   0.720   5.851 -0.1902  0.5626  0.2549
12658TIP3    H159389   4.529   0.781   5.825 -0.3839  0.5605  0.7461
12658TIP3    H259390   4.586   0.711   5.946  0.4918  0.5638  0.3382
12659TIP3   OH259391   6.426   1.405  11.369  0.5435  0.2949 -0.1267
12659TIP3    H159392   6.342   1.448  11.387  0.2658 -0.3933  0.2562
12659TIP3    H259393   6.461   1.451  11.293 -0.3429  0.3768 -0.4929
12660TIP3   OH259394   2.816   4.389   5.306  0.1669  0.7607 -0.1340
12660TIP3    H159395   2.817   4.477   5.344 -0.8916  0.9206 -0.4828
12660TIP3    H259396   2.724   4.366   5.298  0.4104  0.0243 -0.9923
12661TIP3   OH259397   1.581   2.268   0.801  0.0399  0.6195 -0.7126
12661TIP3    H159398   1.509   2.329   0.816  1.7671  2.4801  0.1910
12661TIP3    H259399   1.660   2.315   0.829  1.4069 -2.0915  0.2631
12662TIP3   OH259400   6.295   5.942  13.068  0.2188  0.6593  0.1911
12662TIP3    H159401   6.207   5.939  13.032  0.9138 -0.6860 -1.4438
12662TIP3    H259402   6.302   5.864  13.123  0.1129  1.2140  1.0021
12663TIP3   OH259403   2.534   5.197  13.383 -0.0336 -0.3725 -0.1600
12663TIP3    H159404   2.458   5.205  13.325 -0.4256 -2.3844  0.0467
12663TIP3    H259405   2.501   5.223  13.469 -0.8595 -2.5014  0.1934
12664TIP3   OH259406   1.736   0.709   6.825 -0.1422  0.4794 -0.6604
12664TIP3    H159407   1.814   0.675   6.781  0.6428  1.2545  0.1163
12664TIP3    H259408   1.669   0.644   6.808  1.6447 -2.1536  1.8750
12665TIP3   OH259409   1.186   4.181  16.634  0.3915  0.2435 -0.0735
12665TIP3    H159410   1.109   4.214  16.679  0.7186  1.7191 -0.5620
12665TIP3    H259411   1.232   4.128  16.699 -0.3936  0.3685  0.5849
12666TIP3   OH259412   1.001   6.284  15.158  0.2828  0.1948  0.2902
12666TIP3    H159413   1.078   6.317  15.111  0.6637 -0.7885  0.2041
12666TIP3    H259414   1.031   6.273  15.248 -0.3564  1.7718  0.7195
12667TIP3   OH259415   1.003   5.236   0.732  0.7602  0.0831  0.2214
12667TIP3    H159416   0.939   5.227   0.662  0.2327  0.5086  0.6395
12667TIP3    H259417   1.070   5.170   0.713  0.6242  0.2005 -0.6805
12668TIP3   OH259418   0.403   0.790  17.038  0.3734 -0.0966 -0.0203
12668TIP3    H159419   0.492   0.760  17.019 -0.2613 -1.3638 -1.0728
12668TIP3    H259420   0.383   0.851  16.967 -0.1727 -1.0465 -0.7012
12669TIP3   OH259421   0.140   5.707  16.359 -0.0291  0.1747 -0.1282
12669TIP3    H159422   0.055   5.713  16.403 -0.0704 -0.0835 -0.1680
12669TIP3    H259423   0.130   5.635  16.297  0.9901 -1.5577  1.6576
12670TIP3   OH259424   3.169   2.193   4.718  0.1181 -0.4567 -0.5026
12670TIP3    H159425   3.195   2.264   4.777 -1.6110 -1.5445  1.6685
12670TIP3    H259426   3.251   2.159   4.684  1.1267  0.6327  0.7854
12671TIP3   OH259427   1.363   5.916   3.929 -0.0120 -0.2169  0.4799
12671TIP3    H159428   1.435   5.855   3.944  1.3549  0.9280 -1.2722
12671TIP3    H259429   1.405   6.002   3.924 -1.8497  0.8527  2.4182
12672TIP3   OH259430   3.495   4.712   3.131  0.7362  0.1988 -0.2183
12672TIP3    H159431   3.533   4.723   3.044 -1.1321 -0.3581 -1.1382
12672TIP3    H259432   3.410   4.756   3.126  0.2870 -0.4908  1.0761
12673TIP3   OH259433   0.654   2.506   4.070 -0.5259 -0.0030 -0.4328
12673TIP3    H159434   0.636   2.456   3.991  3.5978  1.4439 -2.4594
12673TIP3    H259435   0.667   2.596   4.038  1.9815  0.4534  1.7501
12674TIP3   OH259436   5.409   5.819   5.002 -0.2320  0.2967  0.6747
12674TIP3    H159437   5.479   5.869   5.045  1.9172 -0.9510 -1.3128
12674TIP3    H259438   5.370   5.881   4.941 -1.2500  1.1526  2.1569
12675TIP3   OH259439   4.562   4.684  11.870  0.3491  0.0102 -0.3126
12675TIP3    H159440   4.646   4.642  11.853 -0.1206 -0.9925 -0.1912
12675TIP3    H259441   4.537   4.721  11.786  0.3175 -0.7867 -0.6638
12676TIP3   OH259442   6.225   3.034   0.752 -0.3551  0.2666  0.1694
12676TIP3    H159443   6.298   3.090   0.779 -1.3321  0.8328  1.6794
12676TIP3    H259444   6.149   3.092   0.752 -1.1018 -0.7076  0.2316
12677TIP3   OH259445   0.997   2.389   2.644  0.1184 -0.6401  0.4768
12677TIP3    H159446   0.923   2.344   2.603 -0.3071  0.8340 -0.4244
12677TIP3    H259447   1.072   2.332   2.629 -0.6948 -1.7776  0.7117
12678TIP3   OH259448   1.244   1.811  12.231  0.5220  0.5328 -0.4373
12678TIP3    H159449   1.200   1.747  12.176  1.7024 -0.5577 -0.1326
12678TIP3    H259450   1.317   1.842  12.177  0.4639  0.9802 -0.2604
12679TIP3   OH259451   4.041   5.347   4.953  0.2503  0.1841  0.3679
12679TIP3    H159452   4.001   5.260   4.955  3.1147 -1.1798  0.4252
12679TIP3    H259453   4.106   5.342   4.884  1.0498  2.0287  0.9655
12680TIP3   OH259454   0.268   5.635  12.153 -0.0855 -0.2467 -0.2182
12680TIP3    H159455   0.282   5.653  12.059 -0.7217  3.2643  0.2785
12680TIP3    H259456   0.173   5.629  12.162 -0.2443  2.6849  0.6485
12681TIP3   OH259457   0.292   5.383   5.171 -0.1650 -0.2733  0.0508
12681TIP3    H159458   0.334   5.298   5.164  2.1177  0.9738 -2.5435
12681TIP3    H259459   0.364   5.446   5.162 -2.2643  1.9195 -2.3858
12682TIP3   OH259460   3.016   2.952   2.462  0.5500  0.0645  0.0366
12682TIP3    H159461   3.005   2.883   2.396  0.6504  0.3639 -0.2995
12682TIP3    H259462   2.961   3.024   2.431 -0.7260 -0.4116  1.1800
12683TIP3   OH259463   3.302   1.698  16.575  0.4416  0.2395  0.1691
12683TIP3    H159464   3.370   1.634  16.556  0.8710  0.1576  1.8624
12683TIP3    H259465   3.243   1.653  16.636 -0.5889  0.6402 -0.5167
12684TIP3   OH259466   3.111   6.692  13.420 -0.0203  0.0677 -0.1644
12684TIP3    H159467   3.121   6.697  13.515  1.6461  0.0009 -0.3315
12684TIP3    H259468   3.173   6.756  13.385 -0.1820 -0.3454 -1.2269
12685TIP3   OH259469   4.626   6.016  11.145  0.6971 -0.2988 -0.0903
12685TIP3    H159470   4.532   6.016  11.164  0.8953  0.4037  0.9595
12685TIP3    H259471   4.647   5.924  11.132  0.2097 -0.6718  1.5748
12686TIP3   OH259472   1.915   6.133   0.491  0.1956 -0.0034  0.7103
12686TIP3    H159473   1.939   6.208   0.545  0.0246  0.3820  0.2543
12686TIP3    H259474   1.967   6.060   0.527  2.5069  0.9386 -0.6041
12687TIP3   OH259475   0.625   2.839  11.754 -0.5043  0.3284 -0.6158
12687TIP3    H159476   0.666   2.779  11.693 -1.6994 -0.7693 -0.3673
12687TIP3    H259477   0.693   2.858  11.819 -0.1723 -0.9494 -0.5702
12688TIP3   OH259478   6.008   6.252   2.785  0.5434  0.4038  0.3006
12688TIP3    H159479   6.055   6.169   2.775  0.7065  0.4376  0.7785
12688TIP3    H259480   5.944   6.251   2.714 -0.0690 -0.5486  0.8556
12689TIP3   OH259481   1.523   5.104   4.896 -0.0319 -0.0188  0.0650
12689TIP3    H159482   1.475   5.184   4.871  0.8294  0.3841 -0.3199
12689TIP3    H259483   1.615   5.132   4.899  0.2618 -0.9871 -0.0127
12690TIP3   OH259484   5.686   4.900   3.458  0.6925  0.1898  0.2173
12690TIP3    H159485   5.780   4.896   3.443  0.8531 -0.2230  1.3422
12690TIP3    H259486   5.676   4.947   3.541 -0.0941  0.2696  0.0850
12691TIP3   OH259487   0.000   0.780  12.763  0.1874 -0.0766 -0.3274
12691TIP3    H159488  -0.038   0.820  12.842 -0.4432  0.1631 -0.7505
12691TIP3    H259489   0.094   0.773  12.783  0.1671  0.7770  0.1053
12692TIP3   OH259490   0.932   5.714   4.525 -0.4671 -0.1252  0.1274
12692TIP3    H159491   0.890   5.692   4.608  0.4259 -0.2039  0.5694
12692TIP3    H259492   0.872   5.681   4.458 -1.9898  1.3762  0.7132
12693TIP3   OH259493   1.690   0.787   5.408  0.3592 -0.5016  0.4391
12693TIP3    H159494   1.679   0.820   5.497  1.7809  0.8425  0.1330
12693TIP3    H259495   1.775   0.745   5.408  0.3830 -0.4675 -0.3020
12694TIP3   OH259496   2.271   4.199  16.181  0.3377  0.1816 -0.1506
12694TIP3    H159497   2.303   4.263  16.117  0.0056 -1.4873 -2.0532
12694TIP3    H259498   2.234   4.128  16.127 -1.1162 -0.6836  1.9213
12695TIP3   OH259499   5.193   3.605  12.957  0.0955 -0.1508 -0.8900
12695TIP3    H159500   5.272   3.551  12.957 -0.2904 -0.7600  1.0286
12695TIP3    H259501   5.221   3.689  12.920  1.7475 -0.2034  0.2007
12696TIP3   OH259502   2.251   5.365  15.608  0.5698 -0.9017 -0.4203
12696TIP3    H159503   2.310   5.435  15.582  0.6636 -1.3388 -1.4017
12696TIP3    H259504   2.291   5.328  15.686  1.4609 -1.0200 -0.9249
12697TIP3   OH259505   4.748   5.162   5.749 -0.3687  0.2859 -0.0076
12697TIP3    H159506   4.726   5.246   5.710 -0.4727  0.6549  0.8375
12697TIP3    H259507   4.833   5.140   5.712 -0.0631  1.0536  0.2354
12698TIP3   OH259508   5.868   2.564   1.715 -0.3661 -0.1305  0.2600
12698TIP3    H159509   5.821   2.567   1.631  0.7753  0.6021 -0.3706
12698TIP3    H259510   5.957   2.538   1.691 -0.1192 -0.2330  1.2878
12699TIP3   OH259511   5.815   5.495   4.248  0.2650 -0.3759  0.3871
12699TIP3    H159512   5.872   5.487   4.324  3.4797 -1.2415 -2.0204
12699TIP3    H259513   5.792   5.588   4.245  0.1169 -0.3317  2.3713
12700TIP3   OH259514   6.771   3.202  14.944  0.5500  0.0674  0.0008
12700TIP3    H159515   6.790   3.275  14.886 -2.9288  1.3989  0.4026
12700TIP3    H259516   6.757   3.243  15.030  2.0499 -1.4668  0.9969
12701TIP3   OH259517   2.864   4.747  15.536 -0.2831  0.9768  0.1843
12701TIP3    H159518   2.882   4.736  15.443  0.2974  0.5441  0.3434
12701TIP3    H259519   2.861   4.842  15.549 -2.0314  1.0473 -0.5755
12702TIP3   OH259520   6.769   3.778  12.878 -0.1749 -0.5186  0.1042
12702TIP3    H159521   6.849   3.828  12.894 -0.1128 -0.1085 -1.4027
12702TIP3    H259522   6.698   3.839  12.902 -0.0956  0.2657 -1.5780
12703TIP3   OH259523   2.804   1.441   0.120  0.2466  0.0612  0.3656
12703TIP3    H159524   2.808   1.464   0.213 -1.0144 -1.5257  0.8237
12703TIP3    H259525   2.866   1.369   0.111 -0.1124 -0.2146  0.1009
12704TIP3   OH259526   6.050   2.487  16.102 -0.4127 -0.1369 -0.3418
12704TIP3    H159527   5.969   2.504  16.150 -0.5651  2.6442 -1.4807
12704TIP3    H259528   6.032   2.407  16.052 -1.6522 -0.7917  1.1275
12705TIP3   OH259529   2.475   1.742  15.587 -0.3410  0.6602  0.2151
12705TIP3    H159530   2.393   1.779  15.557  0.3055  1.2463 -0.8523
12705TIP3    H259531   2.468   1.648  15.567 -0.0249  1.0010 -1.5258
12706TIP3   OH259532   5.506   6.685   3.540  0.1091 -0.5131  0.2333
12706TIP3    H159533   5.525   6.734   3.619  0.0910  0.9683 -0.6675
12706TIP3    H259534   5.410   6.679   3.538  0.0983 -0.3089  0.1701
12707TIP3   OH259535   4.465   6.461   2.332  0.0028  0.2423  0.3755
12707TIP3    H159536   4.468   6.369   2.358 -0.3497  0.0042 -0.4198
12707TIP3    H259537   4.535   6.502   2.382 -1.3300 -0.0018  2.5083
12708TIP3   OH259538   0.640   4.055   0.583  0.2873 -0.1679 -0.2380
12708TIP3    H159539   0.689   4.023   0.507 -0.7723 -0.7813 -0.6750
12708TIP3    H259540   0.588   4.128   0.550 -0.1854 -0.4429 -0.1013
12709TIP3   OH259541   1.725   1.496   0.513 -0.6485  0.3025  0.3213
12709TIP3    H159542   1.769   1.467   0.433 -1.6094 -2.2037  0.6234
12709TIP3    H259543   1.795   1.510   0.576 -0.0039  0.4948 -0.4352
12710TIP3   OH259544   6.080   0.812   3.076 -0.3476 -0.6092  0.5525
12710TIP3    H159545   6.014   0.744   3.088 -0.6233 -0.2089  1.3507
12710TIP3    H259546   6.060   0.849   2.989 -1.7042  0.0680  1.1387
12711TIP3   OH259547   3.238   5.467   5.824  0.5871 -0.3000  0.0285
12711TIP3    H159548   3.188   5.497   5.899  1.5652  2.4002 -0.3463
12711TIP3    H259549   3.239   5.371   5.832  0.4617 -0.0687  3.2683
12712TIP3   OH259550   1.419   3.705   3.721 -0.3939  0.0908 -0.3580
12712TIP3    H159551   1.365   3.665   3.789  0.5247 -0.0759  0.2890
12712TIP3    H259552   1.432   3.795   3.750 -0.1764  0.0806 -0.4203
12713TIP3   OH259553   0.578   5.615  14.027  0.3673  0.0352 -0.1961
12713TIP3    H159554   0.555   5.524  14.006  0.9693 -0.0604 -0.4623
12713TIP3    H259555   0.622   5.610  14.112  1.5137 -0.0906 -0.7794
12714TIP3   OH259556   4.894   5.336  17.002  0.1563  0.1538  0.2182
12714TIP3    H159557   4.945   5.369  16.928 -0.0921  1.9690  0.8248
12714TIP3    H259558   4.958   5.322  17.071  0.1099  0.4259  0.3154
12715TIP3   OH259559   6.400   4.697  16.968 -1.2226 -0.4591  0.2987
12715TIP3    H159560   6.356   4.705  17.053 -1.3804 -2.4613  0.4448
12715TIP3    H259561   6.334   4.661  16.909 -0.6982 -0.4852 -0.2800
12716TIP3   OH259562   0.953   3.828  15.217 -0.0242 -0.1393 -0.3674
12716TIP3    H159563   0.929   3.763  15.284 -0.2723  0.8264  0.5002
12716TIP3    H259564   0.990   3.776  15.145 -0.3038 -1.2456  0.2727
12717TIP3   OH259565   0.503   6.427   2.563 -0.0839  0.2371 -0.1781
12717TIP3    H159566   0.511   6.344   2.609 -2.5830 -0.3156 -0.6180
12717TIP3    H259567   0.592   6.449   2.535  0.7569 -1.7383  0.8866
12718TIP3   OH259568   4.199   2.531   4.932 -0.6685  0.2698 -0.2008
12718TIP3    H159569   4.288   2.513   4.963 -0.2490  1.1623 -0.8836
12718TIP3    H259570   4.209   2.605   4.872 -1.6513 -0.6782 -1.5446
12719TIP3   OH259571   4.797   1.357   0.657  0.2855  0.0725  0.2034
12719TIP3    H159572   4.878   1.384   0.700 -0.3358 -0.3720  1.6593
12719TIP3    H259573   4.810   1.265   0.636  1.1204  0.6259 -1.8217
12720TIP3   OH259574   4.631   4.833  13.626 -0.1251 -0.5218 -0.7418
12720TIP3    H159575   4.557   4.820  13.566 -0.4117 -0.2900 -0.4404
12720TIP3    H259576   4.698   4.874  13.572 -0.0274 -1.1930 -1.1478
12721TIP3   OH259577   4.550   1.514   1.111  0.1344  0.2027  0.9430
12721TIP3    H159578   4.571   1.500   1.019 -2.1136 -0.1831  0.4405
12721TIP3    H259579   4.564   1.608   1.126 -0.7942  0.5283 -0.1725
12722TIP3   OH259580   1.988   3.619  11.673 -0.0873 -0.4204  0.1365
12722TIP3    H159581   2.026   3.600  11.759 -0.5852  0.7958  0.6253
12722TIP3    H259582   2.063   3.623  11.614  0.1620 -2.5330  0.2551
12723TIP3   OH259583   1.398   6.713   4.947  0.1813 -0.0228  0.0568
12723TIP3    H159584   1.368   6.801   4.971 -1.0950 -0.6221  0.6717
12723TIP3    H259585   1.412   6.718   4.852 -0.9582  0.5373 -0.0916
12724TIP3   OH259586   2.841   5.656  11.993  0.0891  0.3087 -0.0656
12724TIP3    H159587   2.834   5.651  12.089 -0.4196 -0.2994 -0.1333
12724TIP3    H259588   2.906   5.589  11.971  0.0915  0.3431 -0.1637
12725TIP3   OH259589   1.081   1.837  14.253  0.3164  0.2688 -0.3693
12725TIP3    H159590   1.113   1.748  14.270 -2.1851 -0.4544  0.8568
12725TIP3    H259591   1.056   1.836  14.161  0.7655 -0.1691 -0.4871
12726TIP3   OH259592   6.652   0.816   0.277 -0.0094  0.2527  0.2085
12726TIP3    H159593   6.726   0.872   0.254  0.6496 -1.4255 -1.9330
12726TIP3    H259594   6.676   0.779   0.362  1.9399 -0.7411 -0.7365
12727TIP3   OH259595   6.243   3.941   4.522  0.6286 -0.2460  0.0133
12727TIP3    H159596   6.229   3.931   4.616  1.6140  1.0783  0.3122
12727TIP3    H259597   6.245   4.036   4.508  2.1294 -0.4159 -1.0739
12728TIP3   OH259598   3.311   4.241   4.004 -0.0482  0.2962  0.0948
12728TIP3    H159599   3.337   4.220   4.094 -1.4850  1.2265  0.7464
12728TIP3    H259600   3.351   4.326   3.987 -1.0712  0.8450  0.4179
12729TIP3   OH259601   3.870   2.597   4.412 -0.2944  0.1382  0.1314
12729TIP3    H159602   3.780   2.569   4.430  0.0634 -0.5336  0.8687
12729TIP3    H259603   3.922   2.558   4.481  0.3981  1.5609  0.4316
12730TIP3   OH259604   0.811   2.915  12.015  0.3345  0.0999  0.6068
12730TIP3    H159605   0.755   2.852  12.060 -0.1333 -0.8375 -1.2229
12730TIP3    H259606   0.900   2.889  12.038  0.1471 -1.2955 -0.1657
12731TIP3   OH259607   4.093   0.853   0.014 -0.0771 -0.2508 -0.5821
12731TIP3    H159608   4.113   0.943   0.041 -0.6767  0.0155 -1.0035
12731TIP3    H259609   4.128   0.847  -0.075 -0.3970 -0.3079 -0.7038
12732TIP3   OH259610   1.084   4.960   0.256  0.1201  0.7836 -0.1693
12732TIP3    H159611   1.114   5.006   0.177  0.3459 -0.7654 -0.9992
12732TIP3    H259612   1.035   4.885   0.223 -0.6419  0.6741  1.1794
12733TIP3   OH259613   3.785   5.093   3.483  0.0360 -0.1801  0.1487
12733TIP3    H159614   3.767   5.187   3.479 -0.1788 -0.1081  2.4772
12733TIP3    H259615   3.720   5.054   3.423 -0.1298  1.0939 -0.5171
12734TIP3   OH259616   0.785   5.952  11.913 -0.0956  0.2277  0.0916
12734TIP3    H159617   0.728   5.928  11.840 -2.1698 -0.4530  1.8603
12734TIP3    H259618   0.730   6.009  11.968  0.4832 -1.4077  2.4554
12735TIP3   OH259619   3.852   1.982  15.442  0.6796  0.1482 -0.0025
12735TIP3    H159620   3.892   2.069  15.442 -1.2164  1.0466 -0.6577
12735TIP3    H259621   3.818   1.972  15.353  0.1705 -0.9219  0.3152
12736TIP3   OH259622   4.818   6.117   2.931 -0.0323 -0.6564  0.5670
12736TIP3    H159623   4.821   6.109   2.836 -0.5404  0.3096  0.4581
12736TIP3    H259624   4.740   6.067   2.957 -0.0468 -0.6996  0.4397
12737TIP3   OH259625   4.039   4.628  14.936 -0.6423  0.0096 -0.4679
12737TIP3    H159626   4.000   4.716  14.932 -1.6487 -0.4349 -0.6007
12737TIP3    H259627   3.994   4.586  15.009 -1.4003 -0.9849 -1.4959
12738TIP3   OH259628   1.752   6.446  15.496  0.4557 -0.3032 -0.2981
12738TIP3    H159629   1.714   6.403  15.573  1.2673 -0.9090 -0.2240
12738TIP3    H259630   1.738   6.384  15.425 -3.6196  1.7909 -1.4977
12739TIP3   OH259631   3.385   0.591   1.572  0.5665 -0.1518 -0.5008
12739TIP3    H159632   3.385   0.504   1.612 -0.8504 -0.7516 -1.7033
12739TIP3    H259633   3.474   0.623   1.582  0.3890 -0.5089  2.5670
12740TIP3   OH259634   4.118   4.678   3.402 -0.5549  0.2629  0.4006
12740TIP3    H159635   4.066   4.729   3.465 -0.0851 -0.9896  1.8287
12740TIP3    H259636   4.206   4.714   3.409 -0.7104  0.7650 -0.2429
12741TIP3   OH259637   4.430   2.186  11.872  0.3516  0.0044  0.0453
12741TIP3    H159638   4.474   2.101  11.867  1.9166  0.9220 -4.1872
12741TIP3    H259639   4.381   2.193  11.790 -2.1574  1.9729  1.6226
12742TIP3   OH259640   0.709   2.943  16.546  0.2210  0.5324 -0.8727
12742TIP3    H159641   0.665   3.010  16.598  2.9901  1.1356  0.7702
12742TIP3    H259642   0.766   2.992  16.487  0.6743 -0.3236 -1.1544
12743TIP3   OH259643   5.678   1.156  16.145 -0.6697 -0.4364  0.0449
12743TIP3    H159644   5.695   1.080  16.089 -0.7411 -0.8572  0.5864
12743TIP3    H259645   5.716   1.132  16.229  0.6039  0.7390 -0.1926
12744TIP3   OH259646   4.378   6.193   0.458 -0.0089 -0.1932 -0.0211
12744TIP3    H159647   4.293   6.169   0.422  0.0952 -1.7527  0.7295
12744TIP3    H259648   4.421   6.242   0.388 -1.5413  0.6424 -0.3802
12745TIP3   OH259649   3.689   3.421  16.752  0.3729  0.4230  0.0087
12745TIP3    H159650   3.698   3.347  16.693  0.9630  0.0568  0.5412
12745TIP3    H259651   3.762   3.411  16.814  0.3021  1.2972  0.2420
12746TIP3   OH259652   0.006   3.702   1.907  0.3628 -0.1312  0.0136
12746TIP3    H159653   0.076   3.704   1.842  0.7359 -1.3647  0.3607
12746TIP3    H259654   0.044   3.745   1.984  0.9627 -1.3410  0.4052
12747TIP3   OH259655   6.345   5.331  11.333  0.2828  0.4607 -0.2298
12747TIP3    H159656   6.401   5.348  11.258  0.2834 -0.9983 -0.5729
12747TIP3    H259657   6.405   5.297  11.400  0.3154  1.9396  0.5136
12748TIP3   OH259658   5.092   6.467  13.663 -0.1938 -0.4890  0.2943
12748TIP3    H159659   5.120   6.558  13.672  0.4819 -0.6423 -0.1985
12748TIP3    H259660   5.088   6.434  13.752  0.3573 -0.2161  0.4208
12749TIP3   OH259661   5.251   6.170  16.876  0.3372  0.7056  0.0151
12749TIP3    H159662   5.191   6.189  16.949  2.7290 -0.8146  2.4740
12749TIP3    H259663   5.210   6.096  16.831 -0.9606  1.3802  0.0685
12750TIP3   OH259664   4.065   6.630  16.509 -0.1969  0.0147 -0.4631
12750TIP3    H159665   4.152   6.667  16.522  0.6330 -1.9936 -0.1564
12750TIP3    H259666   4.030   6.619  16.597 -0.7094  0.7281 -0.5834
12751TIP3   OH259667   0.808   0.652  14.940  0.3112  0.3253 -0.8196
12751TIP3    H159668   0.737   0.626  14.881  2.1977 -3.0568 -1.7381
12751TIP3    H259669   0.876   0.685  14.882  1.1530 -0.5211 -0.3149
12752TIP3   OH259670   1.432   1.591   5.259 -0.4385 -0.4046 -0.0276
12752TIP3    H159671   1.458   1.536   5.185 -0.9506 -0.8987  0.1550
12752TIP3    H259672   1.352   1.635   5.229  0.6870  1.2565 -0.6577
12753TIP3   OH259673   3.817   3.772  16.742 -0.9673 -0.3166  0.1101
12753TIP3    H159674   3.725   3.795  16.752 -1.4841 -1.8628 -0.8834
12753TIP3    H259675   3.843   3.740  16.828 -1.3503  0.1469  0.4017
12754TIP3   OH259676   4.926   4.589   0.371  0.0891 -0.2614  0.0838
12754TIP3    H159677   5.021   4.585   0.380  0.1093  0.4062  0.1854
12754TIP3    H259678   4.913   4.625   0.283 -0.0651  0.3624  0.3618
12755TIP3   OH259679   3.744   4.767   2.320  0.2733  0.0480 -0.0716
12755TIP3    H159680   3.771   4.696   2.378 -0.1663 -0.5592 -0.6072
12755TIP3    H259681   3.781   4.846   2.360  4.4403 -0.9248 -1.7079
12756TIP3   OH259682   4.138   5.184   4.434 -0.4162  0.6524  0.1462
12756TIP3    H159683   4.152   5.187   4.528 -0.6924  1.1887  0.1711
12756TIP3    H259684   4.057   5.134   4.423  0.2108 -0.3792  0.1291
12757TIP3   OH259685   1.673   6.042  11.216  0.1519 -0.4660 -0.0740
12757TIP3    H159686   1.735   6.019  11.147  0.8758 -0.8302  0.6806
12757TIP3    H259687   1.728   6.074  11.287 -0.5135 -0.9642  0.6751
12758TIP3   OH259688   5.748   2.783  14.542  0.2367  0.2194 -0.1650
12758TIP3    H159689   5.798   2.724  14.486  1.7017  1.5857 -0.3409
12758TIP3    H259690   5.692   2.726  14.594  3.1030 -1.4654  1.1543
12759TIP3   OH259691   3.858   2.986   2.939 -0.1908 -0.3829 -0.2322
12759TIP3    H159692   3.840   2.971   3.031 -0.0449 -0.8347 -0.2799
12759TIP3    H259693   3.783   3.039   2.909  0.4301  0.9253  0.4549
12760TIP3   OH259694   2.008   6.078   2.511  0.6833 -0.5624 -0.3843
12760TIP3    H159695   2.029   6.146   2.447  0.6505 -2.4288 -2.4488
12760TIP3    H259696   2.093   6.046   2.540  0.6958 -0.2964 -0.1256
12761TIP3   OH259697   3.062   0.255   4.307  0.6212 -0.4859  0.5433
12761TIP3    H159698   3.075   0.199   4.384 -0.9346  0.4299  1.4989
12761TIP3    H259699   3.052   0.194   4.234  0.1424 -1.4270  1.3847
12762TIP3   OH259700   0.611   6.634   5.424 -0.3640 -0.3420  0.4745
12762TIP3    H159701   0.690   6.681   5.452 -0.6054 -0.5135  1.4465
12762TIP3    H259702   0.599   6.660   5.333  1.8454 -1.6785 -0.2592
12763TIP3   OH259703   3.422   4.786  13.042  0.1255 -0.2344 -0.1177
12763TIP3    H159704   3.503   4.735  13.037 -1.2284 -2.5685  0.6501
12763TIP3    H259705   3.356   4.730  13.000 -1.1575  1.4628 -0.4089
12764TIP3   OH259706   1.507   0.533  16.416  0.1514 -0.3652  0.6658
12764TIP3    H159707   1.571   0.466  16.391  0.0168  0.1007 -1.0135
12764TIP3    H259708   1.424   0.486  16.422  0.2825 -0.5833  0.7780
12765TIP3   OH259709   3.465   1.151   2.136  0.0077  0.4753 -0.2439
12765TIP3    H159710   3.429   1.224   2.085 -0.0320  1.5504  1.2966
12765TIP3    H259711   3.404   1.139   2.208  0.1002 -0.9885 -0.3967
12766TIP3   OH259712   6.470   5.485   2.538  0.0176 -0.2251  0.1455
12766TIP3    H159713   6.477   5.564   2.591 -1.4256  1.2869 -1.8105
12766TIP3    H259714   6.426   5.421   2.594 -1.5769  1.3578  0.7099
12767TIP3   OH259715   5.153   3.455  11.592 -0.3986  0.0032  0.5093
12767TIP3    H159716   5.082   3.409  11.547  0.2428 -0.2871 -0.2186
12767TIP3    H259717   5.148   3.545  11.559 -0.4958  0.0136  0.5497
12768TIP3   OH259718   1.081   3.949   4.560 -0.3207  0.4288 -0.4210
12768TIP3    H159719   1.131   4.025   4.532  2.4134 -0.2264  2.4110
12768TIP3    H259720   1.080   3.891   4.484  1.5017  1.3490 -1.1669
12769TIP3   OH259721   1.813   1.738  14.515 -0.7143  0.3706 -0.6570
12769TIP3    H159722   1.904   1.712  14.501 -0.5272 -0.2422  1.4515
12769TIP3    H259723   1.816   1.833  14.527 -0.5838  0.5742 -2.2261
12770TIP3   OH259724   3.220   4.564   2.137  0.2869  0.8529 -0.3232
12770TIP3    H159725   3.217   4.556   2.042 -1.9409  1.0797 -0.2961
12770TIP3    H259726   3.225   4.658   2.153  2.1410  0.7598 -0.2132
12771TIP3   OH259727   5.185   0.281   4.854 -0.3783 -0.0798 -0.2766
12771TIP3    H159728   5.158   0.246   4.938 -0.5040 -1.9038 -1.0521
12771TIP3    H259729   5.279   0.263   4.850 -0.0894  1.3204  0.0900
12772TIP3   OH259730   0.466   0.301  16.918  0.2832 -0.2193 -0.0535
12772TIP3    H159731   0.528   0.308  16.846 -1.4071  2.9482 -1.2517
12772TIP3    H259732   0.380   0.300  16.877 -0.6275 -1.4990  1.7754
12773TIP3   OH259733   5.426   1.458   1.913  0.3709  0.8216 -0.0128
12773TIP3    H159734   5.393   1.461   1.823  0.0538 -0.1600  0.0662
12773TIP3    H259735   5.466   1.371   1.921 -1.0700  0.2434  1.2915
12774TIP3   OH259736   0.437   0.901   5.263 -0.4239  0.2272 -0.4355
12774TIP3    H159737   0.455   0.817   5.220 -2.0929 -0.6573  0.5441
12774TIP3    H259738   0.463   0.886   5.354  1.4855  1.5507 -0.7289
12775TIP3   OH259739   6.586   2.664  11.122 -0.1109 -0.7569 -0.3892
12775TIP3    H159740   6.549   2.750  11.101  0.8412 -0.4505 -0.8517
12775TIP3    H259741   6.587   2.618  11.038 -0.2407 -1.0734 -0.2174
12776TIP3   OH259742   6.673   4.634   2.671  0.7938  0.4627  0.3351
12776TIP3    H159743   6.708   4.695   2.736 -0.6489 -0.0505  1.6196
12776TIP3    H259744   6.578   4.637   2.684  0.7157 -2.3381  0.6579
12777TIP3   OH259745   1.342   4.509   0.266 -0.6532  0.7522  0.8094
12777TIP3    H159746   1.301   4.440   0.317 -0.9547  1.0474  0.9698
12777TIP3    H259747   1.387   4.464   0.195 -1.4462  0.4450  0.5001
12778TIP3   OH259748   5.154   3.099  15.216 -0.0566 -0.7662 -0.0922
12778TIP3    H159749   5.175   3.074  15.306 -1.0639 -2.4245 -0.2769
12778TIP3    H259750   5.060   3.081  15.209 -0.7159  2.5709 -0.4715
12779TIP3   OH259751   6.630   5.513   3.720  0.7366  0.3722  0.1805
12779TIP3    H159752   6.700   5.559   3.767 -1.7461  1.9517  2.5073
12779TIP3    H259753   6.596   5.450   3.783 -1.6723  1.4856  0.0429
12780TIP3   OH259754   2.095   6.265  14.017  0.5901  0.0308 -0.1069
12780TIP3    H159755   2.014   6.231  13.979  0.6446 -1.0152  0.6844
12780TIP3    H259756   2.111   6.347  13.970  0.2629 -0.8503 -1.8091
12781TIP3   OH259757   0.266   0.130  13.836  0.4213  0.2708 -0.0473
12781TIP3    H159758   0.253   0.078  13.915 -1.7245  1.0676  0.1546
12781TIP3    H259759   0.229   0.077  13.766 -0.1091  0.7210 -0.1116
12782TIP3   OH259760   2.130   5.502   6.551  0.5101  0.3280 -0.2635
12782TIP3    H159761   2.143   5.583   6.602  0.7596  0.8818 -1.2048
12782TIP3    H259762   2.036   5.501   6.533  0.7679  1.3333 -1.7610
12783TIP3   OH259763   4.556   6.428  11.194 -0.1555 -0.2115 -0.0877
12783TIP3    H159764   4.502   6.472  11.128  0.6429  1.3484  0.2874
12783TIP3    H259765   4.638   6.409  11.150  0.3435  0.7449  0.4157
12784TIP3   OH259766   1.423   5.807  10.342  0.0887  0.1594 -0.2668
12784TIP3    H159767   1.338   5.848  10.323 -0.3758 -0.2935  0.7841
12784TIP3    H259768   1.463   5.864  10.406  0.1624 -0.1350 -0.0497
12785TIP3   OH259769   2.980   5.035   0.783  0.4158 -0.7663  0.6561
12785TIP3    H159770   2.944   4.980   0.853  0.9863 -2.8866 -0.6604
12785TIP3    H259771   3.039   4.977   0.735  0.0743  0.6701 -1.5589
12786TIP3   OH259772   3.560   5.975  14.396 -0.0487  0.4792  0.5476
12786TIP3    H159773   3.617   5.976  14.473 -1.1251 -2.3474  1.4355
12786TIP3    H259774   3.613   5.937  14.326 -0.2252 -0.3878  0.8795
12787TIP3   OH259775   3.922   2.005   2.053 -0.1216  0.0203 -0.6065
12787TIP3    H159776   3.968   1.932   2.012 -0.9051 -0.4379 -0.6873
12787TIP3    H259777   3.967   2.018   2.137 -0.0969 -0.6823 -0.5086
12788TIP3   OH259778   4.867   5.022  13.235 -0.1930 -0.4655  0.0554
12788TIP3    H159779   4.810   5.087  13.275  0.0682 -0.7793  0.9515
12788TIP3    H259780   4.809   4.971  13.178 -1.2206 -1.9965  2.4011
12789TIP3   OH259781   3.414   4.734  16.577 -0.5639 -0.1075  0.0278
12789TIP3    H159782   3.323   4.759  16.563 -0.6384 -1.2436 -1.6220
12789TIP3    H259783   3.460   4.766  16.499  0.7130  1.6576  1.4574
12790TIP3   OH259784   4.887   6.182   5.888 -0.3538 -0.0579  0.2648
12790TIP3    H159785   4.928   6.259   5.927 -0.7271  1.7658 -2.8076
12790TIP3    H259786   4.797   6.184   5.920 -0.0327  0.0910  1.1647
12791TIP3   OH259787   4.341   2.040  13.181  0.1113 -0.0223  0.4338
12791TIP3    H159788   4.373   2.075  13.264  0.0667 -0.6786  0.7374
12791TIP3    H259789   4.265   2.094  13.159  1.6762  1.8533 -0.5327
12792TIP3   OH259790   1.168   1.101   4.574 -0.2515 -0.5520  0.4798
12792TIP3    H159791   1.104   1.066   4.635  0.3991 -0.8040  1.0228
12792TIP3    H259792   1.251   1.098   4.621 -0.0951  1.2394  0.3351
12793TIP3   OH259793   6.726   3.141   3.687 -0.0249 -0.5183  0.0506
12793TIP3    H159794   6.796   3.127   3.623 -0.0001  0.7228 -0.2142
12793TIP3    H259795   6.646   3.124   3.638  0.0190 -0.1808 -0.1411
12794TIP3   OH259796   3.622   5.666  14.753 -0.3777  0.2527 -0.9796
12794TIP3    H159797   3.580   5.747  14.782  0.0568 -0.5412  2.0242
12794TIP3    H259798   3.697   5.657  14.811 -1.3917 -3.1698 -0.1171
12795TIP3   OH259799   1.057   3.910  16.416  0.6196 -0.4266  0.1960
12795TIP3    H159800   1.130   3.848  16.424  0.8989 -0.1706 -0.3592
12795TIP3    H259801   0.985   3.858  16.382  0.8010 -0.4890 -0.0938
12796TIP3   OH259802   3.627   3.026   0.271  0.3179  0.4264 -0.0469
12796TIP3    H159803   3.662   3.064   0.351  1.6187 -1.1225  0.1423
12796TIP3    H259804   3.701   2.981   0.231 -0.8978 -0.8624 -0.8971
12797TIP3   OH259805   5.730   0.397  11.050  0.6474 -0.7189  0.0173
12797TIP3    H159806   5.803   0.387  10.988  0.0693  0.3441 -0.8538
12797TIP3    H259807   5.678   0.469  11.014 -1.0482 -1.7146  0.4107
12798TIP3   OH259808   6.071   3.747   4.388 -0.0923  0.3438 -0.1507
12798TIP3    H159809   6.018   3.698   4.452  0.3745  0.2066  0.1322
12798TIP3    H259810   6.128   3.802   4.442  3.8804 -3.4176 -0.2768
12799TIP3   OH259811   5.237   5.415   5.202  0.0499  0.1620 -0.2711
12799TIP3    H159812   5.276   5.502   5.199  2.6100 -0.8972  0.2985
12799TIP3    H259813   5.176   5.418   5.276 -1.7384  2.1514 -1.7746
12800TIP3   OH259814   4.865   2.870   2.338 -0.3755  0.0969 -0.3700
12800TIP3    H159815   4.891   2.783   2.370 -0.2434  0.6101  0.9162
12800TIP3    H259816   4.948   2.918   2.331 -0.5037  0.2820 -0.6055
12801TIP3   OH259817   3.283   1.107   1.720  0.0117  0.3499 -0.1754
12801TIP3    H159818   3.306   1.084   1.810 -2.0070  1.2509  0.5977
12801TIP3    H259819   3.276   1.203   1.722  1.0028  0.4593 -1.5619
12802TIP3   OH259820   3.747   1.766   5.695  0.0584 -0.3029  0.7891
12802TIP3    H159821   3.815   1.753   5.761  0.2064  0.0140  0.7030
12802TIP3    H259822   3.796   1.787   5.615 -0.0754 -1.6901  0.3381
12803TIP3   OH259823   5.022   3.810   2.300  0.3727 -0.1975 -0.2525
12803TIP3    H159824   4.955   3.868   2.263  0.0282 -0.6832 -0.4067
12803TIP3    H259825   5.104   3.858   2.290  0.1059  0.2191 -0.4730
12804TIP3   OH259826   6.201   6.387  16.759 -0.1674 -0.3355  0.1935
12804TIP3    H159827   6.161   6.352  16.839  0.6269 -1.2830  0.1849
12804TIP3    H259828   6.155   6.470  16.744 -1.8679 -1.2124  0.3740
12805TIP3   OH259829   0.464   0.588   1.372  0.0849 -0.3803 -0.4788
12805TIP3    H159830   0.462   0.522   1.302  0.0849  1.3983 -2.2075
12805TIP3    H259831   0.438   0.540   1.451  0.8146 -2.6084 -1.5460
12806TIP3   OH259832   1.833   2.178   4.455  0.0913  0.4906 -0.3948
12806TIP3    H159833   1.807   2.223   4.536  1.9402  0.1075  0.4364
12806TIP3    H259834   1.756   2.126   4.431 -0.6515  0.9800  0.8585
12807TIP3   OH259835   1.759   6.209   5.676  0.2276 -0.4877 -0.3851
12807TIP3    H159836   1.832   6.238   5.731  0.2006 -0.5357 -0.3230
12807TIP3    H259837   1.740   6.121   5.708 -0.3924 -0.1632  0.1430
12808TIP3   OH259838   6.112   3.981   5.592  0.7892  0.5711 -0.7233
12808TIP3    H159839   6.150   4.068   5.576  3.6134 -0.3531  0.7338
12808TIP3    H259840   6.140   3.958   5.680 -0.7051 -1.4603 -0.7422
12809TIP3   OH259841   6.693   2.341   2.224  0.3359 -0.4058  0.2141
12809TIP3    H159842   6.696   2.434   2.249 -1.4010 -0.1072 -0.5916
12809TIP3    H259843   6.753   2.298   2.285  1.6369  1.3280  0.2058
12810TIP3   OH259844   1.444   0.943   2.484  0.1451  0.3349  0.1236
12810TIP3    H159845   1.515   1.007   2.495 -0.4089  0.9140  0.3785
12810TIP3    H259846   1.404   0.966   2.400  0.0109  0.2631  0.1675
12811TIP3   OH259847   2.326   1.557  13.357  0.0240 -0.6429 -0.1248
12811TIP3    H159848   2.420   1.555  13.341 -0.1311  0.0634 -1.1250
12811TIP3    H259849   2.318   1.562  13.452  1.0026  0.1238 -0.0827
12812TIP3   OH259850   1.453   3.301  13.548 -0.0294  0.0995  0.1742
12812TIP3    H159851   1.420   3.304  13.638  0.8467  0.9664  0.4720
12812TIP3    H259852   1.374   3.303  13.493 -0.5605 -0.2833  0.9088
12813TIP3   OH259853   4.537   3.245   2.254 -0.4056  0.0109 -0.4295
12813TIP3    H159854   4.557   3.280   2.167  1.8083  1.7419  0.7121
12813TIP3    H259855   4.562   3.152   2.249 -1.2069 -0.1462 -1.8858
12814TIP3   OH259856   0.227   0.908   4.151  0.3572  0.0375 -0.0336
12814TIP3    H159857   0.142   0.882   4.188  0.2373 -1.1494 -1.0955
12814TIP3    H259858   0.218   1.001   4.133 -0.2793  0.1985  1.0348
12815TIP3   OH259859   1.303   3.097   4.013  0.0974 -0.5307 -0.5389
12815TIP3    H159860   1.242   3.070   4.082  0.9054 -1.3449 -0.1365
12815TIP3    H259861   1.371   3.146   4.059 -0.4013  0.6217 -1.0260
12816TIP3   OH259862   1.481   0.846  12.219 -0.1969 -0.4208  0.2546
12816TIP3    H159863   1.478   0.898  12.298 -2.8421 -0.1306 -0.0150
12816TIP3    H259864   1.417   0.776  12.233  0.6096 -1.4326 -0.9097
12817TIP3   OH259865   2.620   0.433  13.805  0.5559 -0.4941 -0.3498
12817TIP3    H159866   2.533   0.474  13.803  0.8251  0.0502 -1.3723
12817TIP3    H259867   2.680   0.506  13.820  0.9729 -0.6240 -1.3367
12818TIP3   OH259868   4.719   1.999  15.418 -0.0686  0.2511 -1.0034
12818TIP3    H159869   4.705   1.905  15.414 -0.4677  0.2624  0.0561
12818TIP3    H259870   4.635   2.036  15.444  0.1026  0.8986 -1.3318
12819TIP3   OH259871   4.761   5.701   0.723 -0.2202  0.3116  0.1398
12819TIP3    H159872   4.812   5.781   0.731 -2.5859  2.0291 -1.1663
12819TIP3    H259873   4.773   5.673   0.633 -1.3044  0.5695 -0.0981
12820TIP3   OH259874   2.995   6.369  17.056  0.2267 -0.1364  0.1151
12820TIP3    H159875   2.919   6.415  17.019  0.5929  1.5796  1.4110
12820TIP3    H259876   3.066   6.433  17.052  0.3914 -0.0261  3.2468
12821TIP3   OH259877   6.706   6.327   2.616  0.1185  0.0395 -0.0240
12821TIP3    H159878   6.648   6.332   2.540 -2.2006 -1.1373  1.6085
12821TIP3    H259879   6.670   6.390   2.678  0.1188 -1.2067  1.2826
12822TIP3   OH259880   6.454   1.625  13.751 -0.4273  0.3240  0.1055
12822TIP3    H159881   6.491   1.665  13.830  1.3161  1.2451 -1.1442
12822TIP3    H259882   6.427   1.538  13.779  0.0549  0.6735  1.7386
12823TIP3   OH259883   0.020   1.094   5.101 -0.4751  0.0731  0.0947
12823TIP3    H159884   0.097   1.088   5.044  0.0200  0.2854  0.7261
12823TIP3    H259885  -0.009   1.185   5.092 -0.9896 -0.1574 -0.5745
12824TIP3   OH259886   0.677   3.863   0.795  0.1451 -0.2845  0.4193
12824TIP3    H159887   0.656   3.919   0.720 -1.3620 -0.2995  0.8133
12824TIP3    H259888   0.626   3.783   0.780 -1.1542  0.2031  2.0748
12825TIP3   OH259889   3.635   3.170  15.303  0.0425  0.3166  0.2052
12825TIP3    H159890   3.614   3.098  15.363  0.5309  0.1948  0.2308
12825TIP3    H259891   3.617   3.134  15.216 -1.1064  0.6413  0.2937
12826TIP3   OH259892   4.930   3.769  13.882 -0.1862  0.0622  0.2328
12826TIP3    H159893   4.949   3.816  13.963  2.2589 -0.5535  0.0651
12826TIP3    H259894   4.967   3.825  13.813 -1.3865  0.1095 -0.3921
12827TIP3   OH259895   0.422   6.086   0.439 -0.3465 -0.9403 -0.4810
12827TIP3    H159896   0.409   6.033   0.518  1.9333 -3.2689 -1.6408
12827TIP3    H259897   0.493   6.146   0.462 -0.7814 -0.5160 -0.2333
12828TIP3   OH259898   5.768   5.479  16.707  0.1304  0.0900  0.1607
12828TIP3    H159899   5.800   5.400  16.749 -0.2776  0.8786  2.0272
12828TIP3    H259900   5.746   5.538  16.780 -3.3408  0.4310 -1.0402
12829TIP3   OH259901   1.046   1.685   3.171  0.5036  0.2952  0.0680
12829TIP3    H159902   1.008   1.649   3.091  1.2442 -0.1686 -0.0733
12829TIP3    H259903   1.113   1.622   3.197  0.5372  0.6442  0.8358
12830TIP3   OH259904   1.196   0.202  16.025 -0.5369 -0.4697 -0.2481
12830TIP3    H159905   1.137   0.276  16.005  0.8461  1.3873  2.3013
12830TIP3    H259906   1.184   0.142  15.951 -2.5343  1.7841 -1.8483
12831TIP3   OH259907   4.712   0.660  11.048  0.0615 -0.2777  0.0575
12831TIP3    H159908   4.794   0.640  11.004  0.1746  2.9765 -1.3678
12831TIP3    H259909   4.646   0.657  10.978 -0.6033 -0.1054  0.6665
12832TIP3   OH259910   0.573   3.197   3.996  0.0128 -0.2987  0.1475
12832TIP3    H159911   0.536   3.271   4.045 -0.0635 -0.7785  0.8204
12832TIP3    H259912   0.561   3.122   4.054 -1.2640 -1.1077 -1.1621
12833TIP3   OH259913   5.373   4.065   3.021 -0.2615 -0.8441 -0.8187
12833TIP3    H159914   5.350   4.124   3.093  0.2070 -2.0952  0.3889
12833TIP3    H259915   5.348   4.112   2.942  0.3988  1.0912  0.1076
12834TIP3   OH259916   6.732   4.134   5.428  0.0476 -0.6807 -0.0997
12834TIP3    H159917   6.813   4.154   5.381 -0.1954  1.7890  0.4672
12834TIP3    H259918   6.756   4.136   5.520  0.0475 -3.3804  0.0018
12835TIP3   OH259919   4.196   0.810  15.564  0.7334  0.3702 -0.4279
12835TIP3    H159920   4.101   0.799  15.566  0.5578  1.4811 -1.9501
12835TIP3    H259921   4.213   0.880  15.628  0.8325 -1.6897  1.8590
12836TIP3   OH259922   1.708   2.907   2.666  0.2090 -0.3119 -0.4522
12836TIP3    H159923   1.731   2.892   2.574 -0.7514  2.3698 -1.1905
12836TIP3    H259924   1.778   2.964   2.699 -1.5218  2.0631 -0.7197
12837TIP3   OH259925   2.645   2.923   0.858 -0.3164 -0.2305 -0.1726
12837TIP3    H159926   2.696   2.998   0.827  0.1923 -0.3607  0.3601
12837TIP3    H259927   2.698   2.847   0.836  0.0863 -0.3232  1.0758
12838TIP3   OH259928   2.618   5.579   0.932  0.8615 -0.7001 -0.4708
12838TIP3    H159929   2.691   5.553   0.988 -0.3228 -0.8730  1.0159
12838TIP3    H259930   2.553   5.510   0.945  0.0040  0.0067 -0.9889
12839TIP3   OH259931   0.149   5.107   0.538  0.2048 -1.0766 -0.1148
12839TIP3    H159932   0.207   5.087   0.612  0.3402 -1.6930 -0.3807
12839TIP3    H259933   0.208   5.135   0.468  0.0572 -0.2705  0.0855
12840TIP3   OH259934   4.543   4.182  11.391  0.0862  0.7978 -0.3870
12840TIP3    H159935   4.546   4.091  11.364 -1.4887 -0.2012  2.5409
12840TIP3    H259936   4.457   4.213  11.363 -0.3748  0.6339  0.8419
12841TIP3   OH259937   3.692   5.543   4.262  0.5365  0.4312 -0.0968
12841TIP3    H159938   3.668   5.450   4.260  0.3474  0.4645  0.6016
12841TIP3    H259939   3.707   5.562   4.355  1.1987  0.9413 -0.3003
12842TIP3   OH259940   1.337   6.766  15.441 -0.0065 -0.1928  0.6735
12842TIP3    H159941   1.360   6.677  15.415  1.2056 -0.1247  1.4340
12842TIP3    H259942   1.422   6.810  15.455 -0.5786  1.1901 -0.0634
12843TIP3   OH259943   1.969   4.972   2.865  0.1217  0.4742  0.0654
12843TIP3    H159944   1.891   4.926   2.836  0.5468 -0.2819  0.0932
12843TIP3    H259945   1.997   4.924   2.943  0.5180  0.8400  0.1505
12844TIP3   OH259946   0.398   1.275  14.219 -0.2644  0.3671  0.4839
12844TIP3    H159947   0.474   1.283  14.161 -1.4991 -1.5808 -1.4926
12844TIP3    H259948   0.328   1.321  14.174 -1.0928 -0.6916  0.6602
12845TIP3   OH259949   5.479   6.282  10.684  0.1975 -0.1857  0.4511
12845TIP3    H159950   5.409   6.221  10.661 -0.6671  1.0744 -0.3199
12845TIP3    H259951   5.462   6.304  10.776 -0.3120 -0.0236  0.3188
12846TIP3   OH259952   6.641   0.429  13.530 -0.2883  0.3884  0.3626
12846TIP3    H159953   6.619   0.516  13.563  0.7208  0.1142  1.7989
12846TIP3    H259954   6.571   0.409  13.467 -0.9212  1.9262  0.5515
12847TIP3   OH259955   0.514   5.723   2.209 -0.0711 -0.3669  0.3234
12847TIP3    H159956   0.437   5.700   2.157 -0.4370 -0.4678  0.9086
12847TIP3    H259957   0.541   5.641   2.251 -0.6995  0.0206  1.5075
12848TIP3   OH259958   0.359   5.904  16.804  0.3426 -0.1375  0.5756
12848TIP3    H159959   0.355   5.836  16.738  1.3115  0.9061 -0.5895
12848TIP3    H259960   0.346   5.858  16.887  0.4684 -1.6455 -0.2255
12849TIP3   OH259961   4.984   4.303  16.965 -0.3269 -0.1929  0.5698
12849TIP3    H159962   5.052   4.251  16.923 -0.5228  0.3005 -0.3642
12849TIP3    H259963   4.904   4.252  16.957  0.1607 -1.4220  2.8952
12850TIP3   OH259964   5.581   3.062  16.331 -0.0929  0.3067 -0.7543
12850TIP3    H159965   5.623   3.000  16.390  0.2163  1.0532 -0.1801
12850TIP3    H259966   5.496   3.023  16.312 -0.7606  0.6986  1.2708
12851TIP3   OH259967   5.045   2.726  15.847  0.0409 -0.2587 -0.2436
12851TIP3    H159968   5.031   2.660  15.915  0.4692 -1.1259 -0.9894
12851TIP3    H259969   5.021   2.809  15.889  0.6531 -0.7372  1.0861
12852TIP3   OH259970   5.370   5.344   1.277  0.8030 -0.0505  0.0364
12852TIP3    H159971   5.452   5.298   1.260  0.2791 -0.4185 -1.5675
12852TIP3    H259972   5.305   5.300   1.223 -0.4995  0.1545  1.3873
12853TIP3   OH259973   1.072   0.366  12.560 -0.1828 -0.7673 -0.1329
12853TIP3    H159974   1.077   0.399  12.471  0.3351 -0.3731  0.0456
12853TIP3    H259975   1.033   0.438  12.610 -0.5825 -1.0304 -0.0641
12854TIP3   OH259976   1.031   1.726  11.615 -0.3265  0.0546 -0.3638
12854TIP3    H159977   1.026   1.764  11.527  0.9979  0.6848 -0.1846
12854TIP3    H259978   0.940   1.721  11.644 -0.7113  0.6719 -1.4150
12855TIP3   OH259979   4.159   1.463  15.795  0.0979  0.0698  0.0177
12855TIP3    H159980   4.175   1.529  15.727 -0.3098 -0.3841 -0.5196
12855TIP3    H259981   4.082   1.494  15.841  0.0290  0.0739 -0.1007
12856TIP3   OH259982   6.284   4.738   0.199  0.2722 -0.2520 -0.2709
12856TIP3    H159983   6.241   4.656   0.173  0.9497 -1.3615  1.9874
12856TIP3    H259984   6.377   4.718   0.194  0.4938  1.0878 -1.8302
12857TIP3   OH259985   1.629   0.953  16.015 -0.2780 -0.0480  0.3677
12857TIP3    H159986   1.590   0.897  15.948 -2.2547 -2.2461  3.1922
12857TIP3    H259987   1.723   0.954  15.995 -0.7340 -1.1972 -1.9716
12858TIP3   OH259988   1.065   5.732   6.248 -0.2141  0.1411  0.3410
12858TIP3    H159989   1.116   5.655   6.271  0.9542 -0.3351 -3.3998
12858TIP3    H259990   1.128   5.804   6.249 -0.5537  0.4368  0.4978
12859TIP3   OH259991   1.878   6.460  16.921 -0.3950 -0.2666 -0.3324
12859TIP3    H159992   1.967   6.424  16.921 -0.6860 -1.0031 -0.6956
12859TIP3    H259993   1.890   6.554  16.934  0.4836 -0.2559 -1.1678
12860TIP3   OH259994   5.620   3.998  12.664  0.2349  0.1334  0.0956
12860TIP3    H159995   5.575   3.961  12.739  2.7403 -1.2107  0.9972
12860TIP3    H259996   5.620   4.093  12.680 -1.1349  0.0445  0.6726
12861TIP3   OH259997   4.722   0.015   2.830  0.5101  0.2136  0.2915
12861TIP3    H159998   4.790  -0.047   2.857  0.8602  0.5011  0.0758
12861TIP3    H259999   4.738   0.093   2.882 -0.5612 -0.2301  1.3109
12862TIP3   OH260000   4.487   0.521  15.203 -0.2558 -0.4184  0.4956
12862TIP3    H160001   4.452   0.449  15.255 -1.5120  1.1901  1.9503
12862TIP3    H260002   4.410   0.562  15.163  0.2914  1.0169  0.8881
12863TIP3   OH260003   5.214   2.945  13.239  0.2328 -0.2286  0.1857
12863TIP3    H160004   5.141   3.005  13.249 -0.1020 -0.5709 -0.2054
12863TIP3    H260005   5.186   2.882  13.173  0.9694 -0.2253 -0.1401
12864TIP3   OH260006   6.357   1.021   0.024  0.5453  0.6916 -0.0569
12864TIP3    H160007   6.353   0.927   0.045  2.1199  0.8461  1.0505
12864TIP3    H260008   6.339   1.064   0.108 -0.9073  1.3987 -0.7209
12865TIP3   OH260009   3.895   2.395   4.641 -0.1321 -0.1909 -0.8360
12865TIP3    H160010   3.911   2.368   4.731 -2.3268  0.5692 -0.1803
12865TIP3    H260011   3.886   2.313   4.593 -0.3209 -0.6175 -0.0852
12866TIP3   OH260012   3.798   4.411  12.995  0.0865 -0.3193  0.3914
12866TIP3    H160013   3.758   4.362  13.067  0.2078 -0.5312  0.3132
12866TIP3    H260014   3.810   4.499  13.030 -0.3986 -0.2708  0.4347
12867TIP3   OH260015   0.033   2.678   4.439  0.0264  0.6970  0.1859
12867TIP3    H160016  -0.009   2.597   4.466 -0.8972  1.5313  1.3009
12867TIP3    H260017   0.100   2.694   4.505  2.5078 -0.8847 -1.8499
12868TIP3   OH260018   6.620   1.645  14.748 -0.2088 -0.2101  0.1437
12868TIP3    H160019   6.710   1.674  14.734 -0.3700  0.3532  0.2319
12868TIP3    H260020   6.628   1.562  14.795  0.3159 -1.3621 -1.9008
12869TIP3   OH260021   0.766   3.434   1.934  0.3444 -0.1276  0.2692
12869TIP3    H160022   0.725   3.520   1.940 -0.9171 -0.7105  0.3838
12869TIP3    H260023   0.855   3.451   1.904  1.2841  1.5161  3.7150
12870TIP3   OH260024   0.242   0.282  17.230 -0.0254 -0.5913 -0.6132
12870TIP3    H160025   0.288   0.363  17.205  0.5885 -0.1416  1.8359
12870TIP3    H260026   0.149   0.304  17.224  0.1271  0.9572  1.9236
12871TIP3   OH260027   0.379   2.954  11.839 -0.0940 -0.0474  0.3091
12871TIP3    H160028   0.348   2.915  11.757  0.6017  1.6027 -0.7580
12871TIP3    H260029   0.474   2.947  11.835  0.0146  1.3085  0.3227
12872TIP3   OH260030   3.478   1.641   3.099 -0.2670  0.0078  0.4448
12872TIP3    H160031   3.431   1.679   3.173 -0.0534  0.7554  0.1987
12872TIP3    H260032   3.417   1.650   3.025 -1.2240 -2.3845  0.8830
12873TIP3   OH260033   3.649   5.437   5.052 -0.0064 -0.0688  0.6105
12873TIP3    H160034   3.718   5.491   5.091  0.8128 -0.2787 -0.5416
12873TIP3    H260035   3.683   5.347   5.058  0.3635 -0.0529 -1.0581
12874TIP3   OH260036   5.579   2.487  14.907  0.7639  0.4529 -0.5108
12874TIP3    H160037   5.597   2.543  14.983  1.1561  1.5761 -1.4041
12874TIP3    H260038   5.509   2.429  14.935  0.4099  1.3527  0.4776
12875TIP3   OH260039   2.530   3.890   5.865  0.3598 -0.1867 -0.2049
12875TIP3    H160040   2.580   3.893   5.947  1.0793  1.3666 -0.6940
12875TIP3    H260041   2.477   3.970   5.866 -0.0390 -0.4359 -1.0092
12876TIP3   OH260042   0.093   5.637   2.562  0.2130 -0.0131 -0.5561
12876TIP3    H160043   0.043   5.598   2.491  1.0302 -2.2950  0.0675
12876TIP3    H260044   0.053   5.602   2.642 -0.9813  2.8601  0.1570
12877TIP3   OH260045   0.228   3.076   4.039  0.5306 -1.0112 -0.2547
12877TIP3    H160046   0.204   2.987   4.065  0.9620 -0.7089  1.2156
12877TIP3    H260047   0.173   3.132   4.093  2.0091 -0.3579  0.5841
12878TIP3   OH260048   1.300   0.591   0.299 -0.0126 -0.8522  0.0165
12878TIP3    H160049   1.374   0.651   0.307 -0.1072 -0.7652  0.2571
12878TIP3    H260050   1.226   0.647   0.274 -0.3153 -0.7131  1.1688
12879TIP3   OH260051   6.139   1.003  16.977 -0.5446 -0.1365  0.4458
12879TIP3    H160052   6.057   0.998  17.025 -1.2885  0.2208 -0.7712
12879TIP3    H260053   6.116   1.042  16.893  0.4615 -2.0888 -0.8010
12880TIP3   OH260054   5.231   2.283   5.809 -0.1165 -0.0726 -0.6349
12880TIP3    H160055   5.292   2.309   5.739 -0.7622  1.1718 -0.7468
12880TIP3    H260056   5.228   2.187   5.804  1.3603 -0.1065 -1.0235
12881TIP3   OH260057   5.185   2.190  14.645 -0.8164 -0.5248 -0.3268
12881TIP3    H160058   5.167   2.221  14.556  0.2406  0.3022 -0.2596
12881TIP3    H260059   5.124   2.239  14.700  0.2125  0.7690 -0.3274
12882TIP3   OH260060   4.581   1.735  17.139  0.0717  0.0412  0.0050
12882TIP3    H160061   4.624   1.811  17.099  1.7134 -0.4536  0.7793
12882TIP3    H260062   4.604   1.741  17.232 -0.7972 -0.7339  0.2733
12883TIP3   OH260063   4.489   1.852   5.401 -0.2214 -0.1158 -0.5401
12883TIP3    H160064   4.525   1.933   5.435  0.7149 -0.9172  0.3813
12883TIP3    H260065   4.541   1.833   5.323  0.4025 -0.5060 -0.0297
12884TIP3   OH260066   4.105   6.785  15.867 -0.7240  0.2179 -0.6335
12884TIP3    H160067   4.127   6.875  15.890  0.9451 -0.6143  1.1922
12884TIP3    H260068   4.067   6.748  15.947 -0.6147 -0.9362 -1.1026
12885TIP3   OH260069   4.908   0.389  16.585  0.0662 -0.2166 -0.1987
12885TIP3    H160070   4.923   0.433  16.501  0.2863 -0.2751 -0.1892
12885TIP3    H260071   4.898   0.461  16.648  0.4335 -0.1800 -0.1812
12886TIP3   OH260072   1.005   0.549   6.426  0.0789  0.1000 -0.6713
12886TIP3    H160073   0.933   0.585   6.374 -0.0347  0.8471 -0.0080
12886TIP3    H260074   0.966   0.530   6.511  0.7630  0.9410 -0.1574
12887TIP3   OH260075   1.552   1.934  11.865 -0.5574 -0.2676  0.5069
12887TIP3    H160076   1.531   2.024  11.841  0.8606  0.3772  1.6404
12887TIP3    H260077   1.637   1.916  11.824 -0.7194 -1.0182  0.4788
12888TIP3   OH260078   1.021   0.416  11.492  0.6545  0.1762  0.1278
12888TIP3    H160079   1.093   0.359  11.463 -0.1984 -1.2584  0.8039
12888TIP3    H260080   0.945   0.385  11.443  0.1771  0.7398  0.5094
12889TIP3   OH260081   5.523   5.024  16.587  0.7941  0.2642 -0.4183
12889TIP3    H160082   5.549   4.934  16.606  1.1771 -0.2177 -3.0082
12889TIP3    H260083   5.428   5.025  16.599  0.9007 -0.2229  0.5354
12890TIP3   OH260084   1.368   6.132   5.821  0.0388 -0.1145  0.3690
12890TIP3    H160085   1.342   6.076   5.894  2.7029 -2.4284 -0.3810
12890TIP3    H260086   1.433   6.192   5.859 -1.5029  1.3562  0.7595
12891TIP3   OH260087   2.684   0.658  12.375 -0.1973  0.2586 -0.2800
12891TIP3    H160088   2.662   0.565  12.366  0.6948 -0.0986  1.0796
12891TIP3    H260089   2.713   0.667  12.466  1.8780  1.3989 -1.0292
12892TIP3   OH260090   6.705   1.099  17.230 -0.2666  0.1482 -0.3026
12892TIP3    H160091   6.742   1.186  17.211 -0.1194 -0.2676 -2.0075
12892TIP3    H260092   6.688   1.061  17.144  0.0740 -1.6922  0.4180
12893TIP3   OH260093   2.033   4.984   3.878  0.4110 -0.0212  0.1297
12893TIP3    H160094   2.079   5.063   3.850 -0.1284  0.1308 -0.3416
12893TIP3    H260095   2.071   4.963   3.964  1.4774 -0.0040 -0.3294
12894TIP3   OH260096   5.044   3.318   4.993  0.1031  0.5796  0.5560
12894TIP3    H160097   4.949   3.313   4.980 -0.0175  2.7901  0.3426
12894TIP3    H260098   5.058   3.403   5.035  2.2016  1.4370 -1.7185
12895TIP3   OH260099   1.604   4.892   0.909 -0.2111  0.0559 -0.1597
12895TIP3    H160100   1.641   4.884   0.821  0.4979 -2.1670  0.3101
12895TIP3    H260101   1.512   4.913   0.894 -0.0793 -0.2429 -1.4435
12896TIP3   OH260102   2.390   2.986   0.952 -1.0971  0.0969  0.1265
12896TIP3    H160103   2.373   2.936   1.032 -0.8443  1.8136  1.2778
12896TIP3    H260104   2.452   2.931   0.903 -2.9379 -1.9843  0.0663
12897TIP3   OH260105   4.547   0.021  14.936  0.4413 -0.3744  0.6891
12897TIP3    H160106   4.464  -0.016  14.966 -0.1426  0.6772  0.4237
12897TIP3    H260107   4.571   0.084  15.004  0.8344 -0.4077  0.5812
12898TIP3   OH260108   4.321   3.379  16.309  0.0221 -0.8626  0.4425
12898TIP3    H160109   4.353   3.430  16.383  0.5044 -1.6405  0.7774
12898TIP3    H260110   4.389   3.314  16.293 -0.0851 -0.7037 -0.6828
12899TIP3   OH260111   2.231   0.447  14.004 -0.0816 -0.2837 -0.1066
12899TIP3    H160112   2.227   0.432  14.099  1.0356  0.1174  0.0081
12899TIP3    H260113   2.170   0.382  13.968  2.0403 -2.8046  0.6528
12900TIP3   OH260114   5.791   3.431   5.425  0.2376  0.3214  0.4756
12900TIP3    H160115   5.718   3.440   5.363 -0.8798 -1.5768  1.4784
12900TIP3    H260116   5.859   3.487   5.389 -0.5034 -0.4908 -2.3350
12901TIP3   OH260117   4.465   2.704  16.813  0.1000 -0.6983  0.0587
12901TIP3    H160118   4.445   2.671  16.900  0.6066 -0.3402  0.3192
12901TIP3    H260119   4.501   2.629  16.766 -0.4814 -0.9718  0.0563
12902TIP3   OH260120   0.355   1.562  13.453 -0.1518  0.7388  0.2935
12902TIP3    H160121   0.450   1.550  13.442 -0.0788  0.7888  0.8557
12902TIP3    H260122   0.324   1.587  13.366  0.6637  2.7328  0.5446
12903TIP3   OH260123   4.458   4.606  13.737  0.3388  0.2757 -0.3197
12903TIP3    H160124   4.363   4.620  13.736  0.2612  0.1371  2.2873
12903TIP3    H260125   4.491   4.664  13.668 -1.5952  0.5455 -1.0689
12904TIP3   OH260126   5.727   0.570  17.170  0.3349  0.2183  0.5776
12904TIP3    H160127   5.769   0.573  17.084 -0.5201  3.2727  0.2112
12904TIP3    H260128   5.797   0.597  17.231  0.6028 -0.7790  0.7259
12905TIP3   OH260129   1.368   0.505   1.433  0.2034  0.1754 -0.7798
12905TIP3    H160130   1.457   0.515   1.399  0.9157 -0.8399  0.7261
12905TIP3    H260131   1.337   0.422   1.396  1.4905 -1.6350  2.0410
12906TIP3   OH260132   4.479   0.865  12.912  0.2029  0.5478 -0.0259
12906TIP3    H160133   4.511   0.899  12.996 -1.1006  2.3804 -0.2367
12906TIP3    H260134   4.552   0.814  12.877  0.3091 -1.2571  2.7754
12907TIP3   OH260135   5.838   5.525   3.725  0.0119 -0.1508  0.5951
12907TIP3    H160136   5.902   5.533   3.796  0.6864  0.6005 -0.0810
12907TIP3    H260137   5.757   5.499   3.769  0.4729  0.0898  1.6170
12908TIP3   OH260138   1.338   0.895  13.349 -0.1002 -0.7094 -0.0973
12908TIP3    H160139   1.359   0.929  13.262 -0.1793 -0.7709 -0.1401
12908TIP3    H260140   1.254   0.851  13.337 -1.2832  1.3107  0.5134
12909TIP3   OH260141   3.011   4.610   2.814  0.4768  0.0260 -0.3442
12909TIP3    H160142   3.107   4.607   2.814  0.6127  2.7390 -0.6377
12909TIP3    H260143   2.989   4.640   2.902  0.0423  1.7853 -1.0310
12910TIP3   OH260144   6.364   0.160  12.737  0.3998  0.0157 -0.3014
12910TIP3    H160145   6.324   0.187  12.820  0.6149  0.2958 -0.2862
12910TIP3    H260146   6.425   0.231  12.716 -0.2231  0.3209 -1.0925
12911TIP3   OH260147   5.633   2.741   3.600 -0.0872 -0.4960 -0.3296
12911TIP3    H160148   5.640   2.832   3.627  0.1935 -0.3382 -0.9433
12911TIP3    H260149   5.640   2.743   3.505 -0.7048 -1.0933 -0.3943
12912TIP3   OH260150   3.099   4.867   1.212 -0.6382 -0.0178 -0.0138
12912TIP3    H160151   3.146   4.863   1.295 -0.8300 -0.1098  0.0917
12912TIP3    H260152   3.156   4.917   1.154  0.4894 -1.7709 -0.4791
12913TIP3   OH260153   1.829   3.780  15.098  0.3366  0.3335  0.4939
12913TIP3    H160154   1.808   3.712  15.162  0.6023  1.2738  1.6026
12913TIP3    H260155   1.918   3.758  15.069 -0.3747 -0.9914 -0.7408
12914TIP3   OH260156   4.283   3.322  17.037  0.0394 -0.0498  0.0092
12914TIP3    H160157   4.280   3.235  17.077  3.2716 -0.5708 -0.7081
12914TIP3    H260158   4.349   3.370  17.087 -0.1214  1.2388 -0.9752
12915TIP3   OH260159   4.839   6.037  13.432  0.5112  0.1862  0.2638
12915TIP3    H160160   4.850   6.065  13.341 -0.1035 -1.2565 -0.2705
12915TIP3    H260161   4.799   6.112  13.475  0.2745  0.6815 -0.7881
12916TIP3   OH260162   4.273   4.113   4.099 -0.1590  0.6623  0.4646
12916TIP3    H160163   4.205   4.156   4.047 -0.5020 -0.2341  0.1736
12916TIP3    H260164   4.327   4.068   4.035 -0.8120 -0.7665  0.9124
12917TIP3   OH260165   3.768   6.374   1.066  0.2641 -0.1016 -0.5537
12917TIP3    H160166   3.844   6.344   1.016  0.7410  1.3160 -0.7065
12917TIP3    H260167   3.805   6.425   1.137 -0.4144 -2.0806  1.2889
12918TIP3   OH260168   0.137   5.355  14.562  0.1026 -0.2833  0.4648
12918TIP3    H160169   0.144   5.264  14.591 -1.4436 -1.2572 -2.0731
12918TIP3    H260170   0.228   5.387  14.563  0.6722 -1.8761  1.2863
12919TIP3   OH260171   0.573   3.124  17.067  0.0181 -0.4672 -0.0908
12919TIP3    H160172   0.493   3.080  17.039  0.2689  0.2646 -1.9833
12919TIP3    H260173   0.570   3.119  17.163 -1.4854 -1.8522 -0.1849
12920TIP3   OH260174   6.290   1.054   4.921  0.0826  0.4700  0.3268
12920TIP3    H160175   6.227   1.030   4.990  0.8478 -0.1691  0.8113
12920TIP3    H260176   6.374   1.022   4.953  0.3490 -0.4385 -1.2198
12921TIP3   OH260177   6.209   5.590  11.266  0.0867 -0.5094 -0.2913
12921TIP3    H160178   6.186   5.523  11.201 -1.2648  0.7146 -1.1228
12921TIP3    H260179   6.139   5.585  11.331 -0.1920  0.2968 -0.5215
12922TIP3   OH260180   1.281   1.784   3.567  0.3513  0.3635  0.4398
12922TIP3    H160181   1.310   1.777   3.476 -0.8470 -2.8530  0.2554
12922TIP3    H260182   1.361   1.798   3.617  1.3525 -0.6770 -0.8297
12923TIP3   OH260183   5.774   6.023   2.921  0.0101 -0.1650 -0.0288
12923TIP3    H160184   5.735   5.942   2.889 -0.6798  1.3453 -3.1788
12923TIP3    H260185   5.783   6.078   2.843 -0.2231  3.0650  2.1174
12924TIP3   OH260186   1.852   1.113  14.400  0.4146 -0.1008 -0.1817
12924TIP3    H160187   1.843   1.030  14.352  1.4690 -0.2749 -0.0766
12924TIP3    H260188   1.905   1.091  14.476 -1.3306  0.1642  1.1422
12925TIP3   OH260189   1.390   2.451  12.092 -0.4772 -0.9151 -0.3274
12925TIP3    H160190   1.350   2.372  12.055  0.2379 -1.7174  0.5693
12925TIP3    H260191   1.484   2.440  12.076 -0.2288 -0.9515  1.0699
12926TIP3   OH260192   0.476   1.063  12.611 -0.1330 -0.4877  0.5179
12926TIP3    H160193   0.416   1.014  12.668 -0.5457  0.3169  0.8010
12926TIP3    H260194   0.538   1.104  12.672 -1.3059  1.3719  0.5337
12927TIP3   OH260195   6.430   2.342   0.870 -0.0474  0.1067  0.0490
12927TIP3    H160196   6.451   2.435   0.860  0.5362  0.0252  0.5331
12927TIP3    H260197   6.470   2.300   0.794  1.3062 -0.0076  0.8066
12928TIP3   OH260198   1.780   6.321  16.398 -0.8928 -0.0199  0.0570
12928TIP3    H160199   1.722   6.397  16.397 -0.2291  0.4951  0.0365
12928TIP3    H260200   1.856   6.348  16.346 -0.1346 -0.2932  1.0110
12929TIP3   OH260201   0.713   1.048  16.683 -0.2099 -0.1165 -0.5877
12929TIP3    H160202   0.686   1.139  16.691 -1.6626 -0.4451 -1.5058
12929TIP3    H260203   0.784   1.038  16.746 -0.0798  1.6251 -0.4387
12930TIP3   OH260204   6.639   0.622   2.988  0.3602  0.4959  0.2457
12930TIP3    H160205   6.568   0.670   3.030  0.1485  0.1248  0.3141
12930TIP3    H260206   6.714   0.634   3.045 -0.1749 -0.8342  1.2545
12931TIP3   OH260207   6.624   6.316  15.800 -0.0175 -0.2818  0.1281
12931TIP3    H160208   6.664   6.402  15.788 -1.0830 -0.1024 -2.4255
12931TIP3    H260209   6.540   6.335  15.841 -0.3550 -0.0616 -0.6487
12932TIP3   OH260210   0.749   5.208   4.913 -0.1376 -0.2305  0.3705
12932TIP3    H160211   0.843   5.212   4.899 -0.3402  2.7477 -0.5289
12932TIP3    H260212   0.725   5.297   4.940 -2.9672 -0.4284 -1.2892
12933TIP3   OH260213   0.204   0.845   2.695 -0.2364  0.0307  0.4881
12933TIP3    H160214   0.166   0.839   2.782 -1.3718  0.3676  0.0260
12933TIP3    H260215   0.141   0.798   2.639  1.7807 -2.4849  0.2499
12934TIP3   OH260216   1.012   6.149  10.345  0.2187 -0.0374 -0.5599
12934TIP3    H160217   1.079   6.081  10.352 -1.5680 -1.8088  0.1457
12934TIP3    H260218   0.961   6.124  10.267  1.0282  1.9042 -1.7349
12935TIP3   OH260219   5.809   2.040   5.294 -0.1118 -0.3304 -0.2735
12935TIP3    H160220   5.814   2.038   5.390  1.5028  1.7130 -0.3043
12935TIP3    H260221   5.734   2.097   5.276  0.3974  0.3516 -0.2396
12936TIP3   OH260222   3.311   3.103  13.892  0.5775 -0.6785  0.2692
12936TIP3    H160223   3.267   3.028  13.932 -1.0559 -0.0705 -0.3356
12936TIP3    H260224   3.258   3.124  13.815  1.4653  0.5965 -0.0162
12937TIP3   OH260225   3.401   4.256  14.801 -0.0027  0.3290  0.4755
12937TIP3    H160226   3.439   4.243  14.888  1.6245 -0.7593 -0.3737
12937TIP3    H260227   3.391   4.167  14.767  2.4256  0.8435 -1.7200
12938TIP3   OH260228   5.039   1.455   6.325 -0.4871  0.3278  0.4703
12938TIP3    H160229   5.078   1.487   6.244  0.5479 -1.2354  0.3345
12938TIP3    H260230   5.015   1.365   6.307 -0.0207 -0.1171  1.9888
12939TIP3   OH260231   1.184   5.229   2.865  0.4156 -0.5132 -0.3225
12939TIP3    H160232   1.145   5.146   2.894  1.2748 -1.1092 -0.8577
12939TIP3    H260233   1.227   5.264   2.943  1.0737 -1.1692 -0.3818
12940TIP3   OH260234   4.799   4.427   5.544  0.1652  0.2115  0.4619
12940TIP3    H160235   4.757   4.366   5.605  0.2213  1.4506  1.7772
12940TIP3    H260236   4.761   4.512   5.566  0.4787  0.7431 -0.9874
12941TIP3   OH260237   6.709   6.475   4.895 -0.5366  0.4466 -0.5925
12941TIP3    H160238   6.704   6.381   4.912 -0.4996  0.5654  0.0814
12941TIP3    H260239   6.628   6.495   4.847 -0.2422 -0.0401 -1.3088
12942TIP3   OH260240   1.441   6.101   0.814  0.2331  0.2978 -0.5271
12942TIP3    H160241   1.510   6.124   0.875 -0.9876  1.9108  0.3049
12942TIP3    H260242   1.406   6.186   0.785 -0.8677 -0.4790 -1.5333
12943TIP3   OH260243   6.279   6.232  10.954 -0.4614  0.2706 -0.0309
12943TIP3    H160244   6.338   6.174  11.002  0.1019 -1.6929 -2.9439
12943TIP3    H260245   6.324   6.316  10.951  0.7937 -0.3793  0.4133
12944TIP3   OH260246   3.306   5.541   4.686 -0.0809 -0.0667  0.0507
12944TIP3    H160247   3.367   5.479   4.725  0.3773 -1.5316 -2.9003
12944TIP3    H260248   3.310   5.524   4.592 -1.7937  2.7705 -0.6062
12945TIP3   OH260249   4.103   3.509  14.822 -0.1734 -0.1117 -0.4392
12945TIP3    H160250   4.009   3.522  14.838 -0.3051  0.3336 -1.4693
12945TIP3    H260251   4.106   3.437  14.759  0.1543  0.1471 -0.7185
12946TIP3   OH260252   0.759   3.922   4.880  0.2148  0.0571  0.1468
12946TIP3    H160253   0.775   3.860   4.951  0.8111 -0.7682 -0.6894
12946TIP3    H260254   0.680   3.969   4.906  0.4146 -0.2404  1.3454
12947TIP3   OH260255   3.814   4.986  14.191  0.4179 -0.0520 -0.0115
12947TIP3    H160256   3.747   5.054  14.189  0.0880 -0.3914 -1.6447
12947TIP3    H260257   3.808   4.949  14.279  0.9869  2.3802  1.1014
12948TIP3   OH260258   1.793   2.425   6.598  0.2575  0.1968  0.4774
12948TIP3    H160259   1.797   2.499   6.537  2.4635  0.1137  0.4720
12948TIP3    H260260   1.858   2.446   6.665 -0.0015 -1.1401  1.1633
12949TIP3   OH260261   3.339   5.605   0.461  0.3110  0.6823  0.2620
12949TIP3    H160262   3.424   5.570   0.489 -0.2475 -2.0523 -1.2290
12949TIP3    H260263   3.290   5.528   0.431 -2.0805  2.4232 -0.5103
12950TIP3   OH260264   3.553   0.548  17.106  0.2266  0.0987  0.1147
12950TIP3    H160265   3.623   0.496  17.145  0.0820  0.0664  0.3301
12950TIP3    H260266   3.474   0.519  17.151 -0.1139 -0.8269 -1.0543
12951TIP3   OH260267   5.716   2.415   5.498 -0.2879 -0.2892  0.0294
12951TIP3    H160268   5.644   2.408   5.435 -1.0101  2.3697  0.4983
12951TIP3    H260269   5.794   2.424   5.444 -0.4779 -1.6432 -0.4823
12952TIP3   OH260270   0.294   4.284  16.257  0.2844 -0.4013 -0.3472
12952TIP3    H160271   0.344   4.281  16.175  1.6783  0.8949  0.4357
12952TIP3    H260272   0.209   4.247  16.234  0.9093 -0.7621 -2.2003
12953TIP3   OH260273   4.106   1.515   4.459  0.3903 -0.1770 -0.0336
12953TIP3    H160274   4.114   1.421   4.474 -1.4918 -0.2109  1.0169
12953TIP3    H260275   4.038   1.523   4.393  1.4531  0.4044 -1.0621
12954TIP3   OH260276   1.812   6.096  12.620  0.4325  0.6932 -0.2661
12954TIP3    H160277   1.719   6.097  12.595 -0.8473 -0.9364  4.0482
12954TIP3    H260278   1.819   6.166  12.685  1.9747  0.0746  0.2426
12955TIP3   OH260279   2.619   1.249  15.157  1.2588  0.2862  0.1987
12955TIP3    H160280   2.633   1.177  15.219 -0.2453  1.3014  1.7439
12955TIP3    H260281   2.708   1.273  15.129  1.8832 -1.0067  1.0052
12956TIP3   OH260282   4.693   2.543  11.511 -0.3105  0.7868 -0.4797
12956TIP3    H160283   4.623   2.555  11.447 -0.0588  0.6557 -0.7807
12956TIP3    H260284   4.665   2.468  11.563 -1.3562  1.9708  0.6961
12957TIP3   OH260285   0.334   1.649  14.887 -0.5912 -0.1258  0.0557
12957TIP3    H160286   0.331   1.555  14.869  0.3267 -0.1506 -0.0130
12957TIP3    H260287   0.332   1.655  14.982  0.3590 -0.2638  0.0869
12958TIP3   OH260288   4.129   1.462   2.107 -0.1397  0.0831  0.0623
12958TIP3    H160289   4.157   1.462   2.198  1.0572  0.6099 -0.3016
12958TIP3    H260290   4.060   1.396   2.103  0.4705 -0.6297  1.1393
12959TIP3   OH260291   3.143   3.235   0.180  0.2882 -0.4956  0.4840
12959TIP3    H160292   3.190   3.281   0.110 -1.5586 -0.3299 -0.6703
12959TIP3    H260293   3.212   3.189   0.228  1.3544 -2.9252 -3.1601
12960TIP3   OH260294   4.073   5.777   1.769  0.2892  0.5862 -0.4233
12960TIP3    H160295   4.146   5.791   1.829 -0.2553  1.0761  0.1390
12960TIP3    H260296   4.049   5.685   1.782  1.6613  0.0469 -1.6013
12961TIP3   OH260297   5.106   3.174   0.882 -0.1599  0.1627 -0.0160
12961TIP3    H160298   5.054   3.218   0.949 -1.6731 -1.5455 -0.0427
12961TIP3    H260299   5.197   3.193   0.907 -0.6770 -1.0701  2.9744
12962TIP3   OH260300   4.762   3.042   2.557  0.7003 -0.7140 -0.2837
12962TIP3    H160301   4.696   2.988   2.512  0.4062  0.1423 -0.8845
12962TIP3    H260302   4.845   3.013   2.519  0.3975  0.5535 -1.9886
12963TIP3   OH260303   1.680   4.159   1.289 -0.1446  0.5491 -0.3279
12963TIP3    H160304   1.682   4.157   1.384 -0.9282  1.2065 -0.2891
12963TIP3    H260305   1.740   4.089   1.262 -1.3951 -0.9518  0.6498
12964TIP3   OH260306   5.081   3.286  16.112  0.6115  0.1916 -0.1918
12964TIP3    H160307   5.096   3.323  16.025 -1.0320  0.7805 -0.2485
12964TIP3    H260308   5.048   3.198  16.096 -1.3754  0.9304 -0.2216
12965TIP3   OH260309   1.071   4.775  14.400  0.0439 -0.2822 -0.4216
12965TIP3    H160310   1.038   4.769  14.310  0.5971 -1.0783 -0.5858
12965TIP3    H260311   1.121   4.856  14.401 -3.4197  1.9325  0.3728
12966TIP3   OH260312   0.735   0.426   3.504 -0.5771 -0.3790 -0.1619
12966TIP3    H160313   0.769   0.337   3.514  0.4847  0.0681  0.2352
12966TIP3    H260314   0.640   0.416   3.510 -0.4501 -1.4443  0.1726
12967TIP3   OH260315   2.997   3.864  17.127 -0.3215 -0.1828  0.1793
12967TIP3    H160316   2.956   3.873  17.041 -0.5759 -0.4522  0.2764
12967TIP3    H260317   3.062   3.795  17.116  1.0939  1.2049 -0.3390
12968TIP3   OH260318   6.716   6.176  13.902 -0.0789  0.2580  0.6132
12968TIP3    H160319   6.662   6.228  13.962 -0.3253  1.6366 -0.7521
12968TIP3    H260320   6.789   6.146  13.956 -0.6400  0.9159  1.7684
12969TIP3   OH260321   2.313   1.093   3.332 -0.0069 -0.0691 -0.2581
12969TIP3    H160322   2.353   1.150   3.266  2.6691  0.7213  1.9702
12969TIP3    H260323   2.264   1.153   3.388 -1.1189 -0.5893 -0.6378
12970TIP3   OH260324   4.751   5.871   3.975  0.0161  0.1546 -0.1413
12970TIP3    H160325   4.674   5.867   3.920 -0.5723  1.4098  0.5628
12970TIP3    H260326   4.729   5.934   4.043  1.9441  1.1381 -0.3847
12971TIP3   OH260327   5.858   4.354   1.410  0.5359  0.0531  0.3874
12971TIP3    H160328   5.811   4.272   1.423 -0.8445  1.1916  3.0032
12971TIP3    H260329   5.795   4.421   1.437  1.7054  1.9831 -1.5162
12972TIP3   OH260330   0.383   5.601  15.546 -0.3575  0.8977 -0.4029
12972TIP3    H160331   0.435   5.524  15.567 -1.4038 -0.0646 -1.2308
12972TIP3    H260332   0.390   5.657  15.623 -1.4869 -1.0740  1.1855
12973TIP3   OH260333   0.359   6.570  14.676  0.4818 -0.2035 -0.2338
12973TIP3    H160334   0.275   6.615  14.684  0.7209  0.0209  1.3340
12973TIP3    H260335   0.424   6.640  14.677  0.8166 -0.5093  1.4923
12974TIP3   OH260336   6.743   5.620   1.687 -0.4296  0.4384  0.0604
12974TIP3    H160337   6.750   5.715   1.679 -1.4530  0.3680 -2.0939
12974TIP3    H260338   6.831   5.592   1.715 -0.2733  2.0421  1.2650
12975TIP3   OH260339   3.913   4.811  15.836  0.1549  0.5839  0.4637
12975TIP3    H160340   3.987   4.753  15.852 -0.9690 -0.5710  1.6084
12975TIP3    H260341   3.898   4.856  15.919 -2.5648 -1.7609  1.3374
12976TIP3   OH260342   2.659   5.986  16.923 -0.3450 -0.3806  0.2476
12976TIP3    H160343   2.749   5.984  16.956 -0.1763 -1.2645 -0.2429
12976TIP3    H260344   2.618   5.909  16.964 -0.1474 -1.4725 -1.5359
12977TIP3   OH260345   6.538   1.358  13.668  0.1292 -0.0065  0.2656
12977TIP3    H160346   6.620   1.309  13.662 -0.4472 -1.3020  2.3373
12977TIP3    H260347   6.565   1.450  13.659  1.7056 -0.4639  0.0982
12978TIP3   OH260348   3.545   2.260  13.215  0.2650  0.6546  0.3725
12978TIP3    H160349   3.469   2.246  13.271  0.0691  1.7191  0.3760
12978TIP3    H260350   3.561   2.354  13.219  0.9531  0.5783 -0.4531
12979TIP3   OH260351   0.074   3.823   2.129  0.0038  0.4798 -0.1304
12979TIP3    H160352   0.020   3.895   2.163  0.2712  0.2110  0.8758
12979TIP3    H260353   0.087   3.765   2.204  2.4633  0.9957 -0.1197
12980TIP3   OH260354   1.565   6.142  16.012  0.0659 -0.2035 -0.4383
12980TIP3    H160355   1.656   6.134  16.041 -0.3018 -0.9130  0.5493
12980TIP3    H260356   1.563   6.099  15.927  0.6936 -0.0375 -0.5400
12981TIP3   OH260357   3.121   5.731   4.527 -0.4465 -0.6082 -0.0342
12981TIP3    H160358   3.213   5.705   4.526  0.0883  1.2197 -0.1482
12981TIP3    H260359   3.108   5.775   4.611 -1.4232 -1.5460  0.3205
12982TIP3   OH260360   3.563   1.342  14.661 -0.5440  0.3072  0.3561
12982TIP3    H160361   3.642   1.395  14.647 -0.6416  0.2631 -0.3842
12982TIP3    H260362   3.498   1.405  14.694 -0.3526  0.4405  0.4823
12983TIP3   OH260363   2.285   4.479   5.306 -0.2501 -0.8075  0.5795
12983TIP3    H160364   2.251   4.547   5.363  2.3208  2.8257 -1.9484
12983TIP3    H260365   2.351   4.433   5.358  1.8244  2.2313  0.7317
12984TIP3   OH260366   2.084   6.756   1.908 -0.3175 -0.5219 -0.1634
12984TIP3    H160367   2.099   6.848   1.932 -5.8537 -0.5768  4.4179
12984TIP3    H260368   2.038   6.760   1.824 -0.4598  0.8241 -0.0341
12985TIP3   OH260369   0.795   0.392   5.223 -0.2557  0.1585  0.5416
12985TIP3    H160370   0.731   0.441   5.172  2.1015  0.4189 -2.3125
12985TIP3    H260371   0.840   0.458   5.275  0.9232  0.6562 -1.0815
12986TIP3   OH260372   6.221   1.554   1.544  0.1469 -0.0071 -0.1906
12986TIP3    H160373   6.277   1.494   1.594 -0.1783 -1.2308 -1.2470
12986TIP3    H260374   6.266   1.638   1.548  1.9231 -0.9028 -0.7849
12987TIP3   OH260375   0.639   4.050  15.498 -0.0209 -0.0286 -0.1085
12987TIP3    H160376   0.551   4.071  15.469  0.4508  3.0859  0.6169
12987TIP3    H260377   0.631   3.962  15.535 -2.4178 -0.5074 -1.6689
12988TIP3   OH260378   5.473   4.879  14.498 -0.0628 -0.4617 -0.1442
12988TIP3    H160379   5.379   4.877  14.479  0.2426 -0.0724 -1.7190
12988TIP3    H260380   5.485   4.812  14.566 -1.4255 -0.7604 -0.1880
12989TIP3   OH260381   0.244   1.688  13.221 -0.2064 -0.1915  0.4052
12989TIP3    H160382   0.185   1.762  13.203  2.0760  1.9037  1.1794
12989TIP3    H260383   0.288   1.672  13.137 -0.7130 -0.6982  0.2333
12990TIP3   OH260384   1.612   2.078   6.229 -0.3732 -0.7927  0.3098
12990TIP3    H160385   1.680   2.052   6.167 -1.2437 -1.5835 -0.3055
12990TIP3    H260386   1.657   2.136   6.290  0.6206 -0.4681 -0.7204
12991TIP3   OH260387   1.747   0.340   5.408  0.3325 -0.5518  0.3466
12991TIP3    H160388   1.785   0.333   5.321 -0.0758  2.2202 -0.0950
12991TIP3    H260389   1.658   0.372   5.394  0.0892 -0.5598  1.7429
12992TIP3   OH260390   5.610   3.425   3.443 -0.6253 -0.0608  0.5880
12992TIP3    H160391   5.656   3.357   3.394  0.3534  0.4798  0.7355
12992TIP3    H260392   5.542   3.456   3.384  0.1408  0.1434 -0.1838
12993TIP3   OH260393   3.128   1.352  14.472  0.5660  0.4034 -0.0178
12993TIP3    H160394   3.075   1.419  14.428 -0.3973  0.5839  1.4079
12993TIP3    H260395   3.073   1.274  14.473  1.8154 -0.5583 -1.9846
12994TIP3   OH260396   6.754   6.423  16.715  0.0424  0.0082  0.6021
12994TIP3    H160397   6.816   6.402  16.645  1.3872  0.5233  1.6290
12994TIP3    H260398   6.778   6.365  16.786  0.5850  1.5423  1.6894
12995TIP3   OH260399   5.582   5.603   4.941 -0.1849  0.2495  0.1659
12995TIP3    H160400   5.494   5.639   4.944  0.6214  2.1458  3.3716
12995TIP3    H260401   5.638   5.678   4.922  0.8784 -0.7119 -0.6131
12996TIP3   OH260402   1.139   5.060   6.134  0.0611  0.5143  0.6947
12996TIP3    H160403   1.048   5.090   6.140 -0.6408 -1.1116 -1.4894
12996TIP3    H260404   1.191   5.137   6.156 -1.8296  1.3367  2.4696
12997TIP3   OH260405   1.706   2.491  14.473  0.0535 -0.1852  0.2108
12997TIP3    H160406   1.668   2.524  14.392  0.8412  2.4099  0.8620
12997TIP3    H260407   1.781   2.438  14.445 -1.0310 -1.1809 -0.8313
12998TIP3   OH260408   0.875   2.650   2.825  0.0295 -0.3061 -0.1947
12998TIP3    H160409   0.811   2.668   2.894  0.2985 -0.7732  0.1833
12998TIP3    H260410   0.929   2.579   2.861  0.7796  0.1083 -0.4911
12999TIP3   OH260411   1.324   3.860   0.654  0.3564  0.1381  0.4934
12999TIP3    H160412   1.306   3.866   0.561 -1.6284 -0.2272  0.8184
12999TIP3    H260413   1.336   3.766   0.670 -2.7479 -0.2110  1.1430
13000TIP3   OH260414   2.784   5.311  12.607  0.7711 -0.5666 -0.0236
13000TIP3    H160415   2.827   5.390  12.641 -0.7435  0.2004  0.1332
13000TIP3    H260416   2.747   5.269  12.684 -1.7027  0.5861 -0.5420
13001TIP3   OH260417   1.740   2.915   1.953  0.6401  0.2538  0.0262
13001TIP3    H160418   1.697   2.907   1.868  0.4569 -4.1882  0.4586
13001TIP3    H260419   1.673   2.892   2.017  2.0209 -1.0110  1.0654
13002TIP3   OH260420   2.717   0.797   0.895  0.6913 -0.1942 -0.3482
13002TIP3    H160421   2.720   0.816   0.802 -1.9084  2.5093  0.0422
13002TIP3    H260422   2.714   0.882   0.938 -0.3060 -1.3966  2.1048
13003TIP3   OH260423   0.259   0.024   1.255 -0.6054  0.3456  0.1511
13003TIP3    H160424   0.299  -0.019   1.179 -0.3258 -0.6558  0.8550
13003TIP3    H260425   0.247   0.115   1.228  2.1847  0.6829 -0.0559
13004TIP3   OH260426   2.138   0.101   6.258 -0.1844 -0.2619  0.1414
13004TIP3    H160427   2.067   0.037   6.243 -0.9999 -0.0585  2.8007
13004TIP3    H260428   2.119   0.136   6.345  1.9906  1.4060 -0.0410
13005TIP3   OH260429   6.047   3.636  11.141  0.2513 -0.6185  0.2751
13005TIP3    H160430   6.121   3.663  11.086  0.7831  0.1945  1.3860
13005TIP3    H260431   5.977   3.616  11.079  0.1356  2.3718 -0.6386
13006TIP3   OH260432   4.863   3.607   5.272  0.3326  0.0242  0.2525
13006TIP3    H160433   4.893   3.601   5.362  0.9343 -0.2392  0.0357
13006TIP3    H260434   4.842   3.699   5.259 -2.7592 -0.4320  1.6188
13007TIP3   OH260435   1.635   6.709  14.220 -0.4605 -0.4511  0.4571
13007TIP3    H160436   1.547   6.718  14.257 -0.4681 -0.7108  0.5035
13007TIP3    H260437   1.689   6.765  14.275 -0.5175 -0.6430  0.7143
13008TIP3   OH260438   0.268   0.797   4.853 -0.1797  0.1608  0.4175
13008TIP3    H160439   0.345   0.777   4.801 -0.2606 -1.1212  0.7573
13008TIP3    H260440   0.227   0.712   4.868 -0.8295  0.6560  1.5149
13009TIP3   OH260441   6.085   2.673   5.915 -0.0560  0.0182 -0.6088
13009TIP3    H160442   6.075   2.586   5.876  0.4320 -0.6759  0.7846
13009TIP3    H260443   6.002   2.717   5.895 -0.5889 -1.0115 -0.7155
13010TIP3   OH260444   2.415   2.880   5.640  0.0169  0.0410  0.4247
13010TIP3    H160445   2.447   2.800   5.683 -0.5368 -0.6002 -0.3376
13010TIP3    H260446   2.458   2.951   5.687 -1.2186 -0.6003  2.5961
13011TIP3   OH260447   5.164   0.827  11.827 -0.0221  0.7111  0.2231
13011TIP3    H160448   5.204   0.742  11.812 -1.5563 -0.1611  0.8877
13011TIP3    H260449   5.090   0.829  11.766  0.5899  1.9853 -0.4893
13012TIP3   OH260450   0.031   0.572   2.512  0.1880 -0.2247  0.5211
13012TIP3    H160451  -0.016   0.489   2.510 -0.8380  0.3322  0.8606
13012TIP3    H260452   0.111   0.556   2.462  0.1616 -1.5075  0.8787
13013TIP3   OH260453   1.522   5.339   1.588  0.5908  0.1507 -0.0547
13013TIP3    H160454   1.512   5.420   1.537 -1.8582 -0.4837 -0.6832
13013TIP3    H260455   1.449   5.342   1.650 -0.1634 -2.0489 -0.7861
13014TIP3   OH260456   5.710   4.298  15.405 -0.6918 -0.7111 -0.1373
13014TIP3    H160457   5.670   4.245  15.336  0.3118 -0.7885 -0.6731
13014TIP3    H260458   5.657   4.280  15.483 -0.8201 -1.9300 -0.4870
13015TIP3   OH260459   6.642   6.061   1.532 -0.0806 -0.8074  0.1314
13015TIP3    H160460   6.639   5.978   1.579 -0.6879 -1.7838 -1.5931
13015TIP3    H260461   6.665   6.037   1.442  2.0535  1.1248  0.1313
13016TIP3   OH260462   2.916   3.325  13.915 -0.1894  0.4434  0.2684
13016TIP3    H160463   3.003   3.365  13.910  0.2899 -0.7473 -2.0523
13016TIP3    H260464   2.862   3.388  13.962  2.1174  0.8397  2.4835
13017TIP3   OH260465   4.472   4.112  15.600 -0.2342  0.2665  0.2122
13017TIP3    H160466   4.514   4.087  15.682 -1.3438 -1.8301  0.1848
13017TIP3    H260467   4.534   4.173  15.559  0.4453  1.1290  2.4606
13018TIP3   OH260468   4.736   6.531   0.161  0.3873 -0.4158  0.1533
13018TIP3    H160469   4.656   6.532   0.213  0.5429 -0.8694  0.4032
13018TIP3    H260470   4.781   6.612   0.185  0.3280 -0.4922  0.5216
13019TIP3   OH260471   1.406   5.019   0.130  0.2415 -0.2939  0.2155
13019TIP3    H160472   1.480   4.972   0.170  0.3988  0.0915  0.3797
13019TIP3    H260473   1.338   4.953   0.121  0.6567 -0.6850 -0.0616
13020TIP3   OH260474   6.177   3.895  13.701 -0.4969  0.1075 -0.2067
13020TIP3    H160475   6.265   3.882  13.737 -0.4634 -0.4587 -0.4796
13020TIP3    H260476   6.140   3.967  13.752  0.6680  1.3470 -1.0677
13021TIP3   OH260477   4.681   2.239  10.415  0.2428 -0.1725 -0.0259
13021TIP3    H160478   4.649   2.329  10.412  0.2465 -0.2146 -1.5314
13021TIP3    H260479   4.602   2.185  10.423  0.2480 -0.0397  1.0008
13022TIP3   OH260480   4.193   2.126  12.229 -0.9217  0.6836  0.1547
13022TIP3    H160481   4.135   2.199  12.250 -1.4276  0.6452 -1.0497
13022TIP3    H260482   4.149   2.049  12.267 -1.6018  0.6780 -0.6109
13023TIP3   OH260483   6.055   4.925   3.178  0.3332  0.0508  0.1297
13023TIP3    H160484   6.115   4.853   3.156 -1.1731 -1.0702 -0.3915
13023TIP3    H260485   6.000   4.934   3.100  0.2117  1.4626  0.3783
13024TIP3   OH260486   5.329   3.776   3.169 -0.0945  0.1631  0.4924
13024TIP3    H160487   5.320   3.762   3.263 -2.1542 -1.4650  0.1019
13024TIP3    H260488   5.351   3.868   3.160 -1.3591  0.6886  2.5073
13025TIP3   OH260489   6.024   0.528  15.966  0.5045 -0.0996  0.2693
13025TIP3    H160490   5.964   0.527  15.891  1.8489 -0.2311 -0.8158
13025TIP3    H260491   6.045   0.436  15.980  1.7418  0.0688 -0.4120
13026TIP3   OH260492   3.711   6.634  16.074  0.0790  0.2374 -0.2700
13026TIP3    H160493   3.662   6.685  16.009  2.1895 -0.1649 -2.2173
13026TIP3    H260494   3.715   6.546  16.037 -0.7494 -0.5978  1.5627
13027TIP3   OH260495   6.057   2.535   0.159 -0.5773 -0.5068  0.1980
13027TIP3    H160496   6.032   2.460   0.106  0.8896 -0.9712  0.1370
13027TIP3    H260497   5.974   2.575   0.185 -1.3371 -1.3083 -0.9562
13028TIP3   OH260498   4.642   3.761  15.079 -0.3250 -0.5931  0.0740
13028TIP3    H160499   4.605   3.800  15.000  1.2471 -1.0903 -0.9385
13028TIP3    H260500   4.663   3.836  15.135 -0.7586 -0.1898 -0.3038
13029TIP3   OH260501   2.820   6.459   3.399 -0.5395 -0.3811  0.4046
13029TIP3    H160502   2.750   6.437   3.462 -0.0987 -0.6949  0.7910
13029TIP3    H260503   2.899   6.466   3.453 -0.1835 -0.5220 -0.0963
13030TIP3   OH260504   3.458   5.843  13.775 -0.2457  0.5359 -0.2228
13030TIP3    H160505   3.440   5.813  13.864 -0.7463  1.9251  0.1702
13030TIP3    H260506   3.387   5.806  13.722 -0.9200  1.0850  0.2740
13031TIP3   OH260507   5.066   5.928  16.914 -0.3543  0.1167  0.1496
13031TIP3    H160508   5.043   5.837  16.932 -0.5717  0.2638  0.6344
13031TIP3    H260509   5.082   5.931  16.820 -1.5006 -0.1704 -0.0598
13032TIP3   OH260510   5.832   6.579  12.902 -0.3114 -0.7435  0.7349
13032TIP3    H160511   5.871   6.637  12.836  3.6121 -1.2516  2.4602
13032TIP3    H260512   5.810   6.637  12.975 -1.8668 -0.6268  0.1966
13033TIP3   OH260513   3.882   0.170  15.285 -0.0412  0.1436  0.4035
13033TIP3    H160514   3.788   0.192  15.285  0.0123  0.5620  3.0405
13033TIP3    H260515   3.885   0.076  15.270 -0.9789 -0.0775  1.4959
13034TIP3   OH260516   0.807   3.501   0.012  0.0506 -0.1739 -0.0603
13034TIP3    H160517   0.789   3.422  -0.039  0.9149 -0.9536  0.8395
13034TIP3    H260518   0.720   3.540   0.026 -0.2233 -0.0370 -1.9565
13035TIP3   OH260519   1.910   1.382   3.506  0.1604  0.2563 -0.3327
13035TIP3    H160520   1.965   1.456   3.481  1.4967 -1.2499 -1.9699
13035TIP3    H260521   1.885   1.401   3.597  0.5292  2.6590 -0.6942
13036TIP3   OH260522   6.299   4.064   1.595  0.6942 -0.0435  0.1500
13036TIP3    H160523   6.294   4.098   1.684 -0.9816  0.2956 -0.0628
13036TIP3    H260524   6.213   4.082   1.557  1.0958 -0.9727 -1.2518
13037TIP3   OH260525   0.289   4.870   5.667 -0.5903  0.0932  0.5333
13037TIP3    H160526   0.378   4.896   5.693 -1.2349  1.9117  0.9558
13037TIP3    H260527   0.262   4.937   5.604 -1.8840 -0.1530  0.8200
13038TIP3   OH260528   3.153   6.648  15.409  0.7019  0.6634  0.1377
13038TIP3    H160529   3.111   6.569  15.374  1.1264  0.2274  0.5944
13038TIP3    H260530   3.150   6.636  15.504 -1.1055  2.1814  0.2979
13039TIP3   OH260531   6.208   5.175  13.558  0.1855 -0.7459 -0.7576
13039TIP3    H160532   6.250   5.215  13.482 -0.6477  1.6495 -0.0134
13039TIP3    H260533   6.134   5.233  13.578 -1.3513 -2.9335  0.1212
13040TIP3   OH260534   3.650   2.823   4.311  0.7559 -0.1939  0.1233
13040TIP3    H160535   3.743   2.843   4.305  0.8348 -0.3181  0.9049
13040TIP3    H260536   3.644   2.730   4.292  0.9226 -0.4359  1.2690
13041TIP3   OH260537   0.033   6.337   4.626  0.0082  0.3922 -0.3622
13041TIP3    H160538   0.024   6.404   4.695 -0.5274 -1.0762  1.0221
13041TIP3    H260539   0.103   6.280   4.657 -1.7373 -1.5762  0.0781
13042TIP3   OH260540   0.904   3.907  16.659 -0.2404  0.1004 -0.1840
13042TIP3    H160541   0.968   3.953  16.606 -0.6630  1.5277  0.5281
13042TIP3    H260542   0.825   3.905  16.605 -0.2873  0.3974 -0.1228
13043TIP3   OH260543   3.638   5.288  15.777  0.2111 -0.1269 -0.0581
13043TIP3    H160544   3.565   5.305  15.717 -0.1600  1.1162  0.7379
13043TIP3    H260545   3.696   5.363  15.768 -0.5316  0.7458  2.1398
13044TIP3   OH260546   3.318   5.710   1.916  0.4520  0.1561 -0.3318
13044TIP3    H160547   3.371   5.744   1.845 -0.2342  1.3056 -0.3149
13044TIP3    H260548   3.235   5.685   1.875  0.2481  0.3151 -0.0226
13045TIP3   OH260549   3.723   0.430  16.868  0.9406  0.3695 -0.7598
13045TIP3    H160550   3.660   0.475  16.924 -0.4995  0.9403 -2.7885
13045TIP3    H260551   3.805   0.434  16.916 -0.2875  0.7023  1.3784
13046TIP3   OH260552   0.251   5.800  15.330  0.0593 -0.3032 -0.6829
13046TIP3    H160553   0.300   5.843  15.400 -0.4136  0.0470 -0.5654
13046TIP3    H260554   0.318   5.758  15.276  0.7124  2.3406 -2.0010
13047TIP3   OH260555   4.761   5.263  16.218 -0.1618  0.2159 -0.5181
13047TIP3    H160556   4.675   5.258  16.176 -0.0022  1.0609 -0.9405
13047TIP3    H260557   4.822   5.228  16.152 -0.3964 -2.1786  0.4642
13048TIP3   OH260558   2.170   0.265   1.068  0.2679 -0.6598 -0.8026
13048TIP3    H160559   2.200   0.189   1.117  0.0066 -1.1014 -1.3355
13048TIP3    H260560   2.173   0.337   1.132  2.0680 -0.7667 -0.7349
13049TIP3   OH260561   1.875   0.849  12.212 -0.0471  0.7662 -0.2841
13049TIP3    H160562   1.959   0.835  12.255 -0.6750  0.3027  0.8159
13049TIP3    H260563   1.865   0.944  12.209  0.0772  0.8021  0.4451
13050TIP3   OH260564   3.705   4.155  11.656  0.1441  0.6043  0.0968
13050TIP3    H160565   3.664   4.233  11.618  1.3128  0.9464 -0.5072
13050TIP3    H260566   3.715   4.176  11.748  0.4787  1.1879 -0.0679
13051TIP3   OH260567   0.648   4.435   3.477 -0.0622  0.4443  0.0055
13051TIP3    H160568   0.610   4.467   3.396  0.3667 -1.0729 -0.8123
13051TIP3    H260569   0.705   4.506   3.507 -0.0334  0.9129 -1.1622
13052TIP3   OH260570   3.292   3.308  14.641  0.2371 -0.2242  0.0821
13052TIP3    H160571   3.226   3.362  14.597  0.3411 -1.0103 -1.0457
13052TIP3    H260572   3.242   3.237  14.681  0.2886 -0.2452  0.1077
13053TIP3   OH260573   4.233   5.041   3.306  0.1185 -0.4580 -0.3804
13053TIP3    H160574   4.261   5.030   3.215  0.9275 -2.0744  0.0507
13053TIP3    H260575   4.275   4.969   3.353 -2.5485 -1.2788  0.8061
13054TIP3   OH260576   5.869   0.045   5.305 -0.5161 -0.8130 -0.3445
13054TIP3    H160577   5.830   0.002   5.381  1.4961 -0.9158  0.6697
13054TIP3    H260578   5.909  -0.026   5.256  0.0285 -0.4878 -0.3711
13055TIP3   OH260579   1.245   6.691   6.609 -0.1146 -0.3209 -0.0761
13055TIP3    H160580   1.192   6.767   6.630  0.9885  0.7335 -1.0358
13055TIP3    H260581   1.335   6.722   6.612  0.4825 -2.0832  1.5012
13056TIP3   OH260582   1.569   5.587  11.914  0.1557 -0.3192 -0.0632
13056TIP3    H160583   1.646   5.619  11.866 -0.1366 -0.2308 -0.4787
13056TIP3    H260584   1.601   5.512  11.963  0.3655 -0.6543 -0.7153
13057TIP3   OH260585   2.511   4.342   2.338 -0.9675 -0.0085  0.2707
13057TIP3    H160586   2.559   4.408   2.287 -2.5698  1.5210  0.6698
13057TIP3    H260587   2.525   4.368   2.429 -1.1356 -0.5637  0.4564
13058TIP3   OH260588   4.718   4.409   0.428  0.4643 -0.3421  0.5701
13058TIP3    H160589   4.782   4.480   0.414 -0.7527  0.1920 -2.7688
13058TIP3    H260590   4.688   4.422   0.518  0.6251  3.1102  0.1988
13059TIP3   OH260591   1.013   3.089  13.400  0.1528  0.2147 -0.2708
13059TIP3    H160592   0.969   3.054  13.478  0.6104  1.0111  0.3614
13059TIP3    H260593   0.954   3.068  13.327 -0.7996  0.4004  0.4290
13060TIP3   OH260594   2.480   6.142   2.029  0.8916  0.2819 -0.2710
13060TIP3    H160595   2.392   6.180   2.033 -0.0747 -1.9645  0.3645
13060TIP3    H260596   2.509   6.140   2.120  1.0096 -0.3577 -0.3248
13061TIP3   OH260597   6.150   1.543   0.808  0.2429 -0.9470 -0.4277
13061TIP3    H160598   6.113   1.478   0.868 -1.0818  0.3390  0.1570
13061TIP3    H260599   6.191   1.608   0.864 -1.8372  0.7791 -0.8229
13062TIP3   OH260600   6.146   0.694   4.726  0.6108 -0.2351  0.3071
13062TIP3    H160601   6.169   0.719   4.815  1.5306  0.4046 -0.1034
13062TIP3    H260602   6.223   0.650   4.692  1.4085  2.1434 -1.1594
13063TIP3   OH260603   0.984   3.044  11.026 -0.2935  0.1152 -0.0727
13063TIP3    H160604   0.939   3.004  11.101  1.1073  1.4141  1.4795
13063TIP3    H260605   1.076   3.025  11.040 -0.0508  0.0194 -1.7010
13064TIP3   OH260606   5.415   2.945  12.314  0.4162  0.9174  0.3112
13064TIP3    H160607   5.391   3.037  12.303  2.5290  1.7174  2.0497
13064TIP3    H260608   5.443   2.939  12.405 -1.7858 -1.9566  0.8468
13065TIP3   OH260609   1.440   1.115   5.502 -0.3275  0.6905 -0.0543
13065TIP3    H160610   1.535   1.113   5.490 -0.3372 -1.4269  0.0602
13065TIP3    H260611   1.405   1.119   5.413 -0.1459  1.7520 -0.0897
13066TIP3   OH260612   2.595   2.519  12.926 -0.3399  0.4370 -0.5401
13066TIP3    H160613   2.564   2.604  12.895 -1.5596  0.1802 -0.0856
13066TIP3    H260614   2.673   2.501  12.874 -0.0332  1.8517 -0.5989
13067TIP3   OH260615   4.360   3.031  16.925 -0.2463  0.0007 -0.0689
13067TIP3    H160616   4.440   2.984  16.947  0.2948  0.8634 -0.1419
13067TIP3    H260617   4.381   3.080  16.845 -0.3171  1.4833  0.7914
13068TIP3   OH260618   4.278   5.540  12.588  0.7040 -0.2840  0.2803
13068TIP3    H160619   4.327   5.588  12.521  1.4117 -0.9421  0.3284
13068TIP3    H260620   4.344   5.512  12.651 -0.1549  1.8693  2.2304
13069TIP3   OH260621   2.293   5.069   1.255 -0.3874 -0.4436  0.0292
13069TIP3    H160622   2.289   4.979   1.288 -0.6968 -1.3652 -2.4406
13069TIP3    H260623   2.367   5.068   1.195 -0.0227  1.1346  0.4455
13070TIP3   OH260624   5.533   5.634  16.135  0.3208 -0.0162 -0.1273
13070TIP3    H160625   5.578   5.706  16.091 -0.0957 -0.2055 -0.8783
13070TIP3    H260626   5.449   5.627  16.089  0.1913 -0.7101  0.2085
13071TIP3   OH260627   6.387   5.644  12.895  0.4759 -0.1511 -0.4456
13071TIP3    H160628   6.465   5.633  12.840  1.3341 -0.0784  0.7271
13071TIP3    H260629   6.410   5.715  12.955 -1.0852  0.9274 -1.0819
13072TIP3   OH260630   0.366   2.671   1.442  0.3107 -0.3700  0.2043
13072TIP3    H160631   0.427   2.603   1.416  0.6596  0.8012 -2.1894
13072TIP3    H260632   0.418   2.732   1.494  1.1453  0.4417 -1.5325
13073TIP3   OH260633   2.297   2.433  13.779  0.1466  0.0959  0.1372
13073TIP3    H160634   2.391   2.418  13.769  0.1548 -0.0591  0.4470
13073TIP3    H260635   2.281   2.514  13.732  0.3117 -0.2532 -0.5172
13074TIP3   OH260636   5.031   2.355  12.908 -0.3868  0.0566 -0.3323
13074TIP3    H160637   5.006   2.292  12.841  0.8218 -1.2046  0.3855
13074TIP3    H260638   5.126   2.346  12.916 -0.6282 -0.6568  2.3676
13075TIP3   OH260639   4.139   3.288   2.559 -0.4910  0.2810  0.7894
13075TIP3    H160640   4.213   3.242   2.519 -1.7902 -1.0409 -0.1274
13075TIP3    H260641   4.144   3.376   2.523 -0.5649 -0.3850 -0.8855
13076TIP3   OH260642   4.637   5.013  16.919  0.1536  0.3784 -0.5447
13076TIP3    H160643   4.633   4.966  17.002 -1.5759  0.4870 -0.5463
13076TIP3    H260644   4.601   4.953  16.854  0.8230  0.5588 -1.0926
13077TIP3   OH260645   3.301   0.246  14.009  0.4263  0.8423 -0.0946
13077TIP3    H160646   3.280   0.224  13.918 -1.6617 -1.8593  0.9894
13077TIP3    H260647   3.303   0.342  14.010  0.9047  0.9041 -3.0787
13078TIP3   OH260648   3.047   4.223   3.241 -0.4421 -0.0731  0.5469
13078TIP3    H160649   3.075   4.132   3.244 -0.4683 -0.0604  1.1915
13078TIP3    H260650   3.005   4.233   3.155 -0.9353 -0.8092  0.7001
13079TIP3   OH260651   4.314   3.361   5.603  0.2029  0.1760  0.1823
13079TIP3    H160652   4.267   3.421   5.661 -0.2019  0.5445 -0.5200
13079TIP3    H260653   4.343   3.290   5.660 -1.4965 -0.2350  0.5638
13080TIP3   OH260654   2.585   6.781  12.435  0.2369  0.1612 -0.5854
13080TIP3    H160655   2.508   6.816  12.390 -0.1694 -2.2307 -1.8080
13080TIP3    H260656   2.651   6.773  12.367  1.1271  0.8144  0.1810
13081TIP3   OH260657   3.596   0.702  14.299 -0.7469 -0.3247 -0.2530
13081TIP3    H160658   3.576   0.744  14.383  0.8375 -1.1783  0.5648
13081TIP3    H260659   3.602   0.775  14.237 -1.0629  0.3872  0.5411
13082TIP3   OH260660   6.395   5.221   1.343  0.6120  0.1877 -0.0475
13082TIP3    H160661   6.327   5.212   1.410 -0.4524  0.3776 -1.0760
13082TIP3    H260662   6.348   5.257   1.267  1.0239 -3.3394 -2.0804
13083TIP3   OH260663   6.403   5.185  10.981  0.2733  0.6805  0.4364
13083TIP3    H160664   6.335   5.141  11.033 -0.5992  1.3896 -0.0942
13083TIP3    H260665   6.460   5.114  10.952 -0.7728 -0.0521  0.1147
13084TIP3   OH260666   2.672   2.187  16.657  0.3588  0.6079 -0.2802
13084TIP3    H160667   2.714   2.101  16.660 -0.5408  0.1312 -1.0797
13084TIP3    H260668   2.583   2.171  16.687  0.1764  1.2619 -0.4591
13085TIP3   OH260669   6.464   1.602   0.203  0.6589  0.4013  0.9395
13085TIP3    H160670   6.535   1.663   0.184  0.6232  0.0913 -0.2326
13085TIP3    H260671   6.508   1.519   0.220  0.5049 -0.3148 -1.9084
13086TIP3   OH260672   2.555   1.584  12.771  0.2861  0.6169  0.1862
13086TIP3    H160673   2.611   1.545  12.703  1.1556  0.4165  1.0045
13086TIP3    H260674   2.572   1.678  12.764  1.3939  0.4888  1.0007
13087TIP3   OH260675   4.620   6.351  13.097 -0.5875 -0.3821  0.4955
13087TIP3    H160676   4.666   6.349  13.181  0.9677  1.3928 -0.2615
13087TIP3    H260677   4.542   6.404  13.113 -2.4731 -3.4534  1.8042
13088TIP3   OH260678   5.810   0.716   5.794 -0.0766 -0.2144 -0.2278
13088TIP3    H160679   5.780   0.625   5.795  0.4296 -0.4004 -1.6288
13088TIP3    H260680   5.730   0.768   5.783 -0.3141 -0.5058  0.1275
13089TIP3   OH260681   3.105   0.031   0.686 -0.2429 -0.1967  0.9089
13089TIP3    H160682   3.058  -0.035   0.635 -1.2414 -0.3744  2.0498
13089TIP3    H260683   3.046   0.106   0.688  0.9229  0.7932 -0.4595
13090TIP3   OH260684   2.982   3.579  11.079  0.0995 -0.5056 -0.1971
13090TIP3    H160685   3.023   3.642  11.138 -1.5125 -0.6884  1.1751
13090TIP3    H260686   2.889   3.603  11.080 -0.1576 -1.3766 -1.5984
13091TIP3   OH260687   0.788   3.523   5.795 -0.4870  0.5168 -0.4068
13091TIP3    H160688   0.870   3.538   5.843 -0.1635 -2.8754  0.2528
13091TIP3    H260689   0.802   3.561   5.709  0.7931  2.2796  0.5532
13092TIP3   OH260690   5.565   0.050  17.136 -0.4867  0.1349  0.2157
13092TIP3    H160691   5.555   0.129  17.188 -0.7815 -0.8880  1.7399
13092TIP3    H260692   5.627  -0.004  17.185 -0.6113 -0.7638 -0.5887
13093TIP3   OH260693   6.121   4.675   5.982  0.2196  0.7506 -0.8003
13093TIP3    H160694   6.151   4.627   6.059  0.9165  1.5764 -0.5600
13093TIP3    H260695   6.137   4.615   5.908 -0.1521  0.0909 -0.3490
13094TIP3   OH260696   0.054   4.102  10.925  0.1325 -0.0806 -0.1743
13094TIP3    H160697   0.024   4.191  10.907  1.5462  0.6542  0.9534
13094TIP3    H260698   0.123   4.086  10.860  2.0849  0.8731  1.5916
13095TIP3   OH260699   2.958   1.343  16.675 -0.0760 -0.2377  0.3570
13095TIP3    H160700   2.879   1.330  16.727 -0.1559 -0.1240  0.2634
13095TIP3    H260701   2.995   1.255  16.666  0.0695 -0.2277  0.8195
13096TIP3   OH260702   5.923   0.043  13.433 -0.4084 -0.1554  0.0394
13096TIP3    H160703   5.963   0.088  13.508 -2.3605 -1.2917  1.8106
13096TIP3    H260704   5.931   0.106  13.361  0.8371  1.2682  1.3765
13097TIP3   OH260705   0.662   1.657   1.424 -0.7331 -0.1780  0.4159
13097TIP3    H160706   0.741   1.647   1.478  0.4869  1.2805 -1.0569
13097TIP3    H260707   0.693   1.644   1.334 -2.5459 -1.5259 -0.0381
13098TIP3   OH260708   1.968   5.590  11.857 -0.1336  0.2239  0.6134
13098TIP3    H160709   2.023   5.574  11.781 -0.8493 -2.4485  0.6085
13098TIP3    H260710   1.900   5.650  11.826  1.8895  2.4201  0.2596
13099TIP3   OH260711   3.997   0.420   1.124 -0.5448 -0.0267 -1.1333
13099TIP3    H160712   3.966   0.508   1.103  1.2000  0.8117 -0.3670
13099TIP3    H260713   4.056   0.398   1.052 -2.1038 -1.1925 -2.0741
13100TIP3   OH260714   3.195   0.533  14.944  0.3682 -0.5295  0.4366
13100TIP3    H160715   3.275   0.481  14.936  0.0947 -0.9490  0.4201
13100TIP3    H260716   3.216   0.598  15.011  1.1670  0.1990 -0.5060
13101TIP3   OH260717   4.591   4.428  16.408  0.2192  0.7212 -0.2893
13101TIP3    H160718   4.637   4.362  16.460 -2.1042 -0.2722  0.5746
13101TIP3    H260719   4.563   4.382  16.329  2.5993  1.9060 -1.9324
13102TIP3   OH260720   1.010   2.735  12.092 -0.0957 -0.3231  0.3134
13102TIP3    H160721   1.034   2.736  12.185 -1.0081  0.2175  0.5473
13102TIP3    H260722   1.094   2.725  12.047  0.5520  1.1394  1.1422
13103TIP3   OH260723   6.490   0.625  10.853 -0.2823  0.2000  0.3317
13103TIP3    H160724   6.513   0.607  10.762  1.5215 -1.9641  1.1767
13103TIP3    H260725   6.395   0.614  10.857 -0.4256  0.6683 -1.3464
13104TIP3   OH260726   2.941   3.406  14.703  0.1216 -0.0218  0.0751
13104TIP3    H160727   3.022   3.454  14.684  0.1987 -0.2348 -0.1395
13104TIP3    H260728   2.872   3.459  14.663  0.1910 -0.0152 -0.0371
13105TIP3   OH260729   4.353   4.372   2.670  0.2604 -0.0118 -0.2572
13105TIP3    H160730   4.274   4.363   2.724 -0.3388  1.3467 -0.8914
13105TIP3    H260731   4.347   4.459   2.633  1.8961 -0.0337 -0.6135
13106TIP3   OH260732   4.986   0.701   2.499 -0.4676 -0.6495  0.2780
13106TIP3    H160733   5.059   0.650   2.463  0.5586 -0.1111  1.5396
13106TIP3    H260734   4.908   0.649   2.479  0.3320 -1.5925 -0.4411
13107TIP3   OH260735   4.390   6.388   2.634 -0.1375 -0.2483 -0.2690
13107TIP3    H160736   4.342   6.468   2.657  0.4134  0.0746 -0.2235
13107TIP3    H260737   4.481   6.407   2.657  0.4112  0.0206 -2.5273
13108TIP3   OH260738   3.966   1.678   0.160 -0.3501 -0.3706 -0.4321
13108TIP3    H160739   3.874   1.654   0.163 -0.5234  0.3011 -0.1952
13108TIP3    H260740   4.013   1.595   0.157 -1.0215 -0.7172 -2.1109
13109TIP3   OH260741   5.808   4.397  13.110  0.2681 -0.0917 -0.4161
13109TIP3    H160742   5.802   4.418  13.203 -2.0439  2.9828 -1.1820
13109TIP3    H260743   5.898   4.367  13.098  1.3024  1.7023  2.3997
13110TIP3   OH260744   6.731   0.814   4.899 -0.4326 -0.2047  0.1665
13110TIP3    H160745   6.768   0.732   4.866 -1.2302 -0.7937  0.7069
13110TIP3    H260746   6.800   0.878   4.887  0.9942 -1.4155  1.7998
13111TIP3   OH260747   3.579   2.486  15.754 -0.1503  0.1175 -0.5830
13111TIP3    H160748   3.504   2.522  15.708 -0.3188 -0.2958 -0.6349
13111TIP3    H260749   3.655   2.523  15.709 -0.3107 -0.4745 -1.3544
13112TIP3   OH260750   1.884   1.359  15.387  0.2866  0.2388  0.1633
13112TIP3    H160751   1.910   1.361  15.295  1.2764  0.3951  0.4451
13112TIP3    H260752   1.841   1.275  15.399 -2.1870  1.2703 -1.0716
13113TIP3   OH260753   6.481   2.915   1.253 -0.1440 -0.5176  0.4771
13113TIP3    H160754   6.497   2.920   1.159  0.8260 -0.9099  0.6160
13113TIP3    H260755   6.443   3.000   1.276  0.2588 -0.1675 -0.1522
13114TIP3   OH260756   2.815   4.447   1.741 -0.2350  0.0166 -0.0075
13114TIP3    H160757   2.771   4.490   1.667  0.1375  0.5074  0.0537
13114TIP3    H260758   2.803   4.353   1.724 -1.5759  0.1432  0.1794
13115TIP3   OH260759   4.699   4.734   1.716 -0.1718  0.2654 -0.3964
13115TIP3    H160760   4.729   4.825   1.720 -0.8750  0.4644  0.3879
13115TIP3    H260761   4.604   4.739   1.719 -0.1891 -0.5865  1.9932
13116TIP3   OH260762   2.450   4.276   2.682  0.3296  0.4570  0.3344
13116TIP3    H160763   2.410   4.346   2.630 -0.4545 -1.0113 -1.0859
13116TIP3    H260764   2.539   4.270   2.649 -0.1154 -0.3574 -0.7522
13117TIP3   OH260765   2.570   5.561  16.210  0.4200  0.7388  0.5257
13117TIP3    H160766   2.620   5.509  16.148  2.3514  0.3983  2.3239
13117TIP3    H260767   2.513   5.498  16.254  1.0501  0.5270  1.0405
13118TIP3   OH260768   2.351   4.665  12.517 -0.1875 -0.2658 -0.2880
13118TIP3    H160769   2.272   4.611  12.522 -0.2689 -0.2304 -1.1578
13118TIP3    H260770   2.385   4.665  12.606 -1.5675  0.3059  0.2590
13119TIP3   OH260771   0.575   5.241  10.858  0.1030 -0.1202  0.3998
13119TIP3    H160772   0.577   5.227  10.763  1.7441 -0.3239  0.4508
13119TIP3    H260773   0.556   5.334  10.867  0.2818 -0.0257 -0.1409
13120TIP3   OH260774   2.613   6.377   2.183  0.0143  0.0793  0.2633
13120TIP3    H160775   2.706   6.401   2.186  0.2728 -0.8087 -0.3897
13120TIP3    H260776   2.588   6.394   2.092 -0.1634 -0.7806  0.1525
13121TIP3   OH260777   5.432   5.063   1.138 -0.1414  0.0861 -0.0734
13121TIP3    H160778   5.477   5.036   1.218  1.4500  0.2673 -0.9002
13121TIP3    H260779   5.343   5.084   1.167 -0.4988 -2.8187  1.1521
13122TIP3   OH260780   4.120   5.047  16.239 -0.2319 -0.3418 -0.5734
13122TIP3    H160781   4.103   5.008  16.153 -1.6869  0.0849 -0.5053
13122TIP3    H260782   4.049   5.014  16.294 -1.9460  2.8643 -0.6967
13123TIP3   OH260783   1.063   1.762   1.065  0.2466  0.0562  0.0279
13123TIP3    H160784   1.141   1.788   1.115  0.8338  0.2823 -0.9842
13123TIP3    H260785   1.011   1.842   1.058  1.8456  0.9320 -2.7099
13124TIP3   OH260786   4.323   1.407   1.433 -0.1430 -0.2411 -0.2522
13124TIP3    H160787   4.335   1.356   1.353 -0.5316 -2.2868  0.9439
13124TIP3    H260788   4.238   1.450   1.422 -0.3925 -0.8622 -0.7631
13125TIP3   OH260789   6.214   1.130   2.561 -0.1595 -0.2037 -0.0421
13125TIP3    H160790   6.184   1.198   2.621 -1.5320  0.0434 -0.9840
13125TIP3    H260791   6.261   1.177   2.493 -0.8817 -0.2186 -0.5547
13126TIP3   OH260792   0.299   1.406  11.569 -0.5634  0.3430 -0.4200
13126TIP3    H160793   0.247   1.347  11.623 -0.6491  1.3436  0.5868
13126TIP3    H260794   0.357   1.348  11.520 -1.8337 -0.6997 -0.7126
13127TIP3   OH260795   2.872   2.070   2.281  0.5864  0.0072  0.0418
13127TIP3    H160796   2.948   2.014   2.266  0.8720  0.4106 -0.0547
13127TIP3    H260797   2.805   2.037   2.222  0.6012 -0.5166  0.3181
13128TIP3   OH260798   3.423   2.017   2.743 -0.4116  0.1354 -0.3573
13128TIP3    H160799   3.441   2.062   2.825  0.9738 -1.5216  0.2828
13128TIP3    H260800   3.331   1.990   2.749 -0.1374 -0.5608  0.9552
13129TIP3   OH260801   5.406   0.664   5.092  0.1183 -0.5216 -0.1352
13129TIP3    H160802   5.438   0.686   5.004  0.4793  0.7352  0.2995
13129TIP3    H260803   5.482   0.677   5.148  0.1592 -2.3221  0.2209
13130TIP3   OH260804   1.255   5.338   3.098 -0.5535 -0.1065 -0.3257
13130TIP3    H160805   1.209   5.413   3.060  0.7268  0.4573 -0.7675
13130TIP3    H260806   1.259   5.358   3.192 -1.2618 -0.1965 -0.2690
13131TIP3   OH260807   6.288   0.756   5.564 -0.4024  0.1313  0.3673
13131TIP3    H160808   6.260   0.673   5.603 -0.9174 -0.4950 -1.3002
13131TIP3    H260809   6.224   0.820   5.595 -1.8501 -0.6899 -0.8552
13132TIP3   OH260810   1.176   2.200  13.821 -0.2696 -0.0330 -0.3738
13132TIP3    H160811   1.169   2.157  13.735  1.5734 -2.1297  0.4792
13132TIP3    H260812   1.270   2.216  13.832 -0.5888  1.0585  0.8871
13133TIP3   OH260813   2.718   1.246   1.187 -0.4786 -0.0337 -0.1219
13133TIP3    H160814   2.776   1.296   1.244 -0.0779 -1.1591  0.4615
13133TIP3    H260815   2.669   1.313   1.139  0.5758  0.9220  0.1120
13134TIP3   OH260816   1.791   3.152   6.257 -0.6005 -0.0854  0.4549
13134TIP3    H160817   1.867   3.117   6.303 -0.3335 -0.8117 -0.5020
13134TIP3    H260818   1.766   3.230   6.306  1.1787  0.5413  0.4006
13135TIP3   OH260819   0.772   5.785   4.769  0.3297  0.4343 -0.3865
13135TIP3    H160820   0.713   5.836   4.713  0.8666  0.3046 -1.0781
13135TIP3    H260821   0.762   5.695   4.738 -0.8741  0.0652  1.0580
13136TIP3   OH260822   6.088   4.570  16.433  0.2755  0.1238  0.6135
13136TIP3    H160823   6.181   4.596  16.434  0.2006  0.5760 -1.1992
13136TIP3    H260824   6.075   4.536  16.344 -1.1622 -0.4532  1.0457
13137TIP3   OH260825   3.004   4.119  11.516  0.5565  0.1564 -0.5127
13137TIP3    H160826   2.970   4.184  11.455  1.2783  0.1892 -0.8896
13137TIP3    H260827   2.975   4.035  11.482 -1.0646  0.3204  0.4167
13138TIP3   OH260828   4.957   0.573   1.425 -0.3419 -0.5956 -0.2211
13138TIP3    H160829   4.925   0.659   1.398  0.9729  0.0658  0.3141
13138TIP3    H260830   5.031   0.592   1.483 -0.6591 -2.0652  0.6869
13139TIP3   OH260831   3.654   2.051   1.200  0.9336  0.2372 -0.3042
13139TIP3    H160832   3.610   2.021   1.280 -1.2412  0.5227 -1.3518
13139TIP3    H260833   3.642   1.978   1.139  3.2175 -0.2776 -0.1560
13140TIP3   OH260834   3.890   0.690  12.409  0.9319  0.2467  0.6548
13140TIP3    H160835   3.954   0.733  12.352 -0.1910 -0.4492 -1.1761
13140TIP3    H260836   3.812   0.745  12.403 -0.0320 -1.2030 -0.5509
13141TIP3   OH260837   4.521   4.801   2.887  0.4827 -0.7488 -0.2179
13141TIP3    H160838   4.527   4.888   2.928  1.9899 -0.7865 -0.3446
13141TIP3    H260839   4.481   4.817   2.802 -3.0813 -0.7154  1.3796
13142TIP3   OH260840   0.934   1.333   2.343  0.1483  0.4168 -0.8372
13142TIP3    H160841   1.018   1.326   2.389  0.6629 -0.0335 -1.8176
13142TIP3    H260842   0.957   1.369   2.257 -1.1931  4.2563  0.3171
13143TIP3   OH260843   6.460   6.642  12.962  0.2891 -0.0314  0.4609
13143TIP3    H160844   6.404   6.681  13.029  0.4986  0.4236  0.3737
13143TIP3    H260845   6.548   6.675  12.983  0.0287  1.8761 -1.3445
13144TIP3   OH260846   1.567   6.479  14.476  0.4466 -0.2019 -0.9578
13144TIP3    H160847   1.612   6.477  14.560  0.8509 -1.0202 -1.1857
13144TIP3    H260848   1.487   6.429  14.490 -0.4181  1.2750 -0.5476
13145TIP3   OH260849   3.654   2.876  10.660 -0.9410  0.0195 -0.7515
13145TIP3    H160850   3.666   2.961  10.617  0.8872 -1.2879 -2.9602
13145TIP3    H260851   3.674   2.812  10.592 -0.3716 -2.1597  1.4011
13146TIP3   OH260852   2.373   3.837   1.833 -0.0573 -0.3596  0.3659
13146TIP3    H160853   2.468   3.839   1.849  0.0317  1.9289 -0.2861
13146TIP3    H260854   2.339   3.910   1.884 -1.3225 -0.4304 -0.3655
13147TIP3   OH260855   5.702   0.338  10.366 -0.2885  0.1648  0.0573
13147TIP3    H160856   5.664   0.384  10.291 -1.4733  0.2757  0.7235
13147TIP3    H260857   5.750   0.265  10.327  0.4587  1.1423 -0.9222
13148TIP3   OH260858   2.921   2.437  15.564  0.0346 -0.4732  0.3597
13148TIP3    H160859   2.831   2.469  15.572 -0.3064 -1.0075 -1.2229
13148TIP3    H260860   2.930   2.375  15.636 -1.0348 -0.7724  0.2561
13149TIP3   OH260861   1.674   0.998   1.417 -0.3287 -0.5035 -0.3632
13149TIP3    H160862   1.727   1.028   1.342  0.3416  1.2693  0.7805
13149TIP3    H260863   1.714   0.915   1.443  2.1994  0.9595  0.6977
13150TIP3   OH260864   6.158   3.340   0.282  0.0497  0.7066  0.2631
13150TIP3    H160865   6.131   3.419   0.237  0.0997  0.0189 -0.9845
13150TIP3    H260866   6.253   3.336   0.270  0.0131  0.3189  0.0985
13151TIP3   OH260867   6.667   6.287  10.763 -0.2862  0.1862  0.2106
13151TIP3    H160868   6.667   6.377  10.731 -1.1527  0.1776  0.1843
13151TIP3    H260869   6.638   6.235  10.688  0.4442 -0.1508  0.1509
13152TIP3   OH260870   2.525   0.451  16.014 -0.2072  0.4372 -0.7945
13152TIP3    H160871   2.466   0.420  15.945 -0.4199 -0.5871 -0.1616
13152TIP3    H260872   2.500   0.542  16.029  1.1055  1.2752 -3.3974
13153TIP3   OH260873   3.894   1.346   4.494 -0.2374  0.0495  0.4300
13153TIP3    H160874   3.924   1.379   4.409  1.2171  2.1818  1.7246
13153TIP3    H260875   3.948   1.268   4.509  1.7643  1.4677  0.8088
13154TIP3   OH260876   1.912   1.540  13.100 -0.0665 -0.1478 -0.2337
13154TIP3    H160877   2.000   1.567  13.075  0.8683 -2.3906  0.4466
13154TIP3    H260878   1.893   1.590  13.180  1.9942 -2.0681  1.5376
13155TIP3   OH260879   3.559   5.412  14.850 -0.3950 -0.2286  0.1778
13155TIP3    H160880   3.600   5.496  14.828 -1.9237  0.7136  0.8964
13155TIP3    H260881   3.508   5.430  14.929 -1.6852 -1.5450 -0.3348
13156TIP3   OH260882   4.634   4.818  14.140  0.1459 -0.2770 -0.1313
13156TIP3    H160883   4.639   4.724  14.127 -0.7020 -0.4466  0.6816
13156TIP3    H260884   4.641   4.856  14.052 -0.9934 -1.1654 -0.6168
13157TIP3   OH260885   0.249   4.749   3.143  0.0061  0.2016  0.1736
13157TIP3    H160886   0.281   4.703   3.066 -0.3028  0.6579 -0.2278
13157TIP3    H260887   0.269   4.841   3.126 -1.2486  0.4571  0.0553
13158TIP3   OH260888   1.256   3.494  13.696  0.4931  0.2426  0.5004
13158TIP3    H160889   1.255   3.489  13.600 -4.4400  1.9888  0.2906
13158TIP3    H260890   1.315   3.566  13.716  0.0299  1.1721 -1.3660
13159TIP3   OH260891   0.280   2.954  12.943 -0.5887  0.3077 -0.4633
13159TIP3    H160892   0.186   2.960  12.959 -0.5757 -1.2539  0.3237
13159TIP3    H260893   0.318   2.930  13.027  0.2607 -1.2412 -1.2523
13160TIP3   OH260894   5.519   2.105  15.392  0.1170 -0.0288  1.1258
13160TIP3    H160895   5.476   2.020  15.403  1.0975 -0.3617  2.5250
13160TIP3    H260896   5.562   2.100  15.307 -2.2534  0.1722 -0.1359
13161TIP3   OH260897   2.868   5.939  12.495  0.5717  0.2705 -0.0798
13161TIP3    H160898   2.865   5.973  12.406  0.0689  0.9700  0.1988
13161TIP3    H260899   2.827   5.853  12.489  0.3174  0.4177 -0.4844
13162TIP3   OH260900   0.738   1.672   3.580 -0.3550 -0.2738  0.4914
13162TIP3    H160901   0.657   1.709   3.545 -1.3951 -1.1289  1.9349
13162TIP3    H260902   0.804   1.691   3.513 -1.3156  2.1994  0.1873
13163TIP3   OH260903   1.570   4.741  15.156  1.0368 -0.7882  0.2158
13163TIP3    H160904   1.604   4.720  15.243  0.3195 -0.0805  0.6797
13163TIP3    H260905   1.646   4.734  15.098  2.0342  1.0202  1.2645
13164TIP3   OH260906   4.745   4.668  13.839 -0.2154  0.2626  0.3917
13164TIP3    H160907   4.667   4.617  13.859  0.8610 -1.4192  0.3838
13164TIP3    H260908   4.737   4.691  13.746  0.5247 -2.1322 -0.2973
13165TIP3   OH260909   4.144   2.382   6.352  0.1138 -0.6087  0.9098
13165TIP3    H160910   4.077   2.448   6.371 -1.1172 -1.3486 -0.7780
13165TIP3    H260911   4.102   2.322   6.291  2.8909 -0.1341 -1.5508
13166TIP3   OH260912   5.250   2.837  15.123  0.2417  0.4723 -0.6405
13166TIP3    H160913   5.215   2.911  15.172 -0.9903 -0.3422 -0.2634
13166TIP3    H260914   5.298   2.876  15.051  3.5456  1.7767  2.1260
13167TIP3   OH260915   2.713   6.443  10.680  0.3493 -0.0538  0.5268
13167TIP3    H160916   2.744   6.433  10.590  1.1235 -0.3958  0.8238
13167TIP3    H260917   2.681   6.533  10.685  2.5478  0.7583  0.5795
13168TIP3   OH260918   3.232   5.131   1.379 -0.1874  0.0041  0.1373
13168TIP3    H160919   3.165   5.134   1.312  2.5958 -0.1152 -2.7706
13168TIP3    H260920   3.237   5.039   1.404  1.0134 -0.5163 -1.9240
13169TIP3   OH260921   3.435   0.796   0.907  0.1803  0.0011 -0.1841
13169TIP3    H160922   3.479   0.772   0.988 -0.7229 -0.5753  0.1418
13169TIP3    H260923   3.406   0.713   0.870  1.0121  0.2148 -1.3476
13170TIP3   OH260924   4.395   0.443   5.737  0.0989 -0.4496 -0.1035
13170TIP3    H160925   4.396   0.516   5.675 -0.4402  0.2558  0.6970
13170TIP3    H260926   4.360   0.369   5.688  1.3632 -0.3796 -1.1375
13171TIP3   OH260927   2.347   4.468   4.300  0.6715 -0.1406  0.1522
13171TIP3    H160928   2.267   4.499   4.342  0.6527 -2.0092  1.6098
13171TIP3    H260929   2.319   4.439   4.213  0.0865  0.7902  0.0273
13172TIP3   OH260930   6.374   1.025  11.353 -0.0476 -0.0687  0.1997
13172TIP3    H160931   6.342   1.082  11.423 -0.7531 -0.0325 -0.1467
13172TIP3    H260932   6.396   1.086  11.281 -2.2295 -0.3368 -0.7200
13173TIP3   OH260933   5.028   2.476  16.381  0.1115  0.4142  0.2229
13173TIP3    H160934   5.010   2.468  16.288  2.6295  1.7404 -0.4191
13173TIP3    H260935   4.988   2.559  16.406  0.6942  0.7701 -0.0167
13174TIP3   OH260936   2.212   6.249  14.544  0.8316 -0.4639 -0.6100
13174TIP3    H160937   2.227   6.240  14.450  1.7895  2.1228 -0.7550
13174TIP3    H260938   2.195   6.342  14.557 -0.2823 -0.9452  1.6630
13175TIP3   OH260939   4.474   3.561   5.420  0.2255  0.3259  0.1215
13175TIP3    H160940   4.546   3.511   5.458 -0.0283 -0.9942 -1.0637
13175TIP3    H260941   4.397   3.535   5.471  0.2354  0.1290  0.0366
13176TIP3   OH260942   3.066   6.120  15.420 -0.5521  0.2457 -0.0619
13176TIP3    H160943   3.130   6.101  15.489 -0.0054 -0.5194 -0.7712
13176TIP3    H260944   3.095   6.068  15.345 -1.3072  0.8500 -0.7818
13177TIP3   OH260945   6.558   6.306   3.728  0.1386 -0.1075  0.6334
13177TIP3    H160946   6.507   6.230   3.755 -1.2683  0.5509 -0.1526
13177TIP3    H260947   6.569   6.297   3.634  1.6758 -0.3486  0.8143
13178TIP3   OH260948   4.119   2.891   2.601  0.0475  0.0941 -0.2103
13178TIP3    H160949   4.183   2.918   2.535 -0.6398 -1.8399 -1.6866
13178TIP3    H260950   4.088   2.806   2.572 -2.3671  0.4829  1.1016
13179TIP3   OH260951   5.530   1.520  17.122  0.2743 -0.2652 -0.4294
13179TIP3    H160952   5.501   1.431  17.142  0.6075 -0.2865 -0.0436
13179TIP3    H260953   5.468   1.550  17.055  0.1033 -0.7504 -0.4966
13180TIP3   OH260954   1.602   0.687  17.018 -0.1329 -0.1787 -0.3412
13180TIP3    H160955   1.526   0.629  17.024 -0.1596  0.0211  1.6709
13180TIP3    H260956   1.666   0.649  17.078  0.9339  0.2740 -1.1818
13181TIP3   OH260957   4.426   2.297  13.714  0.1703 -1.0247  0.3565
13181TIP3    H160958   4.405   2.387  13.689 -0.7238 -1.4958 -0.5917
13181TIP3    H260959   4.521   2.297  13.726 -0.1322  0.7965  3.4172
13182TIP3   OH260960   5.806   3.621   2.282  0.4471  0.8337  0.5097
13182TIP3    H160961   5.890   3.666   2.296  0.0433  1.5581  0.6572
13182TIP3    H260962   5.799   3.561   2.357  2.1277 -1.2874 -0.9556
13183TIP3   OH260963   6.190   1.748   2.745 -0.3364  0.2613 -0.2564
13183TIP3    H160964   6.233   1.682   2.691  1.6855  2.0569 -0.9308
13183TIP3    H260965   6.165   1.702   2.825  0.8155 -1.3606 -0.8223
13184TIP3   OH260966   2.901   4.414   0.074  0.9870 -0.0998 -0.3283
13184TIP3    H160967   2.982   4.365   0.087  0.3834 -1.1669 -0.5846
13184TIP3    H260968   2.836   4.348   0.050 -0.0338  0.7146  0.1717
13185TIP3   OH260969   4.348   1.281   2.419 -0.6173 -0.5651  0.0164
13185TIP3    H160970   4.255   1.265   2.407 -0.8191  2.2819 -2.8678
13185TIP3    H260971   4.363   1.369   2.384  3.0331 -0.6623  1.0480
13186TIP3   OH260972   3.139   0.879  14.323 -0.4653  0.7187 -0.0088
13186TIP3    H160973   3.111   0.817  14.391 -0.4236  0.7268  0.0166
13186TIP3    H260974   3.207   0.932  14.366  0.2431  0.0951 -0.3494
13187TIP3   OH260975   1.208   6.546  11.559 -0.0170  0.3125 -0.7308
13187TIP3    H160976   1.177   6.572  11.645  1.5466  2.9374 -0.9003
13187TIP3    H260977   1.296   6.582  11.553 -0.0080 -0.0238 -3.3437
13188TIP3   OH260978   3.835   5.108   3.862 -0.0091  0.7502 -0.2565
13188TIP3    H160979   3.917   5.158   3.865  0.5068 -0.1209  0.4615
13188TIP3    H260980   3.771   5.169   3.824  1.3934  0.8478 -2.5845
13189TIP3   OH260981   2.038   6.491   0.162 -0.1099 -0.3128 -0.2537
13189TIP3    H160982   1.976   6.535   0.104  2.1802  0.1889 -2.3986
13189TIP3    H260983   2.013   6.398   0.158 -1.0077 -0.0588 -0.6946
13190TIP3   OH260984   1.623   1.439   4.473 -0.2674 -0.1165  0.0192
13190TIP3    H160985   1.549   1.498   4.487  0.9092  1.5784 -0.6630
13190TIP3    H260986   1.700   1.496   4.477  1.1536 -2.0987  2.4377
13191TIP3   OH260987   0.735   2.693  12.155  0.6226  0.3924  0.1010
13191TIP3    H160988   0.828   2.695  12.179  0.8024 -0.6744 -0.4569
13191TIP3    H260989   0.702   2.612  12.195 -0.1997  1.0501  0.7671
13192TIP3   OH260990   5.832   4.498  17.119 -0.4175 -0.9112 -0.6916
13192TIP3    H160991   5.850   4.582  17.162  0.7535 -1.2119 -0.5724
13192TIP3    H260992   5.863   4.510  17.029  0.3889 -1.4381 -0.4874
13193TIP3   OH260993   6.772   5.379  12.677 -0.1800  0.1477 -0.4440
13193TIP3    H160994   6.703   5.420  12.624 -1.7790  0.5453  1.8546
13193TIP3    H260995   6.854   5.410  12.639 -1.2733  0.3946 -2.6783
13194TIP3   OH260996   3.764   0.815   5.702 -0.1517  0.5842  0.2006
13194TIP3    H160997   3.731   0.852   5.784 -0.5191  0.2582  0.1994
13194TIP3    H260998   3.738   0.723   5.705  0.5656  0.3725  0.1027
13195TIP3   OH260999   6.711   2.898   2.718  0.1267  0.0063  0.6644
13195TIP3    H161000   6.619   2.886   2.695  0.4544 -0.5922 -0.3841
13195TIP3    H261001   6.747   2.810   2.719  0.8625  0.2973  0.3060
13196TIP3   OH261002   0.416   4.074  11.432 -0.2855 -0.1077 -0.3342
13196TIP3    H161003   0.426   4.142  11.365 -0.3312 -0.1489 -0.3822
13196TIP3    H261004   0.496   4.080  11.484 -0.9645  1.0200  0.6078
13197TIP3   OH261005   5.293   2.960  14.867 -0.0145 -0.5093  0.1264
13197TIP3    H161006   5.212   3.010  14.875  0.3747  0.2489 -0.6763
13197TIP3    H261007   5.354   3.019  14.824  1.2042 -0.8286  1.4208
13198TIP3   OH261008   1.980   3.125   2.518 -0.3202  0.4775 -0.0575
13198TIP3    H161009   1.993   3.079   2.435 -0.2884  0.8306 -0.2463
13198TIP3    H261010   2.006   3.215   2.500 -0.6196  0.6252  0.2488
13199TIP3   OH261011   1.186   5.434   0.599  0.0503  0.3439 -0.4683
13199TIP3    H161012   1.223   5.502   0.655  2.1371  0.4895 -1.9807
13199TIP3    H261013   1.179   5.474   0.513 -1.2610 -0.5128 -0.7710
13200TIP3   OH261014   1.458   6.589  12.664  0.4511  0.3462  0.2099
13200TIP3    H161015   1.435   6.636  12.584  0.3466 -0.7816 -0.4266
13200TIP3    H261016   1.379   6.594  12.718  0.0823  0.0032 -0.2909
13201TIP3   OH261017   0.598   5.668  12.922 -0.2325 -0.4449 -0.2409
13201TIP3    H161018   0.589   5.662  12.827  0.2198  1.1907 -0.4150
13201TIP3    H261019   0.635   5.756  12.937 -1.1347 -0.3322  1.4944
13202TIP3   OH261020   4.362   4.286   4.290 -0.4721 -0.3896 -0.1109
13202TIP3    H161021   4.352   4.234   4.210  2.9679  0.7605 -1.3972
13202TIP3    H261022   4.399   4.369   4.260  1.4342 -0.1351  2.7096
13203TIP3   OH261023   2.428   3.710   0.647  0.1878  0.1568 -0.6585
13203TIP3    H161024   2.500   3.772   0.632 -0.3929  1.2176  0.8702
13203TIP3    H261025   2.467   3.641   0.700 -0.2963  1.5409  1.5413
13204TIP3   OH261026   6.786   5.819  16.773  0.3813 -0.2652  0.3862
13204TIP3    H161027   6.738   5.767  16.709 -2.3983  1.5676  0.8831
13204TIP3    H261028   6.801   5.903  16.729 -1.0550  0.8134  1.8990
13205TIP3   OH261029   3.955   0.657  14.920  0.2521 -0.0479  0.4858
13205TIP3    H161030   3.921   0.716  14.986 -2.2773 -0.7006 -0.1700
13205TIP3    H261031   3.969   0.574  14.966  1.2868  0.2965  0.8171
13206TIP3   OH261032   1.037   2.288   4.937  0.3328  0.2762 -0.4471
13206TIP3    H161033   0.989   2.366   4.909  0.3453  0.4786  0.0733
13206TIP3    H261034   1.117   2.323   4.978 -0.4866  0.0791  1.3854
13207TIP3   OH261035   0.143   2.054   3.210 -0.0399 -0.0296  0.1594
13207TIP3    H161036   0.130   1.964   3.182 -0.8264  0.2431 -0.3851
13207TIP3    H261037   0.211   2.088   3.151  0.2270 -0.2572  0.3389
13208TIP3   OH261038   0.313   0.023  15.586  0.4293 -0.2014 -0.8295
13208TIP3    H161039   0.245  -0.043  15.598 -0.4041  0.6954 -0.5622
13208TIP3    H261040   0.359   0.025  15.670  0.6017 -0.6050 -0.9152
13209TIP3   OH261041   6.591   6.243  16.389  0.0676 -0.2702  0.0638
13209TIP3    H161042   6.666   6.194  16.422  0.1954  0.3473  0.7163
13209TIP3    H261043   6.530   6.246  16.464 -0.7010 -0.9455 -0.5221
13210TIP3   OH261044   1.098   4.394   4.967  0.2352 -0.1472 -0.1554
13210TIP3    H161045   1.111   4.344   4.887  2.0234  1.5866 -1.0089
13210TIP3    H261046   1.003   4.397   4.979 -0.1478  0.9764 -3.1625
13211TIP3   OH261047   3.164   0.610   2.186 -0.0164  0.2262  0.3597
13211TIP3    H161048   3.232   0.673   2.205  0.0770 -0.0644  1.0035
13211TIP3    H261049   3.187   0.575   2.099  0.9451 -0.2560  0.8035
13212TIP3   OH261050   0.567   5.982  14.437 -0.2171  0.3993  0.1397
13212TIP3    H161051   0.540   5.968  14.528  1.1836  0.1989  0.5413
13212TIP3    H261052   0.607   5.898  14.412  0.2946  0.7859 -0.3315
13213TIP3   OH261053   0.662   5.069  15.211  0.3420 -0.1877  0.2529
13213TIP3    H161054   0.718   5.020  15.271 -0.3279 -2.7062 -1.1043
13213TIP3    H261055   0.583   5.016  15.204 -1.4081  2.3062  0.5565
13214TIP3   OH261056   2.208   0.364  16.012 -0.2412  0.2504 -0.0924
13214TIP3    H161057   2.237   0.296  16.073  0.0875  1.0025  0.5975
13214TIP3    H261058   2.119   0.385  16.040 -0.8980 -0.9358 -1.2285
13215TIP3   OH261059   3.023   5.307   1.522 -0.2223  0.3925  0.2802
13215TIP3    H161060   3.010   5.212   1.512  1.3444  0.3111 -1.1018
13215TIP3    H261061   3.050   5.317   1.613  0.8181 -0.6456  0.1078
13216TIP3   OH261062   3.232   6.745   5.230 -0.0961 -0.1661 -0.4966
13216TIP3    H161063   3.244   6.829   5.185 -1.0424 -0.0626 -0.5873
13216TIP3    H261064   3.245   6.766   5.323  2.8979 -0.5950 -0.7899
13217TIP3   OH261065   1.402   4.232  14.122  0.3540  0.1674  0.2284
13217TIP3    H161066   1.461   4.246  14.048  0.8162 -2.5653  0.0135
13217TIP3    H261067   1.460   4.205  14.194 -0.3425  0.3424  0.8582
13218TIP3   OH261068   1.229   2.447   3.052 -0.0976 -0.1157  0.0698
13218TIP3    H161069   1.178   2.481   2.979  0.1806  0.0862 -0.0335
13218TIP3    H261070   1.307   2.409   3.012  0.2983  0.4477  0.2958
13219TIP3   OH261071   0.992   2.021   4.959  0.4605  0.3636  0.3070
13219TIP3    H161072   0.974   1.983   4.873 -0.4080 -1.8779  1.4225
13219TIP3    H261073   0.979   2.115   4.948 -0.5277 -0.0074 -1.7830
13220TIP3   OH261074   4.415   2.583   3.597  0.4975  0.0533  0.2223
13220TIP3    H161075   4.453   2.607   3.513 -1.0125 -2.4926 -1.2615
13220TIP3    H261076   4.473   2.515   3.631  0.3539  0.1102  0.5803
13221TIP3   OH261077   1.343   0.058   3.429  0.2793 -0.1696  0.1020
13221TIP3    H161078   1.386   0.143   3.419 -0.4766  0.2592  0.4795
13221TIP3    H261079   1.294   0.045   3.348  0.5486 -0.3353 -0.0353
13222TIP3   OH261080   3.725   5.482  14.363  0.3206  0.2371  0.5249
13222TIP3    H161081   3.730   5.505  14.270  0.8155  2.5258  1.0916
13222TIP3    H261082   3.662   5.410  14.366  0.8281 -0.3412 -1.6620
13223TIP3   OH261083   0.695   3.509  15.931  0.2806  0.2841  0.1950
13223TIP3    H161084   0.677   3.490  15.839  0.7823 -0.0452  0.1649
13223TIP3    H261085   0.651   3.439  15.979 -0.1232  0.5503  0.2172
13224TIP3   OH261086   0.645   2.672  14.103 -0.0220  0.0838 -0.0528
13224TIP3    H161087   0.590   2.638  14.174 -0.2243  0.5525  0.0214
13224TIP3    H261088   0.634   2.767  14.109 -1.1371  0.0601 -1.6030
13225TIP3   OH261089   3.030   4.980  12.996  0.6139 -0.0961  0.6131
13225TIP3    H161090   3.016   4.930  13.076 -0.1494 -0.9705 -0.0563
13225TIP3    H261091   3.114   4.950  12.963  0.0398 -1.1548  0.0746
13226TIP3   OH261092   6.643   6.647  12.126 -0.3698  0.5412 -0.4714
13226TIP3    H161093   6.605   6.695  12.052 -2.8539 -0.4571  0.1153
13226TIP3    H261094   6.616   6.698  12.203 -0.6819 -0.2798 -0.0365
13227TIP3   OH261095   5.347   1.811   2.909 -0.2012  0.0700  0.0140
13227TIP3    H161096   5.293   1.736   2.881 -0.5938  0.2875  0.1812
13227TIP3    H261097   5.286   1.866   2.958  0.4532 -0.2624  1.2138
13228TIP3   OH261098   3.249   0.944  16.370 -0.1817 -0.1824 -0.1701
13228TIP3    H161099   3.198   0.873  16.332  0.2953  0.3385 -1.8229
13228TIP3    H261100   3.207   0.962  16.454 -0.2667 -2.4515  0.3153
13229TIP3   OH261101   3.191   1.980   1.329  0.5299 -0.4656  0.4624
13229TIP3    H161102   3.264   1.971   1.268  0.8652 -0.2296  0.8231
13229TIP3    H261103   3.230   2.020   1.407  0.2066 -1.2356  1.0201
13230TIP3   OH261104   4.677   6.776  11.955  0.1970 -0.0165  0.2944
13230TIP3    H161105   4.611   6.840  11.927  0.0859  0.1423  0.9320
13230TIP3    H261106   4.687   6.718  11.879 -0.5624  0.0454  0.1476
13231TIP3   OH261107   0.440   0.769   0.624 -0.1840 -0.0370 -0.2285
13231TIP3    H161108   0.415   0.686   0.585 -0.0183  0.0661 -0.5575
13231TIP3    H261109   0.527   0.788   0.588 -0.7034  0.8434 -1.0554
13232TIP3   OH261110   4.253   2.330  14.906 -0.4981  0.1030  0.5182
13232TIP3    H161111   4.279   2.258  14.964 -0.2834  1.0357  1.5897
13232TIP3    H261112   4.330   2.386  14.901 -0.9406  0.6994  0.3584
13233TIP3   OH261113   1.624   6.065  13.257  0.3818 -0.3348 -0.1445
13233TIP3    H161114   1.529   6.076  13.265  0.1633 -1.9657 -0.2556
13233TIP3    H261115   1.638   5.972  13.274  2.1190  0.1556  1.2712
13234TIP3   OH261116   3.154   0.289  15.436 -0.3438  0.5750 -0.2525
13234TIP3    H161117   3.110   0.213  15.475  1.3348 -0.2021  0.1658
13234TIP3    H261118   3.217   0.252  15.374 -0.8547  1.7028 -1.4697
13235TIP3   OH261119   5.422   5.035  14.084  0.2076 -0.0299  0.1902
13235TIP3    H161120   5.345   5.082  14.117 -0.4404 -0.1015 -1.1574
13235TIP3    H261121   5.449   5.085  14.007  1.7594  0.2124  0.8922
13236TIP3   OH261122   1.135   6.199  16.467 -0.0024  0.0128 -0.8609
13236TIP3    H161123   1.131   6.243  16.382 -1.1518 -0.9564 -1.3138
13236TIP3    H261124   1.052   6.221  16.509 -0.5039 -1.5218 -1.0055
13237TIP3   OH261125   2.803   0.512  16.156  0.3727  0.8425 -0.4846
13237TIP3    H161126   2.787   0.418  16.164 -1.2661  1.1501 -0.0325
13237TIP3    H261127   2.885   0.526  16.204 -0.6217  0.0170  1.5189
13238TIP3   OH261128   1.360   6.710   1.788 -0.4226 -0.2214 -0.2105
13238TIP3    H161129   1.394   6.769   1.721 -0.0443 -0.7283 -0.4648
13238TIP3    H261130   1.391   6.747   1.870  0.4014 -0.4589 -0.4174
13239TIP3   OH261131   1.099   5.741   2.769 -0.0128  0.1663 -0.1036
13239TIP3    H161132   1.006   5.748   2.790 -0.4442  1.5539 -2.3357
13239TIP3    H261133   1.132   5.830   2.774  1.5263 -0.4781  1.9226
13240TIP3   OH261134   5.112   2.499   3.797 -0.1677  0.1925 -0.6696
13240TIP3    H161135   5.206   2.497   3.815 -0.7865 -2.2556  2.8338
13240TIP3    H261136   5.086   2.407   3.793 -3.3974  0.5982  4.9185
13241TIP3   OH261137   6.281   3.923   4.803  0.5785  0.1922  0.1007
13241TIP3    H161138   6.235   3.967   4.874  0.7390  0.3105  0.1314
13241TIP3    H261139   6.301   3.836   4.838  2.0026  0.7626  0.7612
13242TIP3   OH261140   6.289   0.665   3.979  0.7088 -0.1413 -0.0261
13242TIP3    H161141   6.210   0.713   4.006 -1.4400 -3.0798 -0.8976
13242TIP3    H261142   6.312   0.702   3.894 -1.0165 -0.7526 -0.7657
13243TIP3   OH261143   3.738   3.654   6.478  0.6088  0.1948  0.1426
13243TIP3    H161144   3.826   3.621   6.464  0.2087 -0.0955 -1.7920
13243TIP3    H261145   3.725   3.649   6.573  3.6929  2.9577  0.7963
13244TIP3   OH261146   3.616   6.364  15.681 -0.9422 -0.8932  0.1462
13244TIP3    H161147   3.541   6.397  15.632 -0.8545  0.1550  0.7056
13244TIP3    H261148   3.589   6.371  15.773  0.0939  0.1360  0.3804
13245TIP3   OH261149   1.293   4.876  10.686 -0.4508  0.0266 -0.0680
13245TIP3    H161150   1.233   4.947  10.665 -1.7288 -1.0853 -0.2609
13245TIP3    H261151   1.270   4.806  10.625  0.9756 -0.4599 -0.0717
13246TIP3   OH261152   2.758   0.111  13.571 -0.7872 -0.5398 -0.6614
13246TIP3    H161153   2.799   0.192  13.540 -0.2473 -1.1215 -1.4968
13246TIP3    H261154   2.720   0.072  13.492  0.3259 -1.8876 -0.5318
13247TIP3   OH261155   1.204   5.616  14.570 -0.1599 -0.1338  0.2310
13247TIP3    H161156   1.129   5.655  14.614  0.2446  1.9486 -0.8298
13247TIP3    H261157   1.166   5.564  14.499 -0.7015 -1.4701  1.4903
13248TIP3   OH261158   6.739   6.143   5.390 -0.0602 -0.0139 -0.0166
13248TIP3    H161159   6.790   6.185   5.321 -2.1079  0.6557 -1.1647
13248TIP3    H261160   6.667   6.203   5.406 -1.7840 -2.0265 -0.0940
13249TIP3   OH261161   0.327   5.132   0.265  0.2051  0.1396 -0.3074
13249TIP3    H161162   0.327   5.036   0.272 -0.0230  0.0144 -1.7343
13249TIP3    H261163   0.248   5.151   0.213  1.0523  0.9862 -1.3008
13250TIP3   OH261164   2.783   3.134   2.421 -0.5173  0.3650  0.3945
13250TIP3    H161165   2.798   3.228   2.415 -1.1495  0.4564  0.1326
13250TIP3    H261166   2.704   3.125   2.474  0.5089 -0.1074  1.8684
13251TIP3   OH261167   2.037   0.283  12.726  0.2460  0.1175 -0.0792
13251TIP3    H161168   2.094   0.307  12.799 -1.0426  0.8321  0.7215
13251TIP3    H261169   2.076   0.326  12.650  0.4749  1.0621  0.5627
13252TIP3   OH261170   2.816   6.017   5.450 -0.0546  0.5253 -0.0363
13252TIP3    H161171   2.802   5.967   5.370  0.3228  0.3974 -0.0262
13252TIP3    H261172   2.776   5.963   5.519  2.8251 -1.1676  0.3839
13253TIP3   OH261173   5.985   5.468   2.330  0.5830 -0.0102  0.4724
13253TIP3    H161174   5.933   5.486   2.409  0.8095  3.7454 -0.1117
13253TIP3    H261175   6.060   5.526   2.338  1.6934 -1.1433 -1.5166
13254TIP3   OH261176   3.779   1.918   3.979 -0.1662  0.2803 -0.0274
13254TIP3    H161177   3.770   1.849   3.913 -1.1230  0.3977 -0.0207
13254TIP3    H261178   3.783   1.870   4.062 -0.0350  0.1945 -0.0822
13255TIP3   OH261179   2.673   2.891  16.445 -0.4047  0.3457  0.3913
13255TIP3    H161180   2.676   2.983  16.420  0.7665  0.0709 -0.5492
13255TIP3    H261181   2.748   2.852  16.400 -2.2306 -1.5406 -1.1448
13256TIP3   OH261182   1.934   4.672  16.462 -0.3533 -0.0210  0.1320
13256TIP3    H161183   1.861   4.641  16.516  0.8588 -1.7349  0.8318
13256TIP3    H261184   1.914   4.640  16.374 -0.0369 -1.2409  0.4954
13257TIP3   OH261185   3.953   3.017  13.024 -0.2342  0.4690 -0.1905
13257TIP3    H161186   3.990   2.929  13.023  1.8072  1.2714  0.5916
13257TIP3    H261187   3.859   3.004  13.037  0.1881 -1.5419  1.0264
13258TIP3   OH261188   3.629   2.392   1.898  0.0677  0.2760  0.2456
13258TIP3    H161189   3.593   2.479   1.880  0.3884  0.2744 -0.4365
13258TIP3    H261190   3.720   2.408   1.923 -0.1027  0.1991  0.9216
13259TIP3   OH261191   5.062   2.295   0.432  0.3242  0.1513  0.4352
13259TIP3    H161192   5.083   2.321   0.521 -0.8081 -1.4196  1.1908
13259TIP3    H261193   5.134   2.238   0.405  0.9051  1.0062  0.1629
13260TIP3   OH261194   2.643   6.558  13.809  0.5527 -0.2395 -0.1006
13260TIP3    H161195   2.635   6.463  13.799 -1.1739  0.0157 -1.4153
13260TIP3    H261196   2.678   6.588  13.724  1.6582  0.2459  0.5161
13261TIP3   OH261197   6.304   4.267  11.083 -0.9847 -0.1702  0.1002
13261TIP3    H161198   6.352   4.195  11.125 -0.4974  0.7637  1.1451
13261TIP3    H261199   6.228   4.282  11.140 -1.7774 -0.6899 -0.7962
13262TIP3   OH261200   3.509   0.501  10.313 -0.0476 -0.4447 -0.3400
13262TIP3    H161201   3.531   0.433  10.249  1.5697 -1.7742  1.5536
13262TIP3    H261202   3.592   0.521  10.356 -1.1443  0.2467  1.5282
13263TIP3   OH261203   4.244   1.164   4.699 -0.3682  0.2137  0.2947
13263TIP3    H161204   4.204   1.249   4.712  2.1095  1.3866  0.5021
13263TIP3    H261205   4.337   1.183   4.684 -0.2081 -2.2470 -2.1978
13264TIP3   OH261206   0.514   3.796  13.062  0.4178 -0.0949 -0.1970
13264TIP3    H161207   0.607   3.790  13.039  0.1688  0.0060 -1.2472
13264TIP3    H261208   0.485   3.706  13.072  0.0393 -0.2187 -2.2974
13265TIP3   OH261209   5.792   0.071  16.459 -1.0892  0.2216 -0.3425
13265TIP3    H161210   5.881   0.083  16.425 -0.7459 -0.0203  0.4565
13265TIP3    H261211   5.777  -0.024  16.453 -1.1010  0.2015 -0.0075
13266TIP3   OH261212   1.673   1.682   1.196 -0.5245  0.5872 -0.1550
13266TIP3    H161213   1.694   1.696   1.104 -1.4139  0.5661 -0.3698
13266TIP3    H261214   1.676   1.587   1.207  0.2109  0.6248 -0.0030
13267TIP3   OH261215   2.476   4.274   3.971  0.1899  0.1593 -0.2418
13267TIP3    H161216   2.514   4.349   3.926 -0.4804 -0.3197 -1.6423
13267TIP3    H261217   2.386   4.301   3.992  0.6921  0.6122  1.4061
13268TIP3   OH261218   2.623   3.379   1.372  0.0642  0.2285  0.1200
13268TIP3    H161219   2.656   3.290   1.356  0.9412  0.7385 -1.0407
13268TIP3    H261220   2.615   3.385   1.467  1.8665 -0.4531  0.3471
13269TIP3   OH261221   0.457   3.613   6.595 -0.1279 -0.3198 -0.0726
13269TIP3    H161222   0.505   3.605   6.678 -2.2705 -0.6201  1.1517
13269TIP3    H261223   0.423   3.525   6.579 -3.4203  0.7253  0.9978
13270TIP3   OH261224   6.533   3.618  15.485 -0.1868  0.4164 -0.0273
13270TIP3    H161225   6.472   3.651  15.418 -0.1855  2.6398  0.9967
13270TIP3    H261226   6.482   3.620  15.566  0.3900 -0.4405  0.3573
13271TIP3   OH261227   1.946   5.084   5.458 -0.3167 -0.2350  0.0924
13271TIP3    H161228   2.039   5.075   5.473 -0.7778 -2.2689  1.8772
13271TIP3    H261229   1.922   5.167   5.499  0.6397  0.1408 -0.1115
13272TIP3   OH261230   0.421   6.669   1.082 -1.0299  0.3078  0.1790
13272TIP3    H161231   0.364   6.622   1.021 -0.3613 -0.0178 -0.1998
13272TIP3    H261232   0.458   6.601   1.138  0.8073  0.2263 -1.0875
13273TIP3   OH261233   1.461   0.804  14.146 -0.2637 -0.6612  0.2422
13273TIP3    H161234   1.369   0.786  14.123 -0.1866 -0.5073 -0.1879
13273TIP3    H261235   1.456   0.871  14.214 -0.3985  0.7837 -1.1847
13274TIP3   OH261236   5.631   5.304   0.234 -0.1448  0.3484  0.4805
13274TIP3    H161237   5.677   5.309   0.150  3.5262  3.3291  2.5228
13274TIP3    H261238   5.559   5.366   0.225  0.2433  0.6717 -0.4985
13275TIP3   OH261239   1.844   4.964   4.245 -0.4109 -0.0284  0.3737
13275TIP3    H161240   1.783   4.940   4.316 -1.1395 -1.1536 -0.6207
13275TIP3    H261241   1.788   5.005   4.179  0.1645  0.3743  0.1347
13276TIP3   OH261242   5.380   3.829   5.746  0.2184 -0.4178 -0.0831
13276TIP3    H161243   5.437   3.901   5.773  1.1992 -1.4648  0.6395
13276TIP3    H261244   5.329   3.808   5.823 -0.3899 -0.2133 -0.4236
13277TIP3   OH261245   1.776   4.428  14.079 -0.5773 -0.0817  0.1642
13277TIP3    H161246   1.754   4.493  14.012  1.0007  1.5793  1.2115
13277TIP3    H261247   1.700   4.425  14.136 -0.1550  1.8852  0.8748
13278TIP3   OH261248   1.443   1.005   1.897  0.3768 -0.1071 -0.8469
13278TIP3    H161249   1.461   0.923   1.943  0.7535  0.2660 -0.3222
13278TIP3    H261250   1.367   0.986   1.842  0.5375 -0.8401 -0.8157
13279TIP3   OH261251   4.795   3.961   5.040  0.0934  0.0158 -0.2419
13279TIP3    H161252   4.713   3.975   4.993 -1.0309 -0.5010  1.4887
13279TIP3    H261253   4.847   4.039   5.021 -1.8925  1.6452  0.7830
13280TIP3   OH261254   2.862   2.630   3.544 -0.5258 -0.2062  0.1518
13280TIP3    H161255   2.954   2.608   3.530 -1.1887 -1.8341 -1.9525
13280TIP3    H261256   2.851   2.627   3.639  1.6119  0.1560  0.4359
13281TIP3   OH261257   1.085   0.833   2.727 -0.0226  0.5034  0.2844
13281TIP3    H161258   1.056   0.813   2.816  1.0493 -0.4462  0.4338
13281TIP3    H261259   1.169   0.878   2.739 -0.3928  1.3543 -0.2217
13282TIP3   OH261260   5.945   4.081  14.266 -0.0089 -0.1911 -0.4185
13282TIP3    H161261   5.944   4.176  14.263  1.7228 -0.1546 -0.2635
13282TIP3    H261262   5.927   4.060  14.358  3.5105  0.1103  0.3980
13283TIP3   OH261263   1.890   6.541   0.568 -0.3011  0.7469  0.8223
13283TIP3    H161264   1.962   6.598   0.596  0.5817  0.0782 -0.0554
13283TIP3    H261265   1.873   6.567   0.478  1.5850 -1.8502 -0.3234
13284TIP3   OH261266   4.095   1.037   4.960 -0.2433  0.1683  0.5001
13284TIP3    H161267   4.167   0.990   5.000  0.5930  2.2525  1.5078
13284TIP3    H261268   4.016   1.004   5.004  0.3911  0.2283  1.6894
13285TIP3   OH261269   1.867   6.333   4.291 -0.1459 -0.2238 -0.4751
13285TIP3    H161270   1.836   6.349   4.380 -0.5953 -1.8173 -0.3106
13285TIP3    H261271   1.940   6.272   4.302  1.7381  1.9175 -1.0074
13286TIP3   OH261272   2.527   2.328  11.599 -0.6864  0.4410 -0.4525
13286TIP3    H161273   2.570   2.361  11.520 -0.9531  1.9969  0.0435
13286TIP3    H261274   2.538   2.397  11.663  0.7971 -1.3879  1.3494
13287TIP3   OH261275   4.262   1.726   6.027 -0.0965  0.0022 -0.2350
13287TIP3    H161276   4.225   1.794   5.970  0.2677  0.2057 -0.2300
13287TIP3    H261277   4.201   1.720   6.100 -0.0093  0.4860 -0.1219
13288TIP3   OH261278   1.432   3.204  12.697 -0.0049 -0.0891  0.3532
13288TIP3    H161279   1.513   3.225  12.743 -0.0010 -0.1299  0.3647
13288TIP3    H261280   1.406   3.287  12.657  0.1201 -0.1091  0.2276
13289TIP3   OH261281   2.952   4.210   1.233  0.3648 -0.0357  0.0956
13289TIP3    H161282   2.868   4.254   1.218  0.1793 -0.1812  0.7196
13289TIP3    H261283   2.989   4.200   1.145 -0.3395 -0.1139 -0.1964
13290TIP3   OH261284   5.210   0.696  15.326 -0.2091 -0.5274 -0.3129
13290TIP3    H161285   5.240   0.766  15.383  0.2193 -1.2360  0.3460
13290TIP3    H261286   5.177   0.629  15.386  0.0396 -1.1899 -0.9101
13291TIP3   OH261287   3.632   3.803  14.643 -0.1075  0.3332  0.4430
13291TIP3    H161288   3.630   3.870  14.712  1.6506 -0.2739  1.1150
13291TIP3    H261289   3.596   3.724  14.685  1.9497 -0.3230  1.0093
13292TIP3   OH261290   2.821   4.645  17.214 -0.0892 -0.3918 -0.4185
13292TIP3    H161291   2.882   4.685  17.277  0.6718 -1.7596 -0.2524
13292TIP3    H261292   2.829   4.551  17.231 -3.0557 -0.5469  0.3331
13293TIP3   OH261293   3.554   0.103   5.096  0.3222  0.2817 -0.0926
13293TIP3    H161294   3.646   0.127   5.105  0.4556 -0.5333  0.7302
13293TIP3    H261295   3.546   0.072   5.006  0.8730  0.2561 -0.1336
13294TIP3   OH261296   3.749   1.516  11.658 -0.4388  0.2092 -0.1684
13294TIP3    H161297   3.816   1.501  11.591  0.2955 -0.1577  0.6295
13294TIP3    H261298   3.680   1.564  11.613  1.0829  2.0337 -0.5968
13295TIP3   OH261299   0.365   1.371   4.178 -0.9864  0.1802  0.2792
13295TIP3    H161300   0.339   1.304   4.241  1.8577 -0.3976  0.9251
13295TIP3    H261301   0.440   1.414   4.219 -0.8527  1.6878 -1.4847
13296TIP3   OH261302   6.033   5.754   4.780  0.8375  0.2174  0.2157
13296TIP3    H161303   6.046   5.660   4.787 -1.0555  0.0817  3.4484
13296TIP3    H261304   5.939   5.764   4.763  1.0092  1.5184 -0.0618
13297TIP3   OH261305   3.840   1.681   5.091  0.2209 -0.8079 -0.4956
13297TIP3    H161306   3.886   1.721   5.017  0.2293 -0.9553 -0.5713
13297TIP3    H261307   3.756   1.652   5.054 -0.4849  0.6392 -0.0579
13298TIP3   OH261308   6.014   3.669   4.835  0.1854  0.5338  0.1571
13298TIP3    H161309   6.054   3.756   4.842 -1.4804  1.4687 -1.4515
13298TIP3    H261310   5.948   3.668   4.904  0.5628  0.3483  0.5140
13299TIP3   OH261311   5.774   5.804  13.184  0.1019  0.6434  0.5787
13299TIP3    H161312   5.765   5.711  13.168 -3.8156  1.4360 -2.2974
13299TIP3    H261313   5.708   5.824  13.250 -1.9584  2.0199 -1.8035
13300TIP3   OH261314   6.573   6.497   3.519 -0.1572 -0.0384 -0.1641
13300TIP3    H161315   6.512   6.553   3.472 -2.0873 -1.0107  1.1086
13300TIP3    H261316   6.528   6.476   3.601  1.5204 -1.5091  0.4108
13301TIP3   OH261317   1.453   4.703   2.217 -0.8510  0.5273 -0.1726
13301TIP3    H161318   1.527   4.687   2.274  0.3622 -2.2729 -2.4262
13301TIP3    H261319   1.476   4.783   2.169  0.3450  0.1567 -0.2307
13302TIP3   OH261320   4.621   2.205   1.281  0.8902 -0.2715  0.5284
13302TIP3    H161321   4.590   2.258   1.208 -1.7573 -1.7077  0.5575
13302TIP3    H261322   4.629   2.117   1.244 -1.3692 -1.1978  2.1925
13303TIP3   OH261323   0.794   2.196   2.543 -0.0668  0.2024  0.0980
13303TIP3    H161324   0.735   2.247   2.487  0.4837 -0.6831 -1.3224
13303TIP3    H261325   0.744   2.116   2.563 -0.2815  0.5365  0.9387
13304TIP3   OH261326   4.485   0.643  10.810  0.5962 -0.7755  0.2324
13304TIP3    H161327   4.505   0.624  10.719 -2.4232 -1.9723 -0.2639
13304TIP3    H261328   4.448   0.561  10.844 -1.6825  0.6841  1.4605
13305TIP3   OH261329   6.667   2.287   5.157 -0.0595  0.1226 -0.0448
13305TIP3    H161330   6.748   2.303   5.206  0.0321  0.4863 -0.3088
13305TIP3    H261331   6.663   2.192   5.148  0.6793  0.1329 -0.5888
13306TIP3   OH261332   1.554   3.479  15.995 -0.0609 -0.0571 -0.3751
13306TIP3    H161333   1.554   3.385  16.013 -0.5268 -0.0060 -0.1179
13306TIP3    H261334   1.535   3.485  15.901 -1.5024 -0.1613 -0.0965
13307TIP3   OH261335   6.627   5.304  13.264  0.1104 -0.2829 -0.0607
13307TIP3    H161336   6.711   5.276  13.227  0.5953  0.9783  0.0510
13307TIP3    H261337   6.626   5.399  13.251 -0.3744 -0.0095  1.8237
13308TIP3   OH261338   3.602   1.897   3.400  0.1574 -0.4187 -0.7223
13308TIP3    H161339   3.668   1.913   3.333  1.7115 -0.2252  0.8299
13308TIP3    H261340   3.591   1.802   3.401 -2.9535 -0.2228 -4.1106
13309TIP3   OH261341   4.757   0.356  11.212  0.1522 -0.1976 -0.3512
13309TIP3    H161342   4.743   0.447  11.235  1.9559 -0.3194  1.3665
13309TIP3    H261343   4.760   0.310  11.296 -0.1672 -1.7412 -1.1691
13310TIP3   OH261344   1.205   0.937  16.683 -0.2210 -0.3392 -0.1624
13310TIP3    H161345   1.267   0.960  16.753 -0.7869  0.1716  0.1861
13310TIP3    H261346   1.258   0.935  16.604  0.1041  0.8578  0.0150
13311TIP3   OH261347   6.017   0.158   2.502 -0.4554 -0.1067 -0.0329
13311TIP3    H161348   5.996   0.226   2.439 -0.6363 -0.9376 -0.8785
13311TIP3    H261349   5.934   0.112   2.517  0.2663 -2.0291 -1.7439
13312TIP3   OH261350   2.488   3.229  11.936 -0.3113 -0.2424 -0.1100
13312TIP3    H161351   2.521   3.226  11.846 -3.8623 -0.2694 -1.4959
13312TIP3    H261352   2.563   3.202  11.989  2.3625  1.3471 -2.8748
13313TIP3   OH261353   4.848   4.064   3.532  0.7444  0.2233 -0.1680
13313TIP3    H161354   4.833   3.982   3.484  0.8178 -0.8801  1.6667
13313TIP3    H261355   4.786   4.126   3.494 -1.0676 -1.3672  0.1147
13314TIP3   OH261356   4.135   4.320   2.837  0.3025 -0.5293 -0.0725
13314TIP3    H161357   4.136   4.236   2.791 -0.1404  0.6281 -2.2554
13314TIP3    H261358   4.047   4.326   2.873  0.9548 -1.8901  1.8449
13315TIP3   OH261359   5.615   5.172   3.514 -0.1433  0.6390  0.5347
13315TIP3    H161360   5.579   5.163   3.426  1.2261  0.1702  0.0049
13315TIP3    H261361   5.634   5.265   3.523  1.6105  0.4128 -0.4621
13316TIP3   OH261362   5.816   6.155  16.462 -0.6054 -0.0988 -0.4780
13316TIP3    H161363   5.798   6.220  16.394  0.0433  0.2503 -0.3096
13316TIP3    H261364   5.861   6.085  16.416 -0.3590  0.0413 -0.4492
13317TIP3   OH261365   5.659   1.412   4.963 -0.9080 -0.5311  0.1987
13317TIP3    H161366   5.721   1.415   4.890  0.5140 -1.2719  1.3542
13317TIP3    H261367   5.703   1.461   5.033 -1.8794 -0.5919  0.8497
13318TIP3   OH261368   0.267   1.738   5.758 -0.2286 -0.1314 -0.1796
13318TIP3    H161369   0.305   1.801   5.819  0.1915 -0.8966  0.3582
13318TIP3    H261370   0.331   1.730   5.688  0.3799 -1.0331  0.4702
13319TIP3   OH261371   5.108   3.284   5.441 -0.8379 -0.2167  0.3518
13319TIP3    H161372   5.025   3.330   5.450 -1.6344 -1.9793  2.6498
13319TIP3    H261373   5.090   3.213   5.380 -0.5451  0.4281 -0.4898
13320TIP3   OH261374   2.341   6.518   4.694  0.0153 -0.3071  0.1373
13320TIP3    H161375   2.350   6.611   4.675  0.0130 -0.7594 -2.1633
13320TIP3    H261376   2.410   6.499   4.758  0.5232  1.0929 -0.0000
13321TIP3   OH261377   3.193   2.026   2.471 -0.6500 -0.5874 -0.6212
13321TIP3    H161378   3.196   2.024   2.566  0.7545 -1.7884 -0.6747
13321TIP3    H261379   3.181   2.118   2.449  3.5503  0.3543  0.6417
13322TIP3   OH261380   0.611   6.377   4.636 -0.6929 -0.9605 -0.0844
13322TIP3    H161381   0.565   6.359   4.554  1.9931 -1.1566 -1.6054
13322TIP3    H261382   0.679   6.310   4.640  0.7539  0.5568  1.0539
13323TIP3   OH261383   4.866   6.215  13.827  0.2891 -0.0799  0.0482
13323TIP3    H161384   4.916   6.282  13.875 -0.3024 -0.6522  1.4837
13323TIP3    H261385   4.924   6.139  13.825 -0.0979 -0.3999  0.7940
13324TIP3   OH261386   6.409   4.424   0.588 -0.3929  0.1465 -0.4022
13324TIP3    H161387   6.458   4.417   0.507  1.1831 -2.4458  0.7174
13324TIP3    H261388   6.470   4.465   0.650 -1.1556  0.9610 -0.1700
13325TIP3   OH261389   4.350   3.597   5.168  0.4350  0.1861 -0.2913
13325TIP3    H161390   4.351   3.579   5.262  1.5527 -0.7443 -0.4758
13325TIP3    H261391   4.435   3.568   5.137 -0.5069 -0.9502 -1.8629
13326TIP3   OH261392   1.414   1.352   2.173  0.7166 -0.4583 -0.4204
13326TIP3    H161393   1.361   1.413   2.225 -1.4351 -1.8466 -0.8845
13326TIP3    H261394   1.480   1.319   2.234 -0.0866 -0.0316  0.6968
13327TIP3   OH261395   1.116   0.439   3.118  0.0571  0.2110  0.0968
13327TIP3    H161396   1.095   0.398   3.034  0.7024 -0.5520  0.3026
13327TIP3    H261397   1.090   0.375   3.184  0.9818  0.1722  0.4261
13328TIP3   OH261398   4.816   0.482   0.508 -0.1352 -0.0829  0.1284
13328TIP3    H161399   4.827   0.395   0.468 -1.4193 -0.5291  0.7040
13328TIP3    H261400   4.726   0.481   0.542  0.6666  0.5692  2.3361
13329TIP3   OH261401   4.685   1.133   3.537 -0.1876  0.4464  0.5308
13329TIP3    H161402   4.710   1.069   3.605  0.8603 -0.0179 -0.2675
13329TIP3    H261403   4.695   1.218   3.579  2.9995  0.2880  0.2140
13330TIP3   OH261404   3.860   2.619   1.290 -0.1959 -0.4503 -0.1016
13330TIP3    H161405   3.897   2.536   1.320  1.7193  0.0285 -1.0857
13330TIP3    H261406   3.843   2.606   1.197  0.1054  0.2627 -0.2567
13331TIP3   OH261407   1.729   2.115  13.855  0.4521 -0.0416  0.2475
13331TIP3    H161408   1.808   2.156  13.820  1.2966 -1.7478  0.1037
13331TIP3    H261409   1.741   2.022  13.837 -0.6482 -0.5482  2.0826
13332TIP3   OH261410   0.372   0.072   3.519 -0.4166  0.2140 -0.0673
13332TIP3    H161411   0.278   0.056   3.524 -0.3161 -0.2271  0.5082
13332TIP3    H261412   0.389   0.137   3.587  0.0264 -1.3106  1.2923
13333TIP3   OH261413   3.537   2.461  12.758 -0.0160  0.2417 -0.5358
13333TIP3    H161414   3.588   2.514  12.819  0.3816  1.1904 -1.6908
13333TIP3    H261415   3.524   2.377  12.804 -1.6729  1.7081  1.7888
13334TIP3   OH261416   4.793   0.535  15.433 -0.1011  0.0622  0.4669
13334TIP3    H161417   4.770   0.551  15.524 -0.3176  0.7128  0.3013
13334TIP3    H261418   4.744   0.601  15.384 -0.1228 -0.3927 -0.1342
13335TIP3   OH261419   0.580   4.813  12.897 -0.1742  0.4414 -0.0918
13335TIP3    H161420   0.646   4.747  12.875  0.2194  0.7345  0.2168
13335TIP3    H261421   0.496   4.771  12.876  0.1033  0.0309 -0.3769
13336TIP3   OH261422   4.455   5.997   0.041  0.3730 -0.4000  0.2408
13336TIP3    H161423   4.459   6.093   0.041  2.4973 -0.4550  1.5933
13336TIP3    H261424   4.533   5.971  -0.008  0.8779 -1.4457  1.5849
13337TIP3   OH261425   2.105   1.693   4.262 -0.4850 -0.1347 -0.1324
13337TIP3    H161426   2.120   1.662   4.351  2.6622 -1.4619 -1.0515
13337TIP3    H261427   2.016   1.728   4.263 -1.7991 -3.3272  2.6453
13338TIP3   OH261428   2.937   0.364  12.703  0.0699  0.4180  0.1593
13338TIP3    H161429   3.023   0.404  12.715  0.4198 -0.0736 -0.6551
13338TIP3    H261430   2.893   0.377  12.787  0.8022  0.9900  0.4667
13339TIP3   OH261431   0.083   0.931  13.363 -0.3058  0.0545 -0.4115
13339TIP3    H161432   0.169   0.926  13.404 -0.4109  2.0743  0.0884
13339TIP3    H261433   0.096   0.892  13.276  1.0949  0.3207 -0.3322
13340TIP3   OH261434   6.397   3.565   5.846 -0.1661 -0.6828  0.3450
13340TIP3    H161435   6.408   3.472   5.867 -1.6375 -1.2950 -1.4032
13340TIP3    H261436   6.486   3.596   5.830  0.3711 -1.7121  1.2477
13341TIP3   OH261437   6.498   2.664  12.477  0.7550 -0.1305 -0.1494
13341TIP3    H161438   6.558   2.594  12.455  2.4551  0.4915  2.2226
13341TIP3    H261439   6.536   2.742  12.438  2.6411  0.6048  2.9624
13342TIP3   OH261440   3.939   6.299   4.230 -0.2715  0.7154  0.4358
13342TIP3    H161441   3.881   6.226   4.209 -0.7362  1.7960 -2.1107
13342TIP3    H261442   4.027   6.260   4.229 -0.4877  0.2409 -1.2163
13343TIP3   OH261443   5.801   0.798  11.743  0.1414 -0.1335  0.0781
13343TIP3    H161444   5.854   0.878  11.748  0.3031 -0.2019 -0.5011
13343TIP3    H261445   5.865   0.727  11.749  0.0911 -0.2167 -0.3579
13344TIP3   OH261446   3.152   2.483   5.433  0.0456  0.1760  0.0402
13344TIP3    H161447   3.217   2.553   5.435 -0.5319  0.7033  0.6480
13344TIP3    H261448   3.117   2.480   5.522  1.2211 -1.9821  0.4809
13345TIP3   OH261449   2.641   4.909   3.905 -0.2963  0.3298  0.6636
13345TIP3    H161450   2.612   4.823   3.936  0.9415 -0.9661 -1.6293
13345TIP3    H261451   2.568   4.967   3.923 -1.5690 -1.4295  1.2974
13346TIP3   OH261452   4.097   3.335  15.311 -0.5731  0.0221 -0.3910
13346TIP3    H161453   4.023   3.361  15.256  0.3544  1.2357 -1.0887
13346TIP3    H261454   4.121   3.415  15.359 -0.3348 -0.6146  0.5701
13347TIP3   OH261455   1.489   3.110  14.589 -0.0594 -0.1701 -0.6080
13347TIP3    H161456   1.395   3.098  14.603 -0.1106 -1.5413 -1.9256
13347TIP3    H261457   1.525   3.118  14.677 -1.6948  3.0020 -0.1605
13348TIP3   OH261458   3.861   5.743  11.282 -0.3344  0.2383  0.3227
13348TIP3    H161459   3.912   5.664  11.295 -0.1162  0.1000 -1.2497
13348TIP3    H261460   3.805   5.724  11.207 -0.7298  1.3438  0.3203
13349TIP3   OH261461   6.411   3.654  13.730  0.0099  0.1885  0.4644
13349TIP3    H161462   6.484   3.597  13.752 -0.7057 -0.9633 -0.0722
13349TIP3    H261463   6.342   3.631  13.792 -0.3896  0.2466  0.0506
13350TIP3   OH261464   1.148   4.940   5.866  0.4721 -0.4726 -0.4169
13350TIP3    H161465   1.241   4.964   5.868  0.1687  0.5946  0.9270
13350TIP3    H261466   1.113   4.969   5.950 -0.8148 -1.9992 -0.3966
13351TIP3   OH261467   6.682   2.975   0.623 -0.2395  0.2186 -0.2544
13351TIP3    H161468   6.646   3.015   0.702 -2.3753  1.1086 -1.6396
13351TIP3    H261469   6.615   2.989   0.556  1.2227 -1.1425 -2.0583
13352TIP3   OH261470   6.080   0.589   3.607 -0.4440  0.2071 -0.4399
13352TIP3    H161471   6.046   0.614   3.693  1.0967 -1.0013  0.5384
13352TIP3    H261472   6.081   0.494   3.609 -1.3262  0.1379 -2.1951
13353TIP3   OH261473   5.287   4.058  11.588 -0.1294  0.0266 -0.4146
13353TIP3    H161474   5.241   3.978  11.614 -2.6125  1.3446 -0.6483
13353TIP3    H261475   5.218   4.115  11.554  2.0443  1.0739 -3.2058
13354TIP3   OH261476   0.671   1.274   0.269 -0.0248  0.1521  0.3479
13354TIP3    H161477   0.604   1.341   0.283 -0.2085  0.0643 -0.1079
13354TIP3    H261478   0.728   1.311   0.201 -2.1272 -1.6083 -2.4768
13355TIP3   OH261479   6.227   3.760  16.700 -0.3161 -0.0472  0.3175
13355TIP3    H161480   6.319   3.745  16.679 -0.8229 -1.7256 -0.8360
13355TIP3    H261481   6.185   3.776  16.615 -0.6682  3.3510  1.0655
13356TIP3   OH261482   1.846   3.192  12.216  0.2688 -0.0026 -0.2410
13356TIP3    H161483   1.768   3.224  12.261 -1.0741 -0.2073 -2.3347
13356TIP3    H261484   1.879   3.269  12.169  0.6886 -0.1819 -0.2388
13357TIP3   OH261485   6.635   5.071  11.397  0.0023 -0.9002  0.3694
13357TIP3    H161486   6.721   5.080  11.438  0.3475  0.8715 -0.6999
13357TIP3    H261487   6.573   5.097  11.465  0.4651  0.1755  0.3959
13358TIP3   OH261488   4.405   1.106  13.198  0.2671  0.4485 -0.3951
13358TIP3    H161489   4.385   1.140  13.110  1.3308  2.5145  0.1256
13358TIP3    H261490   4.320   1.082  13.234 -0.2533  0.2091 -1.7340
13359TIP3   OH261491   5.807   6.081  14.530  0.2133 -0.0482 -0.0694
13359TIP3    H161492   5.810   6.171  14.562  0.3267 -0.1240  0.1269
13359TIP3    H261493   5.892   6.067  14.489  0.7581 -0.5653  1.2230
13360TIP3   OH261494   3.530   0.809  14.559  0.0707  0.0318 -0.0777
13360TIP3    H161495   3.501   0.899  14.548  1.6600  0.2536 -2.9456
13360TIP3    H261496   3.616   0.816  14.602  0.0409 -0.1271  0.0083
13361TIP3   OH261497   3.410   4.660  14.195 -0.3980  0.4074  0.4529
13361TIP3    H161498   3.333   4.634  14.144 -0.8663  0.9031  0.9132
13361TIP3    H261499   3.427   4.750  14.169  1.4157 -0.4325 -1.3643
13362TIP3   OH261500   2.648   3.364   0.111 -0.5321 -0.7527 -0.1429
13362TIP3    H161501   2.610   3.302   0.049  0.5103 -1.2487 -0.3099
13362TIP3    H261502   2.739   3.374   0.081  0.0591 -1.2017  1.4542
13363TIP3   OH261503   2.667   5.626  16.472  0.0016  0.0460  0.2381
13363TIP3    H161504   2.664   5.720  16.490 -3.5502 -0.0451  0.5146
13363TIP3    H261505   2.610   5.614  16.397  0.3456 -1.9180  0.2731
13364TIP3   OH261506   2.031   1.793  15.842 -0.3145 -0.3671  0.0894
13364TIP3    H161507   2.058   1.876  15.881 -0.4561 -0.1169 -0.3453
13364TIP3    H261508   2.110   1.739  15.841  0.7478  1.1523 -3.2693
13365TIP3   OH261509   1.982   4.545  13.183  0.2932  0.3286 -0.2186
13365TIP3    H161510   2.043   4.616  13.162 -0.6607  1.2151 -0.0156
13365TIP3    H261511   1.997   4.526  13.275  0.4623  0.3456 -0.2425
13366TIP3   OH261512   2.176   6.210   3.105 -0.1725 -0.0857  0.1989
13366TIP3    H161513   2.185   6.144   3.174 -1.0261  0.0714  0.4663
13366TIP3    H261514   2.247   6.271   3.122  0.5935 -0.8996 -0.0153
13367TIP3   OH261515   0.958   3.354  11.996  0.4043 -0.8624 -0.0524
13367TIP3    H161516   0.911   3.289  11.943  0.2848 -2.5881  2.0834
13367TIP3    H261517   0.906   3.361  12.076  0.4056  1.9406 -0.2573
13368TIP3   OH261518   4.479   0.154  11.824 -0.2839 -0.1834 -0.2289
13368TIP3    H161519   4.511   0.143  11.734  0.8379  1.4295 -0.0385
13368TIP3    H261520   4.399   0.101  11.827  0.4540 -1.4316 -1.7491
13369TIP3   OH261521   0.191   0.931   3.636  0.0817  0.0400 -0.4835
13369TIP3    H161522   0.129   0.875   3.683  0.5825  0.8837  1.2434
13369TIP3    H261523   0.137   1.001   3.599 -0.1893 -0.0482 -0.2537
13370TIP3   OH261524   1.998   2.817  15.085 -0.4013  0.1692 -0.1370
13370TIP3    H161525   1.966   2.901  15.119  0.8888  1.0023 -0.9621
13370TIP3    H261526   2.009   2.831  14.991  3.4281  0.2938  0.2451
13371TIP3   OH261527   2.796   3.698   1.054  0.5014 -0.1268 -0.2374
13371TIP3    H161528   2.709   3.738   1.051  0.3332 -0.4576  0.0862
13371TIP3    H261529   2.857   3.770   1.039  0.2616  0.4883  1.6380
13372TIP3   OH261530   5.489   6.405  11.166 -0.2124 -0.1107 -0.1975
13372TIP3    H161531   5.458   6.348  11.095 -0.3038 -1.1086  0.6399
13372TIP3    H261532   5.520   6.483  11.121 -2.0000  0.0501 -1.2126
13373TIP3   OH261533   0.870   1.212  15.481  0.4373 -0.6693  0.0329
13373TIP3    H161534   0.902   1.128  15.514  1.1066 -0.3078  0.3001
13373TIP3    H261535   0.949   1.263  15.465  0.0583 -0.3594 -0.8516
13374TIP3   OH261536   5.399   5.812   1.127  0.9338  0.0634  0.2427
13374TIP3    H161537   5.446   5.878   1.077 -0.8937  0.9286 -0.3891
13374TIP3    H261538   5.446   5.731   1.110  0.9096  0.5139 -2.1182
13375TIP3   OH261539   0.977   0.463  12.125 -0.2243  0.0171 -0.3334
13375TIP3    H161540   1.049   0.401  12.134 -0.5252 -0.1521  0.9829
13375TIP3    H261541   1.017   0.540  12.084  1.0382  0.4572  1.6424
13376TIP3   OH261542   1.096   4.918  15.834 -0.1911  0.4810 -0.7226
13376TIP3    H161543   1.162   4.948  15.896  0.4009  0.7972 -1.4898
13376TIP3    H261544   1.092   4.824  15.847 -1.1750  0.7266  0.8533
13377TIP3   OH261545   0.373   5.609   1.447 -0.3592 -0.1356 -0.5081
13377TIP3    H161546   0.362   5.565   1.531 -2.7244 -0.5869 -1.0333
13377TIP3    H261547   0.467   5.602   1.429 -0.0378 -1.2152  1.4397
13378TIP3   OH261548   1.530   2.484  12.833 -0.7188  0.2551  0.0395
13378TIP3    H161549   1.540   2.579  12.828 -0.9542  0.2965  0.3563
13378TIP3    H261550   1.526   2.465  12.927 -1.4269  0.0148 -0.0323
13379TIP3   OH261551   3.814   3.924   1.562 -0.0460  0.3730 -0.0535
13379TIP3    H161552   3.869   3.912   1.640 -0.2671 -0.8621 -0.0782
13379TIP3    H261553   3.725   3.908   1.593 -0.2578  1.0123 -0.3197
13380TIP3   OH261554   4.887   5.020   6.254  0.1543  0.2393 -0.0853
13380TIP3    H161555   4.794   5.029   6.233 -0.2565  1.7098  2.1247
13380TIP3    H261556   4.932   5.070   6.186 -0.7930  0.8458 -0.2775
13381TIP3   OH261557   1.315   6.131   1.436  0.4065 -0.3582  0.2650
13381TIP3    H161558   1.357   6.086   1.509  0.4767  1.4523  1.3567
13381TIP3    H261559   1.367   6.107   1.360  1.3855 -0.8554  1.0816
13382TIP3   OH261560   6.088   2.154   0.175 -0.5513 -0.2270 -0.2052
13382TIP3    H161561   6.010   2.127   0.126  0.9338 -1.9333 -1.7076
13382TIP3    H261562   6.101   2.084   0.239  0.6176 -0.7026 -0.9645
13383TIP3   OH261563   5.207   5.454   4.458  0.0648  0.1296  0.5378
13383TIP3    H161564   5.214   5.406   4.541 -0.0281 -0.3303  0.2799
13383TIP3    H261565   5.130   5.511   4.470  0.7493  0.9369  1.2036
13384TIP3   OH261566   5.217   5.433  15.250  0.5102 -0.1514  0.6447
13384TIP3    H161567   5.289   5.494  15.233  2.1118 -1.8627  1.1079
13384TIP3    H261568   5.260   5.355  15.284 -1.5785 -1.2452  0.8222
13385TIP3   OH261569   4.854   4.254  13.830 -0.1003  0.6839  0.1532
13385TIP3    H161570   4.799   4.270  13.753 -1.1890  1.0161  0.9999
13385TIP3    H261571   4.809   4.184  13.877  0.1629  1.0020  0.8816
13386TIP3   OH261572   1.965   0.788  16.552  0.7677  0.0325 -0.7793
13386TIP3    H161573   1.949   0.871  16.507  2.3848  1.3943  1.1024
13386TIP3    H261574   2.060   0.782  16.559  0.7326 -2.7217 -2.2196
13387TIP3   OH261575   4.124   0.401   1.564 -0.0575 -0.0315 -0.8984
13387TIP3    H161576   4.073   0.337   1.615 -3.2307  0.9397 -2.6867
13387TIP3    H261577   4.116   0.482   1.614 -0.1485  0.0936 -1.1176
13388TIP3   OH261578   1.341   5.934   3.378 -0.2707  0.1664 -0.2309
13388TIP3    H161579   1.360   5.877   3.452 -0.2083 -1.9283 -1.8202
13388TIP3    H261580   1.251   5.913   3.354  0.5632 -1.1281 -2.3993
13389TIP3   OH261581   5.208   1.268   3.493  0.1071  0.5744 -0.2455
13389TIP3    H161582   5.158   1.227   3.564  2.0081  0.2654  0.9583
13389TIP3    H261583   5.218   1.199   3.427 -3.8911  1.6088 -2.0506
13390TIP3   OH261584   1.943   1.347  15.083  0.1594  0.1221  0.5976
13390TIP3    H161585   1.985   1.324  15.000  1.3100 -2.1955  1.7652
13390TIP3    H261586   1.857   1.307  15.078  0.4115 -0.4440  0.6988
13391TIP3   OH261587   5.456   3.280   4.167  0.1252 -0.6865 -0.1103
13391TIP3    H161588   5.401   3.356   4.149  0.9913  0.0468  0.3335
13391TIP3    H261589   5.395   3.206   4.165 -1.5870  0.4674  4.1712
13392TIP3   OH261590   0.825   4.499  14.188 -0.2692  0.4294 -0.7796
13392TIP3    H161591   0.809   4.509  14.095 -0.7592 -0.4494 -0.7966
13392TIP3    H261592   0.738   4.497  14.228 -0.0361  2.0071 -0.1735
13393TIP3   OH261593   0.075   1.065   5.864  0.3776 -0.4610  0.6178
13393TIP3    H161594   0.111   1.151   5.887 -2.0783  0.4706  1.1421
13393TIP3    H261595   0.034   1.034   5.945 -2.7918 -0.0228 -0.7631
13394TIP3   OH261596   6.336   2.312  14.215  0.3448  0.2847  0.0335
13394TIP3    H161597   6.379   2.376  14.159  1.4407 -1.1695 -0.8254
13394TIP3    H261598   6.244   2.338  14.215  0.8723  2.2519  0.2701
13395TIP3   OH261599   6.106   2.173  12.967 -0.0261  1.1396  0.3135
13395TIP3    H161600   6.147   2.259  12.972 -1.8711  1.9614  1.9710
13395TIP3    H261601   6.013   2.191  12.955 -0.2263 -0.6593 -1.0697
13396TIP3   OH261602   6.431   4.072   3.663 -0.3734  0.2899  0.1846
13396TIP3    H161603   6.476   4.004   3.713  1.2438 -1.4964 -3.5045
13396TIP3    H261604   6.498   4.138   3.645 -1.1659  1.3588  1.0834
13397TIP3   OH261605   5.744   1.914  12.832 -0.0929  0.0605  0.0335
13397TIP3    H161606   5.790   1.931  12.750  1.3809 -1.2520  0.5458
13397TIP3    H261607   5.728   1.819  12.832 -1.0405  0.2092  0.7677
13398TIP3   OH261608   6.193   2.827   6.358  0.1050 -0.1666 -0.1699
13398TIP3    H161609   6.207   2.773   6.436  1.0471  0.2269 -0.0587
13398TIP3    H261610   6.149   2.770   6.296 -1.5240 -0.2138  1.0016
13399TIP3   OH261611   3.009   5.074  16.297  0.4234 -0.5764 -0.8549
13399TIP3    H161612   2.951   5.037  16.364  0.3787 -0.2288 -0.7036
13399TIP3    H261613   3.092   5.089  16.343  0.3439 -0.1872 -0.8345
13400TIP3   OH261614   4.001   2.260   0.323 -0.3762 -0.4191 -0.1115
13400TIP3    H161615   3.962   2.180   0.288  0.6689  0.2481 -2.9117
13400TIP3    H261616   4.078   2.230   0.371 -0.8022 -1.2054  0.0994
13401TIP3   OH261617   3.772   4.888   5.179  0.1050 -0.5620 -0.2024
13401TIP3    H161618   3.737   4.971   5.148  1.2714 -0.3822 -1.0432
13401TIP3    H261619   3.706   4.823   5.153  0.0288 -0.1271 -1.1104
13402TIP3   OH261620   1.035   5.075  12.210 -0.2656  0.0086 -0.1494
13402TIP3    H161621   1.056   4.982  12.204  1.6425  0.4219 -0.1003
13402TIP3    H261622   1.003   5.086  12.300  1.4101 -0.2270  0.4870
13403TIP3   OH261623   6.433   1.436   5.259 -0.0654 -0.4798 -0.3168
13403TIP3    H161624   6.439   1.341   5.259  0.2655 -0.4649 -1.0808
13403TIP3    H261625   6.339   1.455   5.260 -0.1266 -0.8067  0.3159
13404TIP3   OH261626   4.902   6.441  11.609  0.0240 -0.1081 -0.3963
13404TIP3    H161627   4.857   6.361  11.635 -1.2808  0.3987 -1.0393
13404TIP3    H261628   4.926   6.426  11.518  1.8783 -0.6870  0.1761
13405TIP3   OH261629   2.944   4.375   3.690  0.1902  1.0357  0.1493
13405TIP3    H161630   2.856   4.403   3.666  0.0443 -0.0878 -0.6481
13405TIP3    H261631   2.945   4.380   3.785 -1.0872  0.0402  0.2316
13406TIP3   OH261632   0.721   1.055   3.574  0.3808 -0.3100  0.0646
13406TIP3    H161633   0.767   1.118   3.629  2.9613  0.5139 -2.9700
13406TIP3    H261634   0.636   1.097   3.556 -0.0487 -0.0964  2.3808
13407TIP3   OH261635   2.732   5.535  11.561  0.2021  0.0080 -0.2424
13407TIP3    H161636   2.660   5.589  11.593 -0.1926  0.0744 -1.2278
13407TIP3    H261637   2.690   5.464  11.513  0.5820 -2.6783  3.1920
13408TIP3   OH261638   6.088   0.190  13.878  0.4666  0.5141  0.0701
13408TIP3    H161639   6.146   0.118  13.905  0.4620 -1.1378 -3.9136
13408TIP3    H261640   6.010   0.180  13.932  1.6213 -0.7338  1.5528
13409TIP3   OH261641   4.473   3.792   4.757 -0.0563  0.4590 -0.6035
13409TIP3    H161642   4.515   3.761   4.677 -0.2352  1.2997 -1.0339
13409TIP3    H261643   4.380   3.771   4.744  0.5597 -4.2664  1.6900
13410TIP3   OH261644   5.008   5.650   4.514  0.7266  0.3251  0.0994
13410TIP3    H161645   4.928   5.700   4.496 -0.4164 -2.2066 -2.3325
13410TIP3    H261646   4.983   5.592   4.587 -0.1507 -1.3568 -1.4764
13411TIP3   OH261647   1.375   5.851   0.137 -0.3477 -0.6474  0.7780
13411TIP3    H161648   1.340   5.762   0.142  1.3733 -1.2472  2.6790
13411TIP3    H261649   1.345   5.884   0.052 -1.6222 -2.7654  0.3775
13412TIP3   OH261650   3.576   0.288   3.505  0.2112  0.2656  0.2404
13412TIP3    H161651   3.614   0.337   3.577  0.6377  1.6350 -0.8823
13412TIP3    H261652   3.485   0.315   3.503  0.4073  0.9113 -0.2736
13413TIP3   OH261653   2.829   4.928  14.658  0.2216  0.0708  0.2858
13413TIP3    H161654   2.853   4.858  14.596  1.6072  0.9305 -0.1541
13413TIP3    H261655   2.797   4.999  14.602 -0.6712  0.0078  0.7050
13414TIP3   OH261656   1.210   1.723   4.276 -0.4093  0.1017  0.0182
13414TIP3    H161657   1.179   1.633   4.269 -1.0732  0.0877  2.7781
13414TIP3    H261658   1.214   1.753   4.185 -1.7692 -2.1504 -0.8491
13415TIP3   OH261659   0.154   2.450  15.575  0.6681 -0.5271  0.2996
13415TIP3    H161660   0.208   2.373  15.594  1.5290  0.1095  0.4797
13415TIP3    H261661   0.211   2.507  15.524  0.1560  0.1567  0.4837
13416TIP3   OH261662   1.261   4.153  14.857  0.0191 -0.2007 -0.5142
13416TIP3    H161663   1.269   4.065  14.821  2.5602  0.2843 -1.2169
13416TIP3    H261664   1.248   4.209  14.781  0.1307  0.2227 -0.2221
13417TIP3   OH261665   1.135   6.338   1.509 -0.1989 -0.3366  0.3967
13417TIP3    H161666   1.202   6.339   1.578  0.3453  3.0800 -0.1000
13417TIP3    H261667   1.151   6.257   1.461  1.0612 -1.4943  2.6883
13418TIP3   OH261668   0.053   5.783   3.122 -0.0967  0.1072  0.6470
13418TIP3    H161669   0.117   5.772   3.051 -1.9387 -0.8695 -0.9040
13418TIP3    H261670  -0.014   5.841   3.085  0.1902  1.6416  2.4749
13419TIP3   OH261671   2.656   1.986   4.847  0.3697 -0.2794  0.7417
13419TIP3    H161672   2.735   1.955   4.802  1.4214  1.0199  1.6342
13419TIP3    H261673   2.688   2.021   4.930 -0.7720  2.6741  0.0241
13420TIP3   OH261674   6.137   3.067  16.252 -0.2934  0.7432 -0.3363
13420TIP3    H161675   6.098   3.037  16.334 -0.3120  0.6422 -0.3814
13420TIP3    H261676   6.113   3.159  16.246 -0.0292  0.8301 -0.0718
13421TIP3   OH261677   4.202   5.423   4.744 -0.2111 -0.2482 -0.2547
13421TIP3    H161678   4.174   5.473   4.668  0.1489 -0.1359 -0.3149
13421TIP3    H261679   4.265   5.480   4.789 -0.7051 -0.1591  0.3317
13422TIP3   OH261680   6.365   6.440  10.387 -0.5473  0.4311  0.0049
13422TIP3    H161681   6.304   6.502  10.427  0.4781  1.6888 -0.3444
13422TIP3    H261682   6.365   6.463  10.294 -0.1336 -0.0723 -0.1209
13423TIP3   OH261683   3.142   5.478   2.457 -0.4583  0.0261 -0.1131
13423TIP3    H161684   3.233   5.503   2.438 -0.2531  0.8024  1.8419
13423TIP3    H261685   3.115   5.535   2.528 -2.2581 -0.7029 -0.1824
13424TIP3   OH261686   5.581   1.102   3.098  0.6031 -0.9896 -0.0918
13424TIP3    H161687   5.515   1.033   3.103 -0.1058 -0.2707  0.6372
13424TIP3    H261688   5.646   1.077   3.164  0.4159 -1.0322  0.0775
13425TIP3   OH261689   0.008   2.731  15.436  0.0014 -0.1284  0.5079
13425TIP3    H161690  -0.026   2.651  15.476  1.7279 -1.2161 -0.1121
13425TIP3    H261691  -0.004   2.718  15.342  0.2276  0.3646  0.4082
13426TIP3   OH261692   0.234   3.468  12.265 -0.2151  0.0250 -0.4139
13426TIP3    H161693   0.153   3.509  12.234 -1.4351 -1.6779  0.4617
13426TIP3    H261694   0.206   3.383  12.300  2.0774 -0.9691 -0.9299
13427TIP3   OH261695   6.135   3.349   4.242  0.0774  0.4005 -0.4654
13427TIP3    H161696   6.119   3.433   4.198  1.7241  0.5479 -0.8227
13427TIP3    H261697   6.180   3.296   4.176 -2.2381 -1.3028 -0.7348
13428TIP3   OH261698   4.738   2.495  13.309 -0.0856  0.3224  0.3943
13428TIP3    H161699   4.765   2.415  13.354  0.4099  0.1786 -0.1434
13428TIP3    H261700   4.782   2.490  13.224 -2.6590 -0.3963 -0.9144
13429TIP3   OH261701   4.658   2.752  17.218 -0.3482 -0.4650 -0.0217
13429TIP3    H161702   4.728   2.796  17.266 -0.4149  1.4113 -1.5815
13429TIP3    H261703   4.700   2.677  17.178  0.5993  0.1955 -0.2735
13430TIP3   OH261704   3.739   4.455  11.850  0.5130 -0.1182  0.1200
13430TIP3    H161705   3.726   4.549  11.843  2.7802  0.1648 -0.7345
13430TIP3    H261706   3.673   4.417  11.792 -1.2227  0.8540  1.4178
13431TIP3   OH261707   3.884   6.472  16.384 -0.2335  0.0135  0.3453
13431TIP3    H161708   3.950   6.404  16.400 -0.1608  0.0038  0.0221
13431TIP3    H261709   3.928   6.554  16.406 -0.1134  0.0065  0.1373
13432TIP3   OH261710   6.762   5.934   1.294 -0.9201 -0.0498 -0.4303
13432TIP3    H161711   6.788   6.021   1.263 -1.2573  0.2954  0.2554
13432TIP3    H261712   6.845   5.886   1.301 -0.7817  0.0658 -1.2650
13433TIP3   OH261713   2.274   3.473   2.066  0.2199  0.3886 -0.0962
13433TIP3    H161714   2.318   3.488   2.150 -0.2843  0.4056  0.1689
13433TIP3    H261715   2.228   3.556   2.049  0.4460  0.4382 -0.4662
13434TIP3   OH261716   3.729   5.850  11.780 -0.1072  0.1933  0.3544
13434TIP3    H161717   3.819   5.845  11.813  0.0280  1.9617  0.3312
13434TIP3    H261718   3.726   5.785  11.710  1.2979  0.4041  0.0695
13435TIP3   OH261719   6.509   4.568   5.080 -0.6252  0.1551 -0.1956
13435TIP3    H161720   6.520   4.479   5.113  1.3182  0.3603 -0.2230
13435TIP3    H261721   6.415   4.579   5.070 -0.8352 -2.1718 -0.9434
13436TIP3   OH261722   5.029   6.210  12.496  0.1929 -0.6279 -0.2244
13436TIP3    H161723   5.062   6.141  12.438  0.0396 -0.5890 -0.3585
13436TIP3    H261724   4.946   6.237  12.456  0.6293  0.1697 -0.5970
13437TIP3   OH261725   5.916   0.678   1.419 -0.3040 -0.0624 -0.1147
13437TIP3    H161726   5.843   0.697   1.360  2.3591  2.1783 -2.8142
13437TIP3    H261727   5.926   0.757   1.472  1.8766  0.7262 -1.6578
13438TIP3   OH261728   5.719   1.878   1.854  0.1157  0.1364  0.1769
13438TIP3    H161729   5.766   1.800   1.822  0.9114  1.5032 -2.0842
13438TIP3    H261730   5.765   1.952   1.813 -2.0954  1.6677  0.4181
13439TIP3   OH261731   4.654   2.807   2.851 -0.0863  0.0828  0.1433
13439TIP3    H161732   4.664   2.740   2.784  0.0458  0.2011  0.0429
13439TIP3    H261733   4.579   2.860   2.822 -0.8870 -0.6813  0.7887
13440TIP3   OH261734   4.353   4.188  12.170 -0.0693 -0.2044 -0.2318
13440TIP3    H161735   4.448   4.188  12.168 -0.0550  1.5906 -0.1356
13440TIP3    H261736   4.330   4.111  12.222  1.3816  0.6181  1.6904
13441TIP3   OH261737   5.326   6.633  11.728 -0.1583  0.3016  0.2028
13441TIP3    H161738   5.256   6.568  11.738  0.5979 -0.4420  0.6761
13441TIP3    H261739   5.343   6.636  11.634 -0.8720  0.5353  0.0747
13442TIP3   OH261740   2.122   1.695  16.210 -0.2442  0.3671 -0.1721
13442TIP3    H161741   2.147   1.787  16.204  1.1299  0.2726  3.3776
13442TIP3    H261742   2.027   1.697  16.227  0.1715  1.2192  2.1474
13443TIP3   OH261743   1.461   6.397  15.017 -0.0503  0.2505 -0.0389
13443TIP3    H161744   1.405   6.467  14.984  1.1702  0.3889 -1.8567
13443TIP3    H261745   1.503   6.361  14.939  1.6170 -0.5332  1.1992
13444TIP3   OH261746   0.112   2.587  14.196 -0.6940 -0.0118 -0.1072
13444TIP3    H161747   0.038   2.615  14.249  0.6827  2.1912  0.7514
13444TIP3    H261748   0.098   2.630  14.112  0.6928  2.2401  0.7610
13445TIP3   OH261749   0.735   5.894  12.968  0.6261 -0.4012 -0.0790
13445TIP3    H161750   0.742   5.932  13.056 -0.8211 -0.2174 -0.0414
13445TIP3    H261751   0.711   5.968  12.912  0.2313 -0.7851 -0.4141
13446TIP3   OH261752   1.389   4.229   3.266 -0.1057 -0.2609 -0.4592
13446TIP3    H161753   1.339   4.307   3.244  2.3940  1.3105 -0.8723
13446TIP3    H261754   1.432   4.205   3.183 -0.0427 -1.4545 -0.0872
13447TIP3   OH261755   4.694   5.212   4.702 -0.2525 -0.3524 -0.0902
13447TIP3    H161756   4.701   5.182   4.793  0.2823  0.4524  0.1421
13447TIP3    H261757   4.690   5.132   4.650  3.8179 -0.9079  0.2884
13448TIP3   OH261758   3.628   2.648  15.329 -0.7411  0.4107  0.1425
13448TIP3    H161759   3.633   2.560  15.290 -0.6650  0.3701  0.2402
13448TIP3    H261760   3.670   2.705  15.265  1.0575  0.0657  0.9611
13449TIP3   OH261761   4.178   0.653  12.221 -0.4498  0.2727  0.1439
13449TIP3    H161762   4.139   0.703  12.149 -0.2269  0.0067 -0.1614
13449TIP3    H261763   4.264   0.692  12.232  0.1208 -0.6941 -0.7679
13450TIP3   OH261764   4.299   3.103  14.953  0.5639  0.0610 -0.1033
13450TIP3    H161765   4.349   3.021  14.954  0.0318 -0.2650  0.1968
13450TIP3    H261766   4.281   3.120  14.861 -0.8715 -1.1223 -0.0627
13451TIP3   OH261767   3.071   4.108   0.986  0.0833 -0.2122  0.3482
13451TIP3    H161768   3.136   4.041   0.968 -1.5233 -1.7634  0.1643
13451TIP3    H261769   3.079   4.170   0.913  2.3380  0.4475  1.1064
13452TIP3   OH261770   2.510   4.085   3.200  0.5245 -0.1019  0.0541
13452TIP3    H161771   2.501   4.179   3.182 -0.0012 -0.3044 -0.7693
13452TIP3    H261772   2.539   4.081   3.291 -0.2954  0.8427  0.3756
13453TIP3   OH261773   2.814   4.270  12.430 -0.1760  0.6381  0.3719
13453TIP3    H161774   2.850   4.202  12.373  0.1632  1.9034 -0.9711
13453TIP3    H261775   2.872   4.271  12.506  0.9948  0.7608 -0.5074
13454TIP3   OH261776   0.283   5.419   0.608 -0.5116  0.1456 -0.1475
13454TIP3    H161777   0.323   5.358   0.669 -2.2791 -0.4539  0.4286
13454TIP3    H261778   0.330   5.404   0.525  0.6827 -0.2740  0.5926
13455TIP3   OH261779   1.237   5.257  12.559  0.5139 -0.3866  0.2287
13455TIP3    H161780   1.327   5.240  12.531  0.7497  0.4746  0.4498
13455TIP3    H261781   1.183   5.236  12.483  0.9825  0.0177 -0.2137
13456TIP3   OH261782   4.873   5.879   0.344 -0.2192  0.0704  0.1221
13456TIP3    H161783   4.807   5.812   0.360 -0.1477 -0.3503 -1.2245
13456TIP3    H261784   4.950   5.830   0.313 -0.5588  0.8434 -2.0041
13457TIP3   OH261785   1.827   1.429   2.500 -0.6199 -0.1907  0.2285
13457TIP3    H161786   1.837   1.425   2.595  2.6732 -1.8778 -0.1120
13457TIP3    H261787   1.797   1.518   2.482  1.3967  1.0199  2.6671
13458TIP3   OH261788   2.595   0.727  15.943 -0.4239  0.3519  0.0691
13458TIP3    H161789   2.562   0.781  15.870 -3.3190  0.9554  1.7840
13458TIP3    H261790   2.595   0.786  16.018  0.0314 -1.0231  1.1663
13459TIP3   OH261791   0.490   3.751  15.724  0.6982  0.0541  0.3148
13459TIP3    H161792   0.480   3.668  15.770  1.5543  0.8087  1.8983
13459TIP3    H261793   0.580   3.748  15.690  0.7669  0.3688  0.4667
13460TIP3   OH261794   4.087   1.871  15.912  0.3297  0.5752  0.4290
13460TIP3    H161795   4.127   1.794  15.952  2.0950  1.3070  0.1224
13460TIP3    H261796   4.049   1.920  15.984  2.5401  1.3370  1.1078
13461TIP3   OH261797   5.714   1.377  11.829 -0.4326 -0.0817  0.5105
13461TIP3    H161798   5.660   1.405  11.754 -0.8547 -1.9309  0.0951
13461TIP3    H261799   5.796   1.347  11.789 -0.2314 -0.0513  0.9004
13462TIP3   OH261800   3.569   3.879  13.713 -0.6585  0.3298  0.1346
13462TIP3    H161801   3.654   3.890  13.670 -0.4227  1.1856  0.8138
13462TIP3    H261802   3.553   3.784  13.710 -0.0125  0.2406 -0.6277
13463TIP3   OH261803   0.592   0.490  14.506 -0.0746 -0.0736  0.2610
13463TIP3    H161804   0.525   0.422  14.512 -1.6382  1.3290 -0.8602
13463TIP3    H261805   0.667   0.447  14.464 -1.1999 -0.9846 -0.8332
13464TIP3   OH261806   4.761   3.918  14.639  0.4580 -0.3145  0.4623
13464TIP3    H161807   4.808   3.993  14.674  0.1149 -0.5596  1.4537
13464TIP3    H261808   4.700   3.955  14.575  0.1133  0.2756  1.1310
13465TIP3   OH261809   3.597   0.856   5.141 -0.1016 -0.5206 -0.2144
13465TIP3    H161810   3.540   0.799   5.090 -1.8684  0.1443  0.9656
13465TIP3    H261811   3.580   0.944   5.108 -0.2241 -0.2460  0.5618
13466TIP3   OH261812   4.188   0.869   4.718  0.0568 -0.0364  0.3051
13466TIP3    H161813   4.253   0.863   4.649  0.7666  0.9043  0.8783
13466TIP3    H261814   4.189   0.960   4.745 -0.7357 -0.2344  1.0605
13467TIP3   OH261815   2.804   0.052   5.228  0.1254  0.2419  0.2295
13467TIP3    H161816   2.851  -0.020   5.270  1.4135  0.8673 -0.1079
13467TIP3    H261817   2.773   0.106   5.301 -4.0947 -2.5627  0.6838
13468TIP3   OH261818   2.689   2.301   1.834 -0.0907  0.7723  0.0841
13468TIP3    H161819   2.598   2.303   1.807  0.0971 -0.3198 -0.6504
13468TIP3    H261820   2.730   2.373   1.784 -0.2656  0.3769 -0.6340
13469TIP3   OH261821   2.320   3.695  11.957 -0.4038 -0.3760  0.2715
13469TIP3    H161822   2.353   3.695  12.047 -1.9877 -1.3206  0.8793
13469TIP3    H261823   2.392   3.731  11.905  0.6178 -0.0353  1.8816
13470TIP3   OH261824   6.575   2.337   4.323  0.2064 -0.3564 -0.3981
13470TIP3    H161825   6.508   2.393   4.362  0.8416  0.6617 -0.7435
13470TIP3    H261826   6.533   2.302   4.244 -0.0595 -0.0302 -0.4059
13471TIP3   OH261827   5.687   2.316   3.520 -0.3242  0.1065  0.0518
13471TIP3    H161828   5.770   2.277   3.492  0.3033  0.3050  1.5633
13471TIP3    H261829   5.635   2.321   3.441  0.7493 -0.9357 -0.7411
13472TIP3   OH261830   1.144   3.895  10.372  0.3159  0.5904 -0.4480
13472TIP3    H161831   1.219   3.882  10.431 -0.2071  2.8796  0.7799
13472TIP3    H261832   1.068   3.867  10.424 -0.0137  1.3152 -0.5436
13473TIP3   OH261833   0.223   4.268   1.899 -0.0252 -0.2458 -0.0150
13473TIP3    H161834   0.290   4.306   1.843  0.0317  0.6349  0.6387
13473TIP3    H261835   0.153   4.334   1.902  0.0756 -0.1784  1.1327
13474TIP3   OH261836   2.291   0.169   2.584  0.4994  0.2496 -0.0213
13474TIP3    H161837   2.277   0.262   2.600  0.0570  0.3483 -0.9407
13474TIP3    H261838   2.318   0.164   2.493  1.6941 -0.4133  0.3643
13475TIP3   OH261839   3.358   1.396   4.177 -0.3195 -0.0397  0.0103
13475TIP3    H161840   3.399   1.481   4.162 -1.2147  0.3684 -0.1567
13475TIP3    H261841   3.339   1.363   4.089  1.2911 -1.0514  0.0210
13476TIP3   OH261842   2.639   5.917  11.607  0.0029  0.1761 -0.2881
13476TIP3    H161843   2.597   6.003  11.606 -0.1809  0.1049  0.5451
13476TIP3    H261844   2.676   5.910  11.695 -2.8429 -1.9795  0.8306
13477TIP3   OH261845   0.290   3.007   1.800  0.2676  0.3336 -0.8275
13477TIP3    H161846   0.231   2.959   1.742 -0.0316 -1.2024  0.7066
13477TIP3    H261847   0.233   3.038   1.871  1.5486 -2.9212  1.7686
13478TIP3   OH261848   1.843   0.339  14.231 -0.0473 -0.2178  0.0273
13478TIP3    H161849   1.801   0.392  14.299  0.2683 -0.1925  0.2040
13478TIP3    H261850   1.818   0.249  14.251 -0.2624 -0.1769 -0.0469
13479TIP3   OH261851   4.559   4.804  12.757  0.7992 -0.0428  0.5379
13479TIP3    H161852   4.519   4.833  12.839  0.0069 -0.7908  0.4184
13479TIP3    H261853   4.577   4.885  12.709 -0.3703  0.3124  0.6834
13480TIP3   OH261854   4.572   3.066   5.911 -0.3450 -0.7694  0.6287
13480TIP3    H161855   4.608   3.029   5.830 -0.5615  0.0096  0.1779
13480TIP3    H261856   4.577   2.994   5.974  0.5943 -1.1310  0.1511
13481TIP3   OH261857   2.155   1.745   5.939  0.4307  0.2193 -0.7922
13481TIP3    H161858   2.192   1.753   6.027  1.1818 -2.5964 -0.8195
13481TIP3    H261859   2.208   1.678   5.897 -0.7137  0.6701 -2.9889
13482TIP3   OH261860   3.759   1.753  14.217  0.5687 -0.0507  0.1000
13482TIP3    H161861   3.847   1.752  14.181  0.6622 -1.8951  0.3586
13482TIP3    H261862   3.771   1.747  14.312  0.1695  0.1230  0.1651
13483TIP3   OH261863   5.404   3.694   1.902 -0.4929 -0.3809 -0.1763
13483TIP3    H161864   5.455   3.731   1.974 -1.9802  0.0674  0.6565
13483TIP3    H261865   5.385   3.605   1.930  0.6652 -0.8871 -0.9363
13484TIP3   OH261866   5.440   0.844   3.515  0.1672 -0.0159 -0.0940
13484TIP3    H161867   5.532   0.823   3.499 -0.0254 -0.7429 -0.2531
13484TIP3    H261868   5.406   0.872   3.431  0.0094 -0.6482 -0.2480
13485TIP3   OH261869   2.580   1.680   4.063  0.5142  0.4469  0.0323
13485TIP3    H161870   2.603   1.598   4.105  0.5072  0.4847  0.1099
13485TIP3    H261871   2.488   1.670   4.039  0.9947 -0.2717 -1.6049
13486TIP3   OH261872   4.240   4.406  12.259  0.2434  0.3009  0.2260
13486TIP3    H161873   4.318   4.458  12.241  0.5529 -0.1590  0.2247
13486TIP3    H261874   4.261   4.319  12.225 -0.2582  0.1696  0.2509
13487TIP3   OH261875   2.917   4.653  11.283 -0.1527  0.1445  0.2651
13487TIP3    H161876   2.942   4.703  11.206  0.7618 -0.5196  0.1082
13487TIP3    H261877   2.982   4.678  11.350 -0.1088 -0.3012  0.3922
13488TIP3   OH261878   4.267   2.103  15.350  0.1342 -0.4500  0.2746
13488TIP3    H161879   4.250   2.040  15.279 -0.4089 -1.8936  1.6643
13488TIP3    H261880   4.196   2.088  15.412  0.4106  1.0632  0.9734
13489TIP3   OH261881   1.909   3.127   4.669  0.0062  0.2365  0.4197
13489TIP3    H161882   1.992   3.163   4.637  0.2094 -0.7190 -0.1411
13489TIP3    H261883   1.851   3.130   4.593 -0.8464  1.9805  1.1084
13490TIP3   OH261884   4.468   2.110  14.698  0.6143 -0.3858  0.1660
13490TIP3    H161885   4.404   2.112  14.770 -0.1785 -0.1888 -0.5379
13490TIP3    H261886   4.418   2.137  14.621  0.9303 -2.6837 -0.8745
13491TIP3   OH261887   1.696   6.402  15.149  0.3262 -0.6380 -0.2028
13491TIP3    H161888   1.623   6.372  15.095 -0.5870 -1.1982  1.3176
13491TIP3    H261889   1.708   6.332  15.213  1.2871  0.1081  0.4310
13492TIP3   OH261890   4.887   5.337   0.855  0.7130  0.6494 -0.5366
13492TIP3    H161891   4.873   5.246   0.829 -0.5960  0.4213  0.8794
13492TIP3    H261892   4.982   5.346   0.861  0.8294 -0.8399  0.0542
13493TIP3   OH261893   1.298   5.865  16.061  0.1693 -0.2384  0.9769
13493TIP3    H161894   1.370   5.833  16.006 -1.0787 -1.2425 -0.0924
13493TIP3    H261895   1.222   5.813  16.034 -0.5560 -0.4811  3.3647
13494TIP3   OH261896   1.739   0.266   1.610  0.1069  0.0169  0.0961
13494TIP3    H161897   1.718   0.197   1.547  0.3911 -0.3964  0.4499
13494TIP3    H261898   1.829   0.291   1.588  0.6915 -1.0957  1.2316
13495TIP3   OH261899   4.633   3.314   1.109 -0.0627 -0.1189 -0.5354
13495TIP3    H161900   4.680   3.370   1.170 -1.0553  0.9610 -0.7330
13495TIP3    H261901   4.565   3.371   1.073 -2.7494 -2.1264  1.1589
13496TIP3   OH261902   2.882   1.076  15.745 -0.6668 -0.1823 -0.1553
13496TIP3    H161903   2.917   1.071  15.834 -1.8985  0.3291  0.3694
13496TIP3    H261904   2.953   1.044  15.690 -0.2513 -1.4849  1.1039
13497TIP3   OH261905   2.106   2.220  12.629  0.4683  0.1374  0.2645
13497TIP3    H161906   2.100   2.203  12.723 -0.2781 -0.0289  0.1928
13497TIP3    H261907   2.073   2.139  12.588  0.9309  0.1481 -0.1460
13498TIP3   OH261908   5.506   3.626   1.441  0.0168  0.0578  0.3823
13498TIP3    H161909   5.475   3.676   1.516 -0.4093  0.1932  0.1199
13498TIP3    H261910   5.560   3.687   1.391 -0.7906  0.3723 -0.1258
13499TIP3   OH261911   6.300   6.535   5.205 -0.2312  0.7482 -0.9198
13499TIP3    H161912   6.313   6.464   5.141  1.0600  0.9620 -0.9142
13499TIP3    H261913   6.306   6.492   5.290 -0.0178  0.7589 -0.9271
13500TIP3   OH261914   2.982   1.034   1.590  0.3571  0.4845  0.1447
13500TIP3    H161915   2.966   1.001   1.678  1.6183 -1.0655 -0.1711
13500TIP3    H261916   3.077   1.046   1.586  0.1727  1.7250 -0.5993
13501TIP3   OH261917   2.558   4.884   0.379  0.3043 -0.3809 -0.8140
13501TIP3    H161918   2.563   4.978   0.395  1.5193 -0.4095 -0.9582
13501TIP3    H261919   2.488   4.853   0.435  2.4167  0.0055  2.1423
13502TIP3   OH261920   0.596   0.807   3.663 -0.2033 -0.2871 -0.2149
13502TIP3    H161921   0.516   0.845   3.699 -0.7767  0.1250 -1.8995
13502TIP3    H261922   0.654   0.882   3.651 -1.1575  0.0709 -3.0773
13503TIP3   OH261923   0.592   0.665  15.557  0.5716 -0.1992  0.3755
13503TIP3    H161924   0.669   0.614  15.581  0.6088  0.1791  1.0778
13503TIP3    H261925   0.524   0.599  15.539  1.4246 -0.5679 -1.5695
13504TIP3   OH261926   4.636   5.716  11.119  0.0961  0.2082 -0.1886
13504TIP3    H161927   4.709   5.654  11.120  0.8374  1.0392 -1.1807
13504TIP3    H261928   4.588   5.694  11.038 -0.1037  0.3979 -0.1211
13505TIP3   OH261929   0.719   1.201  13.763 -0.3459  0.7337 -0.1969
13505TIP3    H161930   0.773   1.129  13.796  1.3924  0.9761 -2.3384
13505TIP3    H261931   0.739   1.274  13.821  1.3880  0.7044 -0.7061
13506TIP3   OH261932   1.598   0.273   1.840  0.4780 -0.0745  0.1816
13506TIP3    H161933   1.624   0.276   1.748  0.4531 -0.4135  0.1602
13506TIP3    H261934   1.504   0.290   1.840  0.4772 -0.0795  0.1434
13507TIP3   OH261935   4.335   5.577   5.649 -0.0908  0.1988  0.0365
13507TIP3    H161936   4.277   5.541   5.716 -1.6060 -4.2663 -3.3682
13507TIP3    H261937   4.423   5.560   5.682 -0.7848 -0.4094  1.6188
13508TIP3   OH261938   2.781   0.332   3.581 -0.4123  0.0729  0.2262
13508TIP3    H161939   2.846   0.403   3.581  0.2383 -0.4951  1.3090
13508TIP3    H261940   2.697   0.377   3.584 -0.0223  0.8167  0.2651
13509TIP3   OH261941   4.372   3.994   4.339 -0.1169  0.4451  0.4138
13509TIP3    H161942   4.425   4.067   4.369 -1.4606  1.5279  0.2234
13509TIP3    H261943   4.345   4.018   4.250  0.0755 -0.6377  0.0548
13510TIP3   OH261944   1.578   1.643   2.681 -0.4274 -0.3856  0.6087
13510TIP3    H161945   1.611   1.610   2.764 -1.5843 -1.0638  0.8101
13510TIP3    H261946   1.513   1.709   2.705  0.2611  0.4493  0.2225
13511TIP3   OH261947   5.058   1.185  14.215 -0.0608 -0.0548 -0.5659
13511TIP3    H161948   4.971   1.150  14.202 -0.3219 -0.3484  1.7325
13511TIP3    H261949   5.103   1.171  14.132 -2.1039 -0.1235 -1.6824
13512TIP3   OH261950   2.390   3.804   1.290 -0.3508 -0.0246  0.1564
13512TIP3    H161951   2.312   3.832   1.242  0.3135 -1.9613 -2.1062
13512TIP3    H261952   2.378   3.710   1.302  1.6646 -0.3388 -0.2398
13513TIP3   OH261953   2.845   5.469  14.347 -0.8497  0.2695  0.1221
13513TIP3    H161954   2.763   5.494  14.390 -1.5283 -0.4601 -0.7376
13513TIP3    H261955   2.822   5.393  14.295  0.2213  0.4958 -0.6860
13514TIP3   OH261956   3.236   0.430  16.074  0.3997  0.7184 -0.0362
13514TIP3    H161957   3.159   0.401  16.025 -0.0797 -1.6011  1.9983
13514TIP3    H261958   3.218   0.522  16.094 -1.5700  0.3752 -0.1107
13515TIP3   OH261959   5.580   6.277  12.946  0.5263 -0.5101  0.6117
13515TIP3    H161960   5.566   6.304  12.855  1.8564  0.6092  0.7339
13515TIP3    H261961   5.639   6.202  12.939 -0.7561 -1.5328  0.4659
13516TIP3   OH261962   0.108   0.747  11.787  0.0754  0.3635  0.2454
13516TIP3    H161963   0.027   0.708  11.822 -0.9281  3.4117  1.4421
13516TIP3    H261964   0.081   0.790  11.706  1.1970 -1.3214 -1.0841
13517TIP3   OH261965   3.907   0.221   3.721 -0.2790  0.2597 -0.0935
13517TIP3    H161966   3.837   0.157   3.732  0.3007 -0.1280  1.5223
13517TIP3    H261967   3.946   0.200   3.636  0.1825 -1.8199  0.6033
13518TIP3   OH261968   3.313   5.919  14.279 -0.2036 -0.4069 -0.0422
13518TIP3    H161969   3.403   5.938  14.306 -0.0319 -0.2314 -0.7502
13518TIP3    H261970   3.260   5.944  14.355 -0.1757  4.5752 -1.5161
13519TIP3   OH261971   4.429   4.419   1.844 -0.9644 -0.3099 -0.2301
13519TIP3    H161972   4.464   4.500   1.807  0.0161 -0.9463 -0.6772
13519TIP3    H261973   4.465   4.415   1.933  0.6348 -1.3026 -0.9186
13520TIP3   OH261974   0.071   6.629   3.966  0.1569  0.0485  0.1356
13520TIP3    H161975   0.154   6.603   4.005  0.9232  1.1362 -0.7418
13520TIP3    H261976   0.031   6.547   3.938  0.3346 -0.5933  1.7201
13521TIP3   OH261977   2.963   2.387   3.264  0.0589 -0.1506 -0.3787
13521TIP3    H161978   2.931   2.333   3.336 -1.3425 -3.5103 -3.3459
13521TIP3    H261979   3.058   2.386   3.274 -0.0782 -1.2923  0.9261
13522TIP3   OH261980   4.451   0.466   4.613 -0.3654 -0.0543  0.0255
13522TIP3    H161981   4.417   0.500   4.530 -0.8165 -0.4063  0.0675
13522TIP3    H261982   4.482   0.544   4.660  1.1361  0.0078 -1.0391
13523TIP3   OH261983   3.834   6.191  13.653 -0.7156  0.4091  0.5574
13523TIP3    H161984   3.852   6.190  13.559  1.4613 -3.2458  0.9172
13523TIP3    H261985   3.745   6.158  13.661 -0.4639 -0.4797 -0.1792
13524TIP3   OH261986   2.098   2.574  15.246  0.4936 -0.4598  0.0452
13524TIP3    H161987   2.091   2.655  15.195  1.9865 -0.4052 -0.0699
13524TIP3    H261988   2.007   2.553  15.268 -0.1194  0.0282 -1.8401
13525TIP3   OH261989   1.186   2.298  13.469  0.5785 -0.6965 -0.2009
13525TIP3    H161990   1.203   2.393  13.465 -1.5047 -0.3230 -1.3269
13525TIP3    H261991   1.132   2.281  13.391  0.8943 -2.8089  0.0221
13526TIP3   OH261992   5.474   0.671  13.318  0.4165  0.6870  0.2728
13526TIP3    H161993   5.411   0.630  13.377  0.2622  0.8753  0.2380
13526TIP3    H261994   5.421   0.720  13.255  0.6511  3.3285  2.0455
13527TIP3   OH261995   4.869   5.657   4.155  0.3301 -0.1741  0.2027
13527TIP3    H161996   4.826   5.716   4.093 -1.7078 -1.0487  0.7382
13527TIP3    H261997   4.871   5.706   4.237 -1.1055 -0.7247  0.5765
13528TIP3   OH261998   1.734   6.762   0.812  0.2232 -0.6577  1.0189
13528TIP3    H161999   1.675   6.815   0.758  0.1718 -1.9019 -0.1675
13528TIP3    H262000   1.786   6.827   0.861 -0.2987  0.4761  0.0973
13529TIP3   OH262001   0.390   6.666   2.460 -0.1510  0.1297 -0.1264
13529TIP3    H162002   0.469   6.719   2.453 -0.7755  1.1757  0.6825
13529TIP3    H262003   0.421   6.575   2.461  1.0022  0.5249 -0.1923
13530TIP3   OH262004   1.224   5.469   5.528 -0.4214  0.1650 -0.5149
13530TIP3    H162005   1.224   5.393   5.470 -0.3427  0.3410 -0.7503
13530TIP3    H262006   1.290   5.528   5.490  0.0257  0.0453  0.0721
13531TIP3   OH262007   5.751   4.978   5.499 -0.3077  0.4449  0.6916
13531TIP3    H162008   5.701   4.950   5.423 -2.7469  0.4759  2.2079
13531TIP3    H262009   5.762   5.073   5.488 -0.8227  0.4783  0.4662
13532TIP3   OH262010   2.138   5.684  11.187  0.3371  0.7382  0.0926
13532TIP3    H162011   2.182   5.705  11.104 -3.5491  0.1799 -2.2617
13532TIP3    H262012   2.168   5.595  11.207  0.3853  0.4084 -1.3799
13533TIP3   OH262013   3.817   6.113  15.902  0.0981 -0.1522  0.5872
13533TIP3    H162014   3.787   6.029  15.868 -0.4317  0.0222  0.6190
13533TIP3    H262015   3.797   6.176  15.832  0.2330 -0.0067  0.6789
13534TIP3   OH262016   0.285   3.491  16.860  0.0196  0.4757  0.1526
13534TIP3    H162017   0.302   3.534  16.944 -0.2936 -1.6633  1.3536
13534TIP3    H262018   0.293   3.560  16.795  0.7894  2.0645  1.9085
13535TIP3   OH262019   2.010   1.458  16.391  0.0732 -0.4794 -1.0841
13535TIP3    H162020   1.956   1.481  16.467 -0.8224  0.6733 -2.0640
13535TIP3    H262021   2.095   1.436  16.429 -0.4487 -0.2063  0.2868
13536TIP3   OH262022   4.531   5.819  14.596 -0.6030 -0.4810 -0.2097
13536TIP3    H162023   4.568   5.836  14.683 -1.9935 -2.7985  0.8957
13536TIP3    H262024   4.553   5.728  14.578  0.1029  0.1299 -2.5509
13537TIP3   OH262025   2.146   6.091  16.076  0.2600  0.2573  0.6223
13537TIP3    H162026   2.124   6.000  16.054  1.3285  0.4626 -1.4480
13537TIP3    H262027   2.195   6.084  16.159 -1.3263 -0.8435  1.4929
13538TIP3   OH262028   1.204   1.758  13.865  0.5148  0.0964  0.6341
13538TIP3    H162029   1.129   1.806  13.902 -2.0061 -3.0515 -0.1202
13538TIP3    H262030   1.258   1.736  13.941 -1.4457 -1.0149  1.7640
13539TIP3   OH262031   5.127   5.350   4.221 -0.3785  0.2203 -0.3012
13539TIP3    H162032   5.185   5.292   4.172 -0.5033 -0.4732  0.3535
13539TIP3    H262033   5.172   5.365   4.304 -0.8772  0.1103 -0.0046
13540TIP3   OH262034   1.314   2.620   2.577 -0.1060 -0.1605  0.0761
13540TIP3    H162035   1.345   2.665   2.655  1.1430 -1.7344  0.5245
13540TIP3    H262036   1.244   2.563   2.608 -1.3145  1.0345 -0.3979
13541TIP3   OH262037   3.073   0.049   4.920 -0.5431 -0.4697  0.0750
13541TIP3    H162038   2.988   0.091   4.934  0.1214  0.6038  1.0225
13541TIP3    H262039   3.121   0.064   5.002  0.1906 -1.9628 -0.0586
13542TIP3   OH262040   2.129   0.951   5.540  0.2374  0.2514  0.4631
13542TIP3    H162041   2.193   0.923   5.606  0.0412  1.7196  1.2850
13542TIP3    H262042   2.056   0.986   5.591 -1.7152 -2.3618 -0.4145
13543TIP3   OH262043   3.044   6.692   2.378  0.1885  0.1868  0.4875
13543TIP3    H162044   2.982   6.621   2.392  2.4897 -1.4130  3.1332
13543TIP3    H262045   3.083   6.674   2.292 -1.5534  0.1047 -0.2958
13544TIP3   OH262046   5.518   2.674   1.894 -0.6992 -0.0078 -0.5078
13544TIP3    H162047   5.535   2.582   1.913  0.0574  0.0191 -1.0426
13544TIP3    H262048   5.576   2.694   1.821  0.8585  1.5293  1.1230
13545TIP3   OH262049   1.747   2.031  12.897 -0.2016 -0.1083  0.1698
13545TIP3    H162050   1.745   1.961  12.963  0.5553  0.3570  0.6955
13545TIP3    H262051   1.781   2.107  12.943 -0.7659  0.5444 -0.4711
13546TIP3   OH262052   0.394   4.593  13.546 -0.0778 -0.3409 -0.1868
13546TIP3    H162053   0.400   4.526  13.477 -1.3554  0.3161 -0.9640
13546TIP3    H262054   0.334   4.555  13.610 -2.2808  0.7607 -1.5144
13547TIP3   OH262055   5.020   6.416   4.165 -0.1793 -0.6282  0.5317
13547TIP3    H162056   5.077   6.431   4.089 -2.1797  0.9307 -0.7331
13547TIP3    H262057   4.971   6.337   4.143 -1.4273  0.3443 -0.2591
13548TIP3   OH262058   2.183   6.643  13.678 -0.3406  0.0105 -0.5510
13548TIP3    H162059   2.270   6.682  13.685 -0.0953 -0.6602  0.2098
13548TIP3    H262060   2.175   6.589  13.756 -2.1657  1.4699  0.3009
13549TIP3   OH262061   4.167   1.722   3.436 -0.1665  0.4737  0.6341
13549TIP3    H162062   4.138   1.649   3.490  0.8008 -0.2427  0.1969
13549TIP3    H262063   4.247   1.753   3.478  0.9576 -0.5122 -0.7232
13550TIP3   OH262064   1.780   6.247   2.585  0.1002 -0.4304  0.5466
13550TIP3    H162065   1.794   6.257   2.491 -2.8795 -1.0946 -0.0384
13550TIP3    H262066   1.812   6.159   2.605  0.4363 -0.4136  0.0803
13551TIP3   OH262067   0.509   4.330  12.780  0.1618  0.5192 -0.2478
13551TIP3    H162068   0.485   4.417  12.746 -1.0355 -0.2415 -1.4220
13551TIP3    H262069   0.431   4.277  12.765 -0.1216 -0.0928  2.9524
13552TIP3   OH262070   6.717   4.002  11.957 -0.2972  0.0496 -0.4728
13552TIP3    H162071   6.669   4.024  12.037 -2.3025  1.8383 -2.0763
13552TIP3    H262072   6.726   4.086  11.911  0.8252 -0.9383 -2.1014
13553TIP3   OH262073   4.508   1.155   4.654 -0.2615  0.0119  0.1296
13553TIP3    H162074   4.530   1.240   4.616 -1.0444  0.4280  0.5762
13553TIP3    H262075   4.588   1.103   4.645 -0.0136  0.5451 -0.8280
13554TIP3   OH262076   3.510   5.725   1.692 -0.2356 -0.1625  0.2680
13554TIP3    H162077   3.570   5.660   1.730 -0.9251 -0.3865  0.9678
13554TIP3    H262078   3.559   5.807   1.696  0.6063 -0.6187 -0.5383
13555TIP3   OH262079   3.802   5.664  14.960  0.0526 -0.3159 -0.0791
13555TIP3    H162080   3.787   5.682  15.053 -1.0854 -0.9778 -0.1265
13555TIP3    H262081   3.895   5.680  14.947 -0.0694  1.2472  0.8504
13556TIP3   OH262082   5.939   3.027   5.636  0.0703 -0.0994 -0.5416
13556TIP3    H162083   5.877   2.968   5.594  0.0857 -1.2397  0.9799
13556TIP3    H262084   6.008   3.040   5.571  0.9184 -3.1366 -0.3067
13557TIP3   OH262085   2.074   5.925   5.756  0.6771  0.4692 -0.4339
13557TIP3    H162086   2.029   5.847   5.723  2.8064 -1.0119  0.1035
13557TIP3    H262087   2.109   5.967   5.678  2.0435 -0.7149 -0.4728
13558TIP3   OH262088   6.389   4.829  11.036 -0.3412 -0.1602  0.5440
13558TIP3    H162089   6.306   4.876  11.045 -0.1178  0.1517  1.0166
13558TIP3    H262090   6.436   4.848  11.117  0.6516  0.5608 -0.1917
13559TIP3   OH262091   3.966   2.447  11.530 -0.2666 -0.2959  0.0071
13559TIP3    H162092   3.923   2.482  11.607  0.4916 -0.9261  0.7303
13559TIP3    H262093   4.056   2.480  11.536 -0.1942 -0.3878 -0.5758
13560TIP3   OH262094   0.532   4.595   3.301  0.3369  0.6899 -0.4778
13560TIP3    H162095   0.452   4.646   3.314 -0.6802 -1.3853  1.8811
13560TIP3    H262096   0.596   4.658   3.269 -1.5492  2.9157  0.0282
13561TIP3   OH262097   4.932   1.396  13.727  0.3629  0.1256  0.5765
13561TIP3    H162098   4.886   1.368  13.648  1.2810 -0.8711  0.3833
13561TIP3    H262099   4.969   1.316  13.763  2.6606  1.0287  0.2684
13562TIP3   OH262100   5.825   2.523   4.279  0.1405  0.5456 -0.4896
13562TIP3    H162101   5.764   2.529   4.353 -1.5691  0.8585 -1.8929
13562TIP3    H262102   5.814   2.434   4.246 -0.1488  0.8513 -1.2345
13563TIP3   OH262103   1.281   0.445  11.362 -0.2690  0.0272 -0.3627
13563TIP3    H162104   1.255   0.537  11.358  0.6242  0.3130  0.3476
13563TIP3    H262105   1.282   0.416  11.271  0.5969  1.0361 -0.6743
13564TIP3   OH262106   4.186   1.765  14.321  0.6183 -0.0351  0.5765
13564TIP3    H162107   4.237   1.732  14.395  1.3903 -0.5632 -0.1844
13564TIP3    H262108   4.208   1.707  14.249 -0.3172  0.3319 -0.0175
13565TIP3   OH262109   2.748   3.589  15.197 -0.2906 -0.1615 -0.2697
13565TIP3    H162110   2.657   3.610  15.178  0.0818  0.9830 -0.8041
13565TIP3    H262111   2.796   3.619  15.120  0.6314 -0.0931  0.3301
13566TIP3   OH262112   6.518   4.020   2.968  0.5154  0.7494  0.6340
13566TIP3    H162113   6.439   4.019   3.022  1.9900 -0.3113  2.8679
13566TIP3    H262114   6.526   4.112   2.941 -2.1637  0.6230 -0.7348
13567TIP3   OH262115   5.595   0.940  13.316  0.1510  0.1906 -0.2588
13567TIP3    H162116   5.512   0.960  13.273 -0.7026  1.4988  1.9473
13567TIP3    H262117   5.617   1.018  13.366  2.2505 -0.4766 -0.0571
13568TIP3   OH262118   5.739   2.039   0.573  0.4969  0.3051  0.1865
13568TIP3    H162119   5.715   2.099   0.502  2.6731  0.3500 -0.5460
13568TIP3    H262120   5.785   2.094   0.636 -0.4161  0.0335  1.0968
13569TIP3   OH262121   2.883   0.344   3.846  0.5348  0.2134 -0.0962
13569TIP3    H162122   2.953   0.335   3.910  0.8276 -1.0729 -0.6010
13569TIP3    H262123   2.924   0.388   3.772  0.4220  0.8393  0.1998
13570TIP3   OH262124   1.242   3.423   0.688  0.2549  0.0449  0.0493
13570TIP3    H162125   1.305   3.489   0.659  0.6091  0.2785  1.2922
13570TIP3    H262126   1.291   3.371   0.753  0.0118 -1.5020 -0.9881
13571TIP3   OH262127   2.013   0.293   3.586 -0.2373 -0.3376  0.5723
13571TIP3    H162128   2.053   0.380   3.576  0.0504 -0.5486 -0.1548
13571TIP3    H262129   2.000   0.283   3.681 -1.3643  0.9756  0.5662
13572TIP3   OH262130   3.359   3.177  15.026 -0.5135  0.7829 -0.5558
13572TIP3    H162131   3.294   3.107  15.018  0.9044 -0.5020 -1.1420
13572TIP3    H262132   3.310   3.257  15.008 -1.2499 -0.4693 -4.6573
13573TIP3   OH262133   1.555   1.609   1.562 -0.1618 -0.5559  0.2040
13573TIP3    H162134   1.631   1.556   1.585  0.3816  0.5239  0.9434
13573TIP3    H262135   1.496   1.548   1.518  0.3703 -1.8148  1.1942
13574TIP3   OH262136   2.178   0.953  13.134 -0.9038 -0.1786  0.1312
13574TIP3    H162137   2.253   0.986  13.183  0.2266 -1.1873 -0.8849
13574TIP3    H262138   2.200   0.969  13.042 -0.7353 -2.8569 -0.3267
13575TIP3   OH262139   2.770   2.322  16.261  0.3079  0.2215  0.5124
13575TIP3    H162140   2.800   2.412  16.270 -0.3040  0.6266 -1.2824
13575TIP3    H262141   2.773   2.305  16.167 -0.7259 -1.2276  0.7300
13576TIP3   OH262142   0.900   1.261  16.841 -0.3397 -0.0466 -0.1247
13576TIP3    H162143   0.970   1.282  16.779  0.0163 -1.5423 -0.2526
13576TIP3    H262144   0.926   1.305  16.923  0.7782 -0.6415 -0.1589
13577TIP3   OH262145   1.994   4.567  11.685  0.3267 -0.0839  0.0328
13577TIP3    H162146   1.974   4.482  11.647 -0.7678  0.2871 -0.2567
13577TIP3    H262147   2.068   4.600  11.633  1.1835 -1.1274  0.5707
13578TIP3   OH262148   5.539   1.211  12.892  0.0452  0.0039  0.1619
13578TIP3    H162149   5.478   1.272  12.850 -1.4455 -1.3399  0.2783
13578TIP3    H262150   5.625   1.237  12.860 -0.6058  1.8169 -0.2004
13579TIP3   OH262151   1.253   3.885  15.522 -0.2506  0.1247 -0.0631
13579TIP3    H162152   1.269   3.926  15.438 -1.8943  2.5319  0.7583
13579TIP3    H262153   1.167   3.917  15.549  0.0352 -0.9760  2.3135
13580TIP3   OH262154   2.564   2.279   4.099 -0.0903  0.3548  0.2169
13580TIP3    H162155   2.647   2.243   4.130 -1.5455 -2.1471  1.3886
13580TIP3    H262156   2.541   2.225   4.023 -0.3718  1.4234 -0.4772
13581TIP3   OH262157   3.331   2.482  12.163 -0.2965 -0.2746 -0.2161
13581TIP3    H162158   3.260   2.424  12.189  1.7308 -2.8005 -0.1594
13581TIP3    H262159   3.288   2.553  12.116 -2.8099 -1.9598 -0.5421
13582TIP3   OH262160   2.180   4.263  15.032 -0.0156 -0.4851 -0.8837
13582TIP3    H162161   2.130   4.312  15.098  0.5777  0.8977 -1.4476
13582TIP3    H262162   2.270   4.290  15.045  0.1856 -0.6631 -1.8802
13583TIP3   OH262163   0.503   2.651  12.929  0.0537  0.0507 -0.5591
13583TIP3    H162164   0.501   2.593  12.852  1.0788  1.0036 -1.3212
13583TIP3    H262165   0.591   2.639  12.966 -1.3644 -2.5552  2.1923
13584TIP3   OH262166   6.063   4.088  13.875 -0.6045  0.2680  0.2703
13584TIP3    H162167   6.018   4.172  13.871  0.8780  1.0786  0.4117
13584TIP3    H262168   6.010   4.035  13.935 -0.9642  1.4493  0.9980
13585TIP3   OH262169   4.765   1.627   2.154  0.3310 -0.2933 -0.0734
13585TIP3    H162170   4.835   1.692   2.148 -0.1691  0.3628  1.0857
13585TIP3    H262171   4.757   1.608   2.247 -0.4602 -1.0027 -0.2732
13586TIP3   OH262172   0.691   3.401  16.274 -0.4216  0.2027  0.3831
13586TIP3    H162173   0.748   3.347  16.218 -0.0421  1.4815 -0.4997
13586TIP3    H262174   0.705   3.367  16.362  1.9435  0.6582  0.2334
13587TIP3   OH262175   2.440   6.683   2.970  0.6653 -0.3569  0.0907
13587TIP3    H162176   2.410   6.725   3.051  1.3904  0.4407 -0.0447
13587TIP3    H262177   2.390   6.727   2.901  0.7303 -0.3887  0.0240
13588TIP3   OH262178   1.410   3.182  16.933 -0.5971 -0.0813 -0.0632
13588TIP3    H162179   1.327   3.227  16.945 -0.4040  0.2819 -0.0658
13588TIP3    H262180   1.433   3.198  16.841  0.0027  0.7374  0.2256
13589TIP3   OH262181   3.113   1.572   5.707  0.0271  0.6573 -0.0408
13589TIP3    H162182   3.174   1.562   5.634 -0.8623 -0.6546 -0.6334
13589TIP3    H262183   3.098   1.482   5.737 -0.0841  1.1432  1.3581
13590TIP3   OH262184   3.889   1.251  12.743 -0.0873 -0.0738 -0.3767
13590TIP3    H162185   3.829   1.318  12.778  0.5740  0.5972 -0.5297
13590TIP3    H262186   3.857   1.234  12.655 -0.3736 -0.0976 -0.2699
13591TIP3   OH262187   3.904   6.410   5.028 -0.5875 -0.4790 -0.4834
13591TIP3    H162188   3.880   6.451   4.945 -1.0983 -1.8427 -1.0152
13591TIP3    H262189   4.000   6.411   5.029 -0.4545 -3.6073 -2.7205
13592TIP3   OH262190   2.513   4.409  14.748 -0.3066  0.1304  0.0426
13592TIP3    H162191   2.530   4.479  14.685  0.7308 -0.2006 -0.0427
13592TIP3    H262192   2.593   4.357  14.749 -1.3258 -1.4677 -0.4072
13593TIP3   OH262193   4.784   3.406   5.848 -0.1505 -0.0595  0.1584
13593TIP3    H162194   4.694   3.415   5.879 -1.0746 -1.9777 -1.7623
13593TIP3    H262195   4.838   3.432   5.922 -2.2874  2.1885  0.9917
13594TIP3   OH262196   0.820   1.059   4.141  0.1182  0.1927 -0.3740
13594TIP3    H162197   0.803   0.982   4.087  1.3690 -0.4447  0.1229
13594TIP3    H262198   0.733   1.089   4.168 -0.3971 -0.8320 -0.8626
13595TIP3   OH262199   6.059   4.536  10.454  0.1784 -0.5596  0.3799
13595TIP3    H162200   6.129   4.553  10.517 -1.0877  1.3912  1.2995
13595TIP3    H262201   6.003   4.472  10.496 -0.7665  0.8792  1.3693
13596TIP3   OH262202   1.201   1.899   3.056 -0.1147  0.7836 -0.0641
13596TIP3    H162203   1.137   1.835   3.088  1.2237 -0.7454 -0.4154
13596TIP3    H262204   1.149   1.958   3.000 -1.1438 -0.7000 -0.7127
13597TIP3   OH262205   3.687   3.786   5.224  0.3555  0.2475  0.2212
13597TIP3    H162206   3.699   3.880   5.237 -1.6385  0.4696  0.6079
13597TIP3    H262207   3.621   3.760   5.289  0.0076 -1.1855 -0.6614
13598TIP3   OH262208   0.831   0.544  15.638  0.8799  0.3400  0.1905
13598TIP3    H162209   0.819   0.455  15.671 -3.2525  0.7493  0.1091
13598TIP3    H262210   0.852   0.596  15.716 -3.2444  0.3429  1.3992
13599TIP3   OH262211   5.012   0.505  16.369 -0.2930  0.2931  0.2975
13599TIP3    H162212   5.019   0.595  16.336  1.1356 -0.5035 -1.7130
13599TIP3    H262213   5.097   0.488  16.409 -0.2275 -0.4616 -0.1518
13600TIP3   OH262214   5.456   1.590   0.827 -0.4730  0.4944  0.1969
13600TIP3    H162215   5.487   1.658   0.887  1.9529  0.3189 -0.7879
13600TIP3    H262216   5.525   1.523   0.830 -1.3183 -0.4555 -1.2429
13601TIP3   OH262217   0.053   0.474  15.179 -0.2822 -0.3312  0.2550
13601TIP3    H162218   0.044   0.569  15.165  0.9941 -0.1689  0.3822
13601TIP3    H262219   0.017   0.460  15.267  0.0880  0.1466  0.4883
13602TIP3   OH262220   3.715   5.444  11.956  0.2855  0.0333 -0.0861
13602TIP3    H162221   3.767   5.512  11.998  4.4195 -1.0534 -3.1613
13602TIP3    H262222   3.711   5.374  12.020 -0.4757  1.4817  1.5111
13603TIP3   OH262223   2.885   0.886  14.754  0.3691  0.6221  0.8179
13603TIP3    H162224   2.798   0.867  14.721  1.5399 -1.6638 -1.0880
13603TIP3    H262225   2.876   0.883  14.849 -1.2514 -1.4070  0.6315
13604TIP3   OH262226   4.140   6.037   4.305 -0.0748  0.1120  0.4315
13604TIP3    H162227   4.197   6.090   4.360  0.1668 -0.7812  1.0365
13604TIP3    H262228   4.194   6.013   4.230 -0.1915  0.7330  0.1420
13605TIP3   OH262229   1.784   6.689   4.065 -0.0157 -0.0885  0.2314
13605TIP3    H162230   1.748   6.661   4.149 -1.9188  1.2240 -0.1339
13605TIP3    H262231   1.740   6.634   4.001 -1.1291  1.2645 -0.1841
13606TIP3   OH262232   4.332   6.136  12.941  0.0453 -0.0717  0.2042
13606TIP3    H162233   4.423   6.145  12.911  0.0887 -1.2646 -0.0337
13606TIP3    H262234   4.329   6.050  12.981 -0.3377  1.0071  2.5410
13607TIP3   OH262235   2.676   2.638   2.906  0.1092  0.3281 -0.2083
13607TIP3    H162236   2.629   2.579   2.965 -0.1956  1.1387  0.3891
13607TIP3    H262237   2.738   2.684   2.964  0.2158  0.7140 -0.6280
13608TIP3   OH262238   6.242   6.474   4.142 -0.0324  0.4202  0.4973
13608TIP3    H162239   6.301   6.547   4.127 -1.3807  1.6415  0.9638
13608TIP3    H262240   6.275   6.404   4.086  1.4189  1.3021  0.2220
13609TIP3   OH262241   1.240   4.190   5.627  0.6721 -0.3344  0.0652
13609TIP3    H162242   1.182   4.121   5.594 -0.2149 -1.0549  3.0119
13609TIP3    H262243   1.181   4.261   5.652  1.3811  0.3986 -0.2997
13610TIP3   OH262244   5.452   1.873   6.766 -0.1546  0.2896  0.1697
13610TIP3    H162245   5.524   1.858   6.827 -0.5419  0.5569  0.6936
13610TIP3    H262246   5.389   1.804   6.786  0.3860 -0.5606 -0.9595
13611TIP3   OH262247   3.859   3.654  13.478 -0.7952  0.3112  0.4540
13611TIP3    H162248   3.953   3.666  13.486 -1.1799  1.8187  3.7549
13611TIP3    H262249   3.848   3.575  13.426  2.2784 -0.3695  0.7960
13612TIP3   OH262250   0.471   0.768   5.781 -0.1002  0.4458 -0.3286
13612TIP3    H162251   0.415   0.707   5.732  0.2440  0.3271 -0.5709
13612TIP3    H262252   0.410   0.816   5.837 -0.3001 -0.6625  0.4338
13613TIP3   OH262253   1.603   4.566   1.060  0.3022  0.5684 -0.8256
13613TIP3    H162254   1.509   4.549   1.064  0.2003  1.4089  0.7335
13613TIP3    H262255   1.611   4.660   1.079  1.7893 -0.4584  4.6228
13614TIP3   OH262256   0.201   2.170  16.601 -0.1374  0.3830  0.4131
13614TIP3    H162257   0.133   2.219  16.556  0.6518  0.9531 -0.1771
13614TIP3    H262258   0.275   2.230  16.606  0.2789 -0.1759  1.1788
13615TIP3   OH262259   2.320   1.377  12.173 -0.1283 -0.3607  0.2301
13615TIP3    H162260   2.372   1.457  12.182 -1.9813  0.9942 -0.5284
13615TIP3    H262261   2.380   1.313  12.137  0.8316  1.3872 -1.3886
13616TIP3   OH262262   1.423   1.494  16.178 -0.2729 -0.3028  0.1740
13616TIP3    H162263   1.432   1.510  16.272 -0.5141  0.4638  0.0721
13616TIP3    H262264   1.483   1.557  16.137 -0.8257 -0.0223 -0.2189
13617TIP3   OH262265   5.311   2.289   5.045 -0.0856 -0.1014 -0.1187
13617TIP3    H162266   5.294   2.199   5.073 -1.6007 -0.1726 -1.2129
13617TIP3    H262267   5.289   2.343   5.121 -1.7936 -0.4823 -0.3067
13618TIP3   OH262268   3.571   1.089   5.027  0.5058  0.3415 -0.3206
13618TIP3    H162269   3.523   1.103   4.945 -0.4728 -0.0425  0.1892
13618TIP3    H262270   3.641   1.155   5.024 -0.7446  1.7020 -0.5174
13619TIP3   OH262271   0.978   2.023   5.385 -0.1921 -0.5336 -0.1609
13619TIP3    H162272   1.019   2.109   5.375  1.3831 -1.2660 -0.1501
13619TIP3    H262273   0.972   2.010   5.479 -0.3054 -0.4957 -0.1627
13620TIP3   OH262274   5.743   4.828  11.245 -0.8789 -0.0559  0.0692
13620TIP3    H162275   5.837   4.835  11.261 -0.6720  0.1412 -1.1585
13620TIP3    H262276   5.736   4.806  11.152 -2.0661  0.8585 -0.0792
13621TIP3   OH262277   6.706   4.398   1.878 -0.0003 -0.0762 -0.2979
13621TIP3    H162278   6.733   4.397   1.787  0.5008  0.4075 -0.1571
13621TIP3    H262279   6.634   4.460   1.882 -1.5844 -1.8340 -0.7915
13622TIP3   OH262280   1.572   0.007  11.144  0.4524 -0.7144 -0.3432
13622TIP3    H162281   1.658   0.006  11.184  0.2770 -0.7491  0.0300
13622TIP3    H262282   1.514   0.040  11.212  0.6468  2.2379 -1.4898
13623TIP3   OH262283   6.170   5.920  13.664  0.4627  0.7114  0.1724
13623TIP3    H162284   6.125   5.844  13.702  1.2531 -0.1027 -0.5045
13623TIP3    H262285   6.263   5.905  13.683  0.7630  0.8012 -1.1984
13624TIP3   OH262286   6.247   2.172  15.577 -0.7679 -0.1251 -0.3851
13624TIP3    H162287   6.298   2.161  15.497  2.2903  0.2171  1.4499
13624TIP3    H262288   6.254   2.089  15.623  0.0238  0.6446  0.9240
13625TIP3   OH262289   5.329   2.167   3.930  0.1920 -0.2940  0.3606
13625TIP3    H162290   5.412   2.205   3.900  0.5933  0.3206  2.1414
13625TIP3    H262291   5.340   2.073   3.918 -0.3396 -0.0090 -2.9794
13626TIP3   OH262292   0.661   4.177  15.173  0.1077 -0.3281  0.5921
13626TIP3    H162293   0.693   4.261  15.141 -2.2037  0.1727 -0.4938
13626TIP3    H262294   0.739   4.123  15.180  1.3050  1.1328 -1.1219
13627TIP3   OH262295   3.507   5.942   5.107  0.6355  0.1680 -1.0313
13627TIP3    H162296   3.475   5.913   5.021 -0.0476  0.4158 -0.8685
13627TIP3    H262297   3.544   5.863   5.147  1.2354  0.1193 -1.6729
13628TIP3   OH262298   4.722   4.558  14.976 -0.4200  0.1957  0.2754
13628TIP3    H162299   4.708   4.652  14.969 -0.9907  0.1171  0.4032
13628TIP3    H262300   4.654   4.519  14.922 -0.4149 -0.1593  0.5240
13629TIP3   OH262301   5.403   1.593   4.985  0.3806 -0.4629 -0.4708
13629TIP3    H162302   5.472   1.544   4.941  1.3084  0.8379 -0.4809
13629TIP3    H262303   5.415   1.573   5.078  1.8713  1.1188 -0.3055
13630TIP3   OH262304   4.021   0.880   2.348  0.0590 -0.4443 -0.2808
13630TIP3    H162305   4.067   0.929   2.417 -1.4159 -0.1627  0.5137
13630TIP3    H262306   4.092   0.845   2.293  1.2405 -0.4212  1.1938
13631TIP3   OH262307   4.385   1.188  14.857  0.3371  0.1977  0.0844
13631TIP3    H162308   4.462   1.203  14.802 -1.8228  1.6768 -2.6925
13631TIP3    H262309   4.368   1.094  14.849  1.0025  0.1207 -0.4657
13632TIP3   OH262310   4.404   5.755  16.049  0.1796 -0.4186  0.1168
13632TIP3    H162311   4.401   5.727  15.957  0.5076 -1.5324  0.4299
13632TIP3    H262312   4.481   5.710  16.085  0.8319  1.0642  0.6052
13633TIP3   OH262313   4.359   5.473   0.996 -0.3160 -0.3568  0.2253
13633TIP3    H162314   4.409   5.547   0.964 -1.6093  0.4198 -0.0276
13633TIP3    H262315   4.424   5.416   1.037  0.8665  0.2672 -0.7633
13634TIP3   OH262316   0.820   5.790  14.449  0.8370  0.1517  0.0131
13634TIP3    H162317   0.768   5.790  14.369 -0.0611 -0.0745  0.5931
13634TIP3    H262318   0.911   5.790  14.418  0.5020 -0.9828 -1.0036
13635TIP3   OH262319   4.245   2.544  15.778  0.4086  0.2842  0.2219
13635TIP3    H162320   4.156   2.528  15.811  0.0896  0.4391 -0.5537
13635TIP3    H262321   4.233   2.606  15.706  1.0865 -0.1407 -0.2667
13636TIP3   OH262322   4.794   0.527   2.396 -0.0694 -0.0319  0.4208
13636TIP3    H162323   4.705   0.560   2.386 -0.5057 -0.9213  1.2900
13636TIP3    H262324   4.789   0.435   2.370  0.5223 -0.1693  0.7663
13637TIP3   OH262325   2.765   1.761  13.223 -0.7115 -0.1876  0.0364
13637TIP3    H162326   2.720   1.785  13.142 -2.0025 -0.2546  0.7384
13637TIP3    H262327   2.711   1.692  13.262 -0.6560  0.5797  1.4949
13638TIP3   OH262328   5.900   0.679   0.545 -0.1740 -0.3104  0.2260
13638TIP3    H162329   5.946   0.749   0.498 -0.0273 -0.4787  0.1165
13638TIP3    H262330   5.920   0.695   0.637 -1.5416  0.7992  0.3478
13639TIP3   OH262331   0.518   6.231  15.926 -0.5268  0.1913  0.1111
13639TIP3    H162332   0.610   6.219  15.949  0.0899  0.5334 -2.0319
13639TIP3    H262333   0.480   6.278  16.000  0.2532 -2.7276  2.4427
13640TIP3   OH262334   1.158   2.341  15.315 -0.0873  0.5179 -0.0766
13640TIP3    H162335   1.135   2.327  15.223  0.0732 -0.8388  0.0794
13640TIP3    H262336   1.242   2.296  15.325  0.3169  1.4148  0.5197
13641TIP3   OH262337   2.648   4.578  12.675  0.5334  0.5665 -0.1869
13641TIP3    H162338   2.598   4.659  12.677 -0.4629 -0.0547  1.5338
13641TIP3    H262339   2.732   4.601  12.716  0.0327  0.5999  0.8334
13642TIP3   OH262340   3.246   4.852   1.436 -0.0429  0.4308 -0.3807
13642TIP3    H162341   3.317   4.794   1.409 -0.2251  0.2958 -0.5658
13642TIP3    H262342   3.220   4.819   1.523 -0.7700 -0.3455 -0.8785
13643TIP3   OH262343   0.983   4.479   6.472  0.0835  0.2803 -0.5029
13643TIP3    H162344   1.066   4.505   6.432 -0.0879  1.4784 -0.1010
13643TIP3    H262345   0.939   4.562   6.491 -0.5330 -0.3073  0.6758
13644TIP3   OH262346   3.087   1.297   5.317  0.5875  0.6458 -0.0960
13644TIP3    H162347   3.089   1.229   5.385 -0.1531  0.0197 -0.6940
13644TIP3    H262348   3.173   1.293   5.276 -0.2820 -1.6362 -1.7882
13645TIP3   OH262349   2.946   0.972   3.885  0.3138  0.1699 -0.0524
13645TIP3    H162350   2.952   1.015   3.799 -0.8419  1.3336  0.4374
13645TIP3    H262351   2.854   0.981   3.910  0.6684 -0.0385  1.3692
13646TIP3   OH262352   6.502   3.757  13.495 -0.0321 -0.0162  0.1669
13646TIP3    H162353   6.542   3.699  13.429 -2.4882 -0.4005 -1.0356
13646TIP3    H262354   6.455   3.698  13.553  0.3163  0.5199  1.0007
13647TIP3   OH262355   1.538   5.645  12.718  0.3085 -0.0249 -0.2810
13647TIP3    H162356   1.598   5.717  12.700 -0.6854  0.3578 -2.1929
13647TIP3    H262357   1.560   5.578  12.654 -0.0553 -0.6385  0.2256
13648TIP3   OH262358   4.309   0.783   1.236 -0.1438  0.0716  0.4569
13648TIP3    H162359   4.270   0.707   1.279 -0.1545 -1.3577 -1.9915
13648TIP3    H262360   4.397   0.754   1.212 -0.7323  0.2281 -2.0027
13649TIP3   OH262361   3.161   4.683  14.426  0.1507  0.1810  0.1828
13649TIP3    H162362   3.215   4.653  14.500 -0.1723  1.1447  0.8189
13649TIP3    H262363   3.106   4.752  14.463  0.1520  0.8403 -1.0277
13650TIP3   OH262364   2.655   4.225  16.819  0.2217  0.5648 -0.0420
13650TIP3    H162365   2.671   4.317  16.842 -0.7107  0.6898  0.1404
13650TIP3    H262366   2.560   4.216  16.823  0.2118 -0.0460 -1.4722
13651TIP3   OH262367   5.832   4.449   3.313  0.5325 -0.3703 -0.0869
13651TIP3    H162368   5.778   4.412   3.383 -1.4048 -0.3835 -1.5354
13651TIP3    H262369   5.871   4.527   3.351 -2.8588  1.2911  0.1723
13652TIP3   OH262370   4.160   2.500  12.545  0.3006 -0.1396  0.1701
13652TIP3    H162371   4.148   2.586  12.504 -0.1018 -0.7388 -1.0056
13652TIP3    H262372   4.136   2.437  12.476 -0.0156 -1.1822  1.2122
13653TIP3   OH262373   4.963   4.190  11.775 -0.2488 -0.7190  0.7507
13653TIP3    H162374   4.982   4.191  11.681 -0.5154 -0.4067  0.6957
13653TIP3    H262375   4.970   4.098  11.800  3.8853 -0.3666  1.2854
13654TIP3   OH262376   0.250   4.240  11.977 -0.2379  0.2314 -0.5237
13654TIP3    H162377   0.234   4.226  11.883 -0.4668 -1.7214 -0.1974
13654TIP3    H262378   0.322   4.180  11.998  0.4244  1.3159  0.3714
13655TIP3   OH262379   0.758   1.862   6.622  0.0200  0.4112  0.0533
13655TIP3    H162380   0.844   1.833   6.651  0.5515  0.9985 -0.8916
13655TIP3    H262381   0.769   1.956   6.607 -0.8606  0.5382  0.2141
13656TIP3   OH262382   4.459   0.946   5.759 -0.0961  0.3486 -0.0938
13656TIP3    H162383   4.426   0.980   5.842  1.6146 -1.7477  1.4765
13656TIP3    H262384   4.532   1.003   5.737  0.5831 -0.1739  0.7735
13657TIP3   OH262385   3.804   2.510  14.981  0.4168  0.6025 -0.3750
13657TIP3    H162386   3.829   2.581  15.040  1.4974  0.6719 -0.9086
13657TIP3    H262387   3.709   2.506  14.988  0.3486  2.0537 -0.2775
13658TIP3   OH262388   1.143   0.629  14.965  0.3220 -0.4053 -0.5341
13658TIP3    H162389   1.166   0.539  14.942 -1.7525 -1.2854  0.6329
13658TIP3    H262390   1.094   0.661  14.889 -1.5085 -1.3210  0.2136
13659TIP3   OH262391   0.298   3.400   0.569  0.1692 -0.3169 -0.1266
13659TIP3    H162392   0.283   3.356   0.652  1.1960  0.5544  0.5268
13659TIP3    H262393   0.250   3.348   0.505 -0.5501 -1.0398  0.9972
13660TIP3   OH262394   1.048   4.566  11.819  0.1471  0.1169 -0.0984
13660TIP3    H162395   1.128   4.522  11.789  1.2175  0.0525  2.6868
13660TIP3    H262396   0.990   4.494  11.845  0.5471  0.2372  1.1567
13661TIP3   OH262397   4.219   6.367  14.848  0.0812 -0.0260 -0.0898
13661TIP3    H162398   4.294   6.366  14.908 -0.0098 -1.1655  0.0310
13661TIP3    H262399   4.143   6.379  14.904 -0.0978 -2.1536  0.1684
13662TIP3   OH262400   1.048   0.495   1.245  0.5203 -0.3079 -0.0823
13662TIP3    H162401   0.960   0.488   1.207  0.2736 -1.1155  0.6405
13662TIP3    H262402   1.052   0.584   1.279  0.1525 -0.1150 -0.5282
13663TIP3   OH262403   6.695   3.886   6.621  0.1949 -0.1079 -0.0586
13663TIP3    H162404   6.670   3.897   6.529 -0.0460  1.6704  0.2077
13663TIP3    H262405   6.647   3.809   6.649 -1.3187  0.5223 -0.8705
13664TIP3   OH262406   5.381   6.306   0.123  0.1608  0.2716  0.5137
13664TIP3    H162407   5.427   6.387   0.104 -0.3179 -0.1448 -2.7109
13664TIP3    H262408   5.447   6.238   0.114  0.1522  0.1279  1.4484
13665TIP3   OH262409   1.899   1.035  13.847  0.0108 -0.5876  0.1291
13665TIP3    H162410   1.865   0.977  13.779 -1.4184  1.0236 -0.5509
13665TIP3    H262411   1.937   1.109  13.799 -1.0001  0.5582  1.0685
13666TIP3   OH262412   5.505   2.018  11.374 -0.0259 -0.3079 -0.7576
13666TIP3    H162413   5.533   1.967  11.298  1.2519  0.9683 -1.1623
13666TIP3    H262414   5.566   1.994  11.443  0.3387  0.3947 -0.8385
13667TIP3   OH262415   4.676   1.366  16.704  0.1657  0.1290  0.4992
13667TIP3    H162416   4.701   1.458  16.692  0.4647  0.2070  1.6715
13667TIP3    H262417   4.626   1.365  16.785 -1.6062 -0.4323 -0.5861
13668TIP3   OH262418   0.997   5.847  13.577  0.1672  0.1493 -0.0460
13668TIP3    H162419   1.055   5.915  13.610 -0.3031  0.7790 -0.5042
13668TIP3    H262420   1.056   5.783  13.537  0.6235  0.1909  0.5422
13669TIP3   OH262421   5.320   0.916  17.076 -0.3915  0.2314  0.0527
13669TIP3    H162422   5.394   0.879  17.126 -0.7185  0.1617  0.4872
13669TIP3    H262423   5.347   1.006  17.057 -1.0567  0.8820  2.0158
13670TIP3   OH262424   2.463   2.857   5.098  0.3709  0.3298  0.0868
13670TIP3    H162425   2.391   2.862   5.035  0.7735  1.2993 -0.3063
13670TIP3    H262426   2.421   2.863   5.183 -0.1559 -0.7270 -0.0905
13671TIP3   OH262427   4.591   0.588  10.570  0.1200  0.3039  0.1790
13671TIP3    H162428   4.612   0.553  10.484  0.7113 -0.5195  0.6556
13671TIP3    H262429   4.637   0.672  10.574 -1.1127  1.0505 -0.8728
13672TIP3   OH262430   0.909   3.297   2.839 -0.1442  0.1823 -0.2724
13672TIP3    H162431   0.999   3.308   2.810 -0.5000 -0.5052 -1.7312
13672TIP3    H262432   0.857   3.339   2.770 -0.9279  0.6870  0.6157
13673TIP3   OH262433   5.869   4.252   4.819  0.1636  0.1962 -0.2403
13673TIP3    H162434   5.876   4.169   4.866 -2.3067 -0.3183 -0.7235
13673TIP3    H262435   5.850   4.227   4.728  1.6152  1.2615 -0.8660
13674TIP3   OH262436   0.210   1.170   4.055 -0.5525 -0.2051  0.1075
13674TIP3    H162437   0.251   1.249   4.092  4.1821 -1.9258 -1.0996
13674TIP3    H262438   0.178   1.198   3.969  0.2524  0.6160  0.0658
13675TIP3   OH262439   3.305   5.456   4.400  0.3528 -0.0762  0.7224
13675TIP3    H162440   3.225   5.423   4.359 -0.4373  0.1360  2.0730
13675TIP3    H262441   3.340   5.518   4.336  1.1504 -2.5172 -1.2505
13676TIP3   OH262442   4.183   4.457  17.209 -0.2007 -0.3835 -0.1003
13676TIP3    H162443   4.099   4.419  17.237 -0.9918  0.7847 -0.8523
13676TIP3    H262444   4.213   4.398  17.139 -1.0261 -0.0947 -0.7053
13677TIP3   OH262445   3.017   0.446  13.041  1.1207 -0.1639  0.1868
13677TIP3    H162446   2.979   0.366  13.076  2.1135 -0.3205  0.9261
13677TIP3    H262447   3.110   0.440  13.062  1.5963  0.1484 -1.7269
13678TIP3   OH262448   2.141   2.858   5.481 -0.1421  0.5408 -0.0592
13678TIP3    H162449   2.217   2.901   5.520  0.6294 -1.3021  0.5234
13678TIP3    H262450   2.103   2.806   5.551 -0.8260 -0.0475 -0.8501
13679TIP3   OH262451   4.492   0.461  10.279  0.5206  0.1794 -0.5273
13679TIP3    H162452   4.582   0.491  10.293 -0.3262  1.9497  1.3490
13679TIP3    H262453   4.473   0.405  10.355 -0.1983  0.4134 -0.5298
13680TIP3   OH262454   2.601   5.623   4.548 -0.1071 -0.4338  0.1633
13680TIP3    H162455   2.691   5.650   4.531  0.0590 -0.9953  0.1554
13680TIP3    H262456   2.582   5.556   4.483 -0.9778  0.6116 -0.6857
13681TIP3   OH262457   0.910   4.124  15.800  0.0166  0.3822 -0.8412
13681TIP3    H162458   0.929   4.102  15.709  0.7408  1.2910 -0.9111
13681TIP3    H262459   0.898   4.219  15.800 -0.4660  0.3230 -0.0752
13682TIP3   OH262460   4.974   2.490  14.316 -0.0419  0.1793 -0.2661
13682TIP3    H162461   4.921   2.433  14.260 -2.1175  2.2129 -0.4324
13682TIP3    H262462   4.990   2.568  14.263 -0.3151  1.2626  1.2180
13683TIP3   OH262463   5.635   5.441  15.565  0.7578 -0.1905  0.1189
13683TIP3    H162464   5.651   5.484  15.649  0.0398 -0.2103  0.2653
13683TIP3    H262465   5.667   5.351  15.577 -1.0848 -0.7475  0.9906
13684TIP3   OH262466   4.792   2.829   4.477 -0.0201  0.1570  0.4057
13684TIP3    H162467   4.776   2.735   4.486 -0.1207  0.1585  0.2409
13684TIP3    H262468   4.705   2.867   4.467  0.0136  0.2788  0.5732
13685TIP3   OH262469   0.355   3.204  15.456 -0.1049 -0.3768 -0.2236
13685TIP3    H162470   0.397   3.132  15.503  3.5488  1.8807  0.1464
13685TIP3    H262471   0.375   3.188  15.364 -2.3406 -1.6725 -0.5317
13686TIP3   OH262472   3.744   5.148  12.818 -0.1258 -0.4077  0.2575
13686TIP3    H162473   3.681   5.077  12.816 -0.2086 -0.3204 -0.2354
13686TIP3    H262474   3.716   5.207  12.748  0.2898 -0.1914  0.2734
13687TIP3   OH262475   1.373   0.106   1.568  0.5367 -0.3644 -0.3649
13687TIP3    H162476   1.346   0.050   1.495  2.0787 -0.2954 -1.0149
13687TIP3    H262477   1.311   0.178   1.567 -0.0345 -0.8466 -1.0158
13688TIP3   OH262478   6.015   4.784  12.312 -0.2094  0.2536 -0.1497
13688TIP3    H162479   6.064   4.704  12.329  0.2840  0.6556  0.3223
13688TIP3    H262480   6.077   4.854  12.328 -0.8449  0.7549  0.1447
13689TIP3   OH262481   1.438   1.625   3.962  0.4305  0.0687 -0.5797
13689TIP3    H162482   1.436   1.581   3.877 -1.5611 -1.0615 -0.0111
13689TIP3    H262483   1.382   1.570   4.018  1.9460  0.6161  1.5336
13690TIP3   OH262484   5.804   4.945  11.952  0.4062 -0.2367  0.4236
13690TIP3    H162485   5.758   4.994  12.021 -0.4143  0.6909 -0.7756
13690TIP3    H262486   5.742   4.878  11.924 -0.3580  1.2082 -1.4100
13691TIP3   OH262487   5.365   2.216  13.524  0.5655  0.3810 -0.1673
13691TIP3    H162488   5.351   2.181  13.611  1.4054 -0.1539 -0.2443
13691TIP3    H262489   5.280   2.208  13.480  0.3583 -0.0926  0.3254
13692TIP3   OH262490   0.634   2.574  11.536  0.1441 -0.0067 -0.6904
13692TIP3    H162491   0.560   2.534  11.491 -0.3994 -0.4961  0.6025
13692TIP3    H262492   0.674   2.501  11.584  1.6579  0.1855 -1.6444
13693TIP3   OH262493   5.957   4.321   2.254 -0.1980  0.9088 -0.0925
13693TIP3    H162494   6.030   4.336   2.314  0.7952 -1.4665 -0.6666
13693TIP3    H262495   5.879   4.336   2.308  0.6708  1.5807  1.0260
13694TIP3   OH262496   2.929   0.507   3.213  0.2191  0.0620  0.4345
13694TIP3    H162497   2.843   0.490   3.252  0.4500  0.0550  0.9438
13694TIP3    H262498   2.957   0.422   3.180 -0.5879  0.3380 -0.9934
13695TIP3   OH262499   0.479   0.849  14.686  0.4988 -0.6200  0.2445
13695TIP3    H162500   0.474   0.871  14.779  3.4181  0.3226  0.2273
13695TIP3    H262501   0.430   0.918  14.642 -1.8399 -1.6748  1.1274
13696TIP3   OH262502   5.923   2.694  17.148  0.6133 -0.0208 -0.2619
13696TIP3    H162503   5.977   2.663  17.221  2.8922  2.1573 -0.9305
13696TIP3    H262504   5.983   2.701  17.074 -0.7820  1.5017 -1.3100
13697TIP3   OH262505   0.446   2.292  13.756 -0.2827 -0.2402  0.2646
13697TIP3    H162506   0.456   2.321  13.847  1.1931 -0.8065  0.3034
13697TIP3    H262507   0.530   2.315  13.715 -1.1468  0.5188 -1.0924
13698TIP3   OH262508   4.826   6.683  16.829  0.1718  0.3369  0.4943
13698TIP3    H162509   4.830   6.596  16.788 -0.3869 -0.2265  1.6105
13698TIP3    H262510   4.732   6.697  16.846  0.4252  0.4150  1.8808
13699TIP3   OH262511   1.989   4.270  14.804  0.7767 -0.0292  0.2778
13699TIP3    H162512   2.051   4.248  14.873  0.4342 -0.4569  0.4538
13699TIP3    H262513   2.019   4.220  14.728  0.7667 -0.0760  0.3047
13700TIP3   OH262514   1.613   0.034  11.438 -0.3151 -0.1745  0.0512
13700TIP3    H162515   1.586   0.125  11.427  0.9358 -0.1779 -3.6282
13700TIP3    H262516   1.537  -0.008  11.478 -0.5994  2.6167  2.6504
13701TIP3   OH262517   1.636   6.203   0.963 -0.1147  0.0831  0.0903
13701TIP3    H162518   1.651   6.252   1.044 -0.4749 -0.6984  0.6429
13701TIP3    H262519   1.722   6.170   0.939 -0.2562 -0.9679  1.0050
13702TIP3   OH262520   3.946   0.424   2.231 -0.0289  0.2038  0.1750
13702TIP3    H162521   3.861   0.442   2.191  0.8848 -0.0453 -1.9450
13702TIP3    H262522   3.926   0.409   2.323 -2.2109  0.7221 -0.1803
13703TIP3   OH262523   3.246   5.616   4.048  0.2988 -0.2957  0.1217
13703TIP3    H162524   3.175   5.579   4.100  0.0202  1.5514  1.1160
13703TIP3    H262525   3.322   5.612   4.106  0.2535  0.6783  0.2658
13704TIP3   OH262526   2.555   5.104  11.854  0.1156  0.7526  0.5307
13704TIP3    H162527   2.615   5.125  11.782  0.1888 -1.6687 -0.1499
13704TIP3    H262528   2.604   5.044  11.910 -0.5587  1.2746  1.6955
13705TIP3   OH262529   2.209   0.749   1.710 -0.1302  0.3944  0.2352
13705TIP3    H162530   2.127   0.746   1.759 -0.5725 -0.8725 -0.5498
13705TIP3    H262531   2.198   0.683   1.642  1.4218  0.4381 -0.0676
13706TIP3   OH262532   6.445   5.154   4.789 -0.7811  0.3022 -0.0907
13706TIP3    H162533   6.494   5.174   4.709 -0.6642 -0.9754 -0.3458
13706TIP3    H262534   6.513   5.146   4.857 -0.9508  2.3156  0.3442
13707TIP3   OH262535   5.931   0.872  10.742 -0.2998  0.0305 -0.2131
13707TIP3    H162536   5.991   0.846  10.672  0.1507 -1.9743  0.8669
13707TIP3    H262537   5.988   0.899  10.814 -0.6180 -2.1759  0.9237
13708TIP3   OH262538   5.678   2.643  12.373 -0.1863 -1.0157 -0.1640
13708TIP3    H162539   5.632   2.656  12.457 -2.2418 -1.2413 -1.2144
13708TIP3    H262540   5.707   2.731  12.349 -1.0749 -0.6800 -0.0318
13709TIP3   OH262541   4.317   6.373   2.009  0.5942 -0.0627  0.0125
13709TIP3    H162542   4.273   6.370   2.094  1.5883  0.3446  0.5609
13709TIP3    H262543   4.301   6.287   1.970 -2.2259  0.7101 -0.6239
13710TIP3   OH262544   4.359   0.360   4.268 -0.3595 -0.5666  0.5904
13710TIP3    H162545   4.424   0.410   4.317  1.0766  0.7394 -2.5711
13710TIP3    H262546   4.410   0.301   4.213 -1.8785 -0.7487 -0.6566
13711TIP3   OH262547   0.676   0.139   5.523  0.3432 -0.2015 -0.5520
13711TIP3    H162548   0.760   0.093   5.517  0.5129  0.1598 -1.0236
13711TIP3    H262549   0.671   0.169   5.614  1.1363  0.5366 -0.7460
13712TIP3   OH262550   0.991   1.256  14.333  0.0877 -0.5103  0.2100
13712TIP3    H162551   0.926   1.265  14.264 -0.0857 -2.7332  0.0486
13712TIP3    H262552   0.995   1.162  14.350  0.7031 -0.0836  2.6615
13713TIP3   OH262553   5.412   2.031   1.092  0.4473 -0.5727  0.5776
13713TIP3    H162554   5.329   2.033   1.044  2.1175 -2.4316 -2.5831
13713TIP3    H262555   5.458   2.110   1.062 -0.3458  0.7581  2.7529
13714TIP3   OH262556   2.841   1.603   4.249 -0.1863 -0.1136  0.4876
13714TIP3    H162557   2.906   1.536   4.227  1.0332  0.7084  1.4823
13714TIP3    H262558   2.757   1.561   4.233  0.5453 -2.0392  1.4507
13715TIP3   OH262559   3.049   0.749   3.126  0.4537 -0.0971  0.9677
13715TIP3    H162560   2.992   0.673   3.136  0.8310 -0.3676  1.0845
13715TIP3    H262561   3.137   0.712   3.115  0.2592  0.1905 -2.1919
13716TIP3   OH262562   6.614   0.116   3.482 -1.0768  0.1423  0.6267
13716TIP3    H162563   6.620   0.084   3.392 -1.1462 -0.7977  0.9475
13716TIP3    H262564   6.531   0.081   3.515  0.1569 -1.7070  1.8786
13717TIP3   OH262565   0.004   0.086   0.349  0.1958 -0.3519 -0.0648
13717TIP3    H162566  -0.091   0.100   0.342  0.0135  0.5861  3.1384
13717TIP3    H262567   0.015  -0.009   0.346 -0.9834 -0.5192  0.4886
13718TIP3   OH262568   4.993   5.730   3.598 -0.4959 -0.4484  0.8251
13718TIP3    H162569   4.972   5.772   3.681  2.1611 -0.3709  1.5136
13718TIP3    H262570   5.041   5.651   3.623  1.9458  0.5155 -0.6470
13719TIP3   OH262571   1.186   3.336  11.091 -0.2500 -0.2918  0.3023
13719TIP3    H162572   1.224   3.282  11.160 -0.8346 -0.9237  0.1399
13719TIP3    H262573   1.216   3.425  11.110  1.9409 -0.8895 -0.2715
13720TIP3   OH262574   4.529   3.309  17.147 -0.0247 -0.2914  0.3530
13720TIP3    H162575   4.579   3.235  17.182 -1.0632 -0.5797  1.2667
13720TIP3    H262576   4.532   3.375  17.215  1.1940  0.6550 -0.6133
13721TIP3   OH262577   5.755   1.620  13.412 -0.6104  0.3672 -0.1737
13721TIP3    H162578   5.723   1.633  13.501  0.2196 -0.8424  0.3128
13721TIP3    H262579   5.688   1.659  13.356 -2.1664 -0.7330  0.8850
13722TIP3   OH262580   4.604   3.389   5.590  0.5192 -0.5647 -0.0921
13722TIP3    H162581   4.643   3.302   5.581  0.0148 -0.7313 -0.7050
13722TIP3    H262582   4.578   3.395   5.682  1.6245 -0.6022  0.2382
13723TIP3   OH262583   4.131   4.332   5.441  0.5853  0.2389 -0.1813
13723TIP3    H162584   4.098   4.378   5.364 -1.1656  0.2820  0.5717
13723TIP3    H262585   4.226   4.327   5.427  0.2456 -0.1031 -2.5031
13724TIP3   OH262586   5.686   1.021  14.379 -0.3091 -0.2745 -0.1230
13724TIP3    H162587   5.631   0.943  14.391 -0.7188 -0.0654 -0.6504
13724TIP3    H262588   5.776   0.988  14.390 -0.5634 -0.4309  1.7389
13725TIP3   OH262589   4.220   3.956  13.414 -0.8158 -0.2699 -0.3918
13725TIP3    H162590   4.262   4.038  13.439  0.0745 -0.4882 -1.1416
13725TIP3    H262591   4.178   3.976  13.330 -3.3533  0.3216  0.9570
13726TIP3   OH262592   5.009   1.717  15.565  0.1941  0.0303  0.4607
13726TIP3    H162593   5.033   1.626  15.554  0.1422  0.1346 -0.5809
13726TIP3    H262594   5.023   1.756  15.479 -2.6004  0.3367  0.1073
13727TIP3   OH262595   2.045   2.625   1.242 -0.5667 -0.1079  0.6926
13727TIP3    H162596   2.096   2.575   1.178 -2.6621 -1.9374  0.3910
13727TIP3    H262597   2.108   2.686   1.281  1.2979 -0.7073 -1.3112
13728TIP3   OH262598   3.277   1.242  16.396 -0.1141 -0.1744 -0.0266
13728TIP3    H162599   3.236   1.163  16.361  0.3933 -0.6732  0.4974
13728TIP3    H262600   3.297   1.295  16.318 -0.9288 -0.3234 -0.3446
13729TIP3   OH262601   4.514   2.434   5.301 -0.1805  0.4492  0.8716
13729TIP3    H162602   4.581   2.499   5.322  1.4371 -1.9533  3.5408
13729TIP3    H262603   4.451   2.440   5.373  0.3689 -1.3751  1.5352
13730TIP3   OH262604   2.679   4.306  15.829 -0.1864 -0.3175 -0.1969
13730TIP3    H162605   2.710   4.389  15.791  2.4745 -1.7763 -1.3939
13730TIP3    H262606   2.713   4.306  15.918 -2.2916  0.9436  0.6337
13731TIP3   OH262607   2.959   3.782  13.779  0.6019  0.4434  0.3456
13731TIP3    H162608   2.982   3.784  13.686 -0.0378  1.3331  0.1965
13731TIP3    H262609   2.916   3.866  13.795  0.9713  0.4297  1.5174
13732TIP3   OH262610   1.296   2.398  14.547 -0.2392 -0.2402 -0.0082
13732TIP3    H162611   1.312   2.365  14.458  0.4639 -2.3241  0.8673
13732TIP3    H262612   1.315   2.324  14.604  4.1731  2.4745  2.2790
13733TIP3   OH262613   2.939   5.034   5.795 -0.2334 -0.1503 -0.3319
13733TIP3    H162614   2.899   5.069   5.875  0.1302 -0.2887 -0.0882
13733TIP3    H262615   2.948   5.110   5.738 -1.5262 -0.2406 -0.6827
13734TIP3   OH262616   4.633   2.111   2.868 -0.2991  0.1125 -0.3756
13734TIP3    H162617   4.717   2.156   2.855 -0.2462  0.8711  2.3570
13734TIP3    H262618   4.655   2.033   2.920 -1.4490  1.0335  1.5353
13735TIP3   OH262619   4.204   5.342  15.772 -0.5767  0.1095 -0.2416
13735TIP3    H162620   4.249   5.293  15.704 -0.8046  0.0218 -0.3288
13735TIP3    H262621   4.267   5.348  15.843 -0.6345 -0.5265 -0.1338
13736TIP3   OH262622   5.439   0.764   3.189  0.1198  0.0271 -0.5148
13736TIP3    H162623   5.430   0.722   3.103 -0.7260  1.8698 -1.3389
13736TIP3    H262624   5.525   0.735   3.220  0.2019 -1.0952 -1.7303
13737TIP3   OH262625   3.002   0.418  16.415 -0.2254  0.3132 -0.0097
13737TIP3    H162626   3.082   0.467  16.398 -0.2276  0.2406 -0.2289
13737TIP3    H262627   3.008   0.342  16.358 -0.7084  0.5882 -0.4234
13738TIP3   OH262628   4.859   0.534  16.855  0.0594 -0.5038  0.4019
13738TIP3    H162629   4.789   0.476  16.824  1.5937 -1.2685 -1.7230
13738TIP3    H262630   4.812   0.607  16.897 -2.0671 -0.5390 -1.7655
13739TIP3   OH262631   0.776   0.824  15.160  0.5779  0.2001  0.6073
13739TIP3    H162632   0.828   0.886  15.109  1.2986 -0.0288  1.0577
13739TIP3    H262633   0.803   0.738  15.127 -0.1714  0.1149  0.2164
13740TIP3   OH262634   5.071   1.636  10.453 -0.2467  0.2473 -0.0647
13740TIP3    H162635   5.159   1.627  10.417 -0.6248  0.1568 -0.9748
13740TIP3    H262636   5.080   1.703  10.521  0.0513  1.9851 -1.7604
13741TIP3   OH262637   0.036   0.811   0.949 -0.6990  0.4163  0.1734
13741TIP3    H162638  -0.056   0.825   0.971 -0.5036  0.2902  1.0927
13741TIP3    H262639   0.050   0.717   0.963 -0.0172  0.7240  1.6526
13742TIP3   OH262640   4.381   3.907   2.487 -0.4688  0.4543  0.0524
13742TIP3    H162641   4.418   3.827   2.450  0.8296 -0.1555  2.5039
13742TIP3    H262642   4.386   3.972   2.417 -0.9072 -1.4273 -1.7427
13743TIP3   OH262643   1.576   2.600   2.950 -0.3552  0.1826  0.2458
13743TIP3    H162644   1.600   2.611   3.042  0.1041 -3.3347  0.6073
13743TIP3    H262645   1.653   2.628   2.902  0.4092 -0.5462  1.0351
13744TIP3   OH262646   5.812   3.292   0.560  0.0189  0.2157  0.1302
13744TIP3    H162647   5.732   3.331   0.523  0.8612  0.5469 -1.3772
13744TIP3    H262648   5.811   3.201   0.530  0.3063  0.2705 -0.0470
13745TIP3   OH262649   4.313   4.417   1.076 -0.0890  0.3880  0.0088
13745TIP3    H162650   4.295   4.446   1.166  1.4917  2.6298 -0.3458
13745TIP3    H262651   4.228   4.390   1.042 -0.7157 -0.5238  2.1782
13746TIP3   OH262652   2.840   1.867   5.881  0.2315  0.4427 -0.1664
13746TIP3    H162653   2.850   1.927   5.955 -0.3880  0.8060 -0.3668
13746TIP3    H262654   2.921   1.876   5.831 -0.3238  2.0185 -0.8310
13747TIP3   OH262655   1.722   0.350   5.823  0.7852 -0.3995  0.3933
13747TIP3    H162656   1.759   0.329   5.909  2.6832  1.9958  0.2251
13747TIP3    H262657   1.652   0.412   5.842  0.7240 -0.4329  0.2721
13748TIP3   OH262658   6.338   5.030  12.028  0.3516 -0.5255  0.3139
13748TIP3    H162659   6.423   5.072  12.020 -0.4693  0.8310 -1.5240
13748TIP3    H262660   6.275   5.102  12.034 -0.6296 -1.4959  2.6993
13749TIP3   OH262661   1.547   3.451   3.614 -0.3825  0.3461 -0.5030
13749TIP3    H162662   1.518   3.530   3.659  1.0444 -0.0627  1.1838
13749TIP3    H262663   1.505   3.380   3.662 -0.6579  0.0019 -1.2395
13750TIP3   OH262664   5.254   4.778  16.049 -0.3658  0.2252  0.0269
13750TIP3    H162665   5.276   4.759  16.140  0.5375 -0.9404 -0.4281
13750TIP3    H262666   5.159   4.771  16.046 -0.3063 -0.9611  0.6133
13751TIP3   OH262667   4.921   1.971   2.753 -0.0561  0.5214  0.1416
13751TIP3    H162668   4.882   1.997   2.670  2.8030  0.4532 -1.2743
13751TIP3    H262669   4.914   1.876   2.754  0.7673  0.4534 -0.4655
13752TIP3   OH262670   6.457   0.168   3.960 -0.2355 -0.2568  0.4198
13752TIP3    H162671   6.414   0.173   3.875  4.7372 -1.3535 -2.3480
13752TIP3    H262672   6.484   0.259   3.979 -1.1696 -0.0459  0.7568
13753TIP3   OH262673   4.805   2.621  16.959  0.0789 -0.8118  0.6912
13753TIP3    H162674   4.812   2.564  17.036  0.4026 -0.3670  0.9974
13753TIP3    H262675   4.768   2.565  16.891  0.5375 -1.4358  0.9401
13754TIP3   OH262676   6.677   1.812   4.658  0.3514 -0.4973  0.5674
13754TIP3    H162677   6.624   1.742   4.695 -1.7281  0.1564 -1.1033
13754TIP3    H262678   6.629   1.892   4.678  1.4405  0.2387  0.2823
13755TIP3   OH262679   6.362   2.688  12.711  0.6500  0.0770 -0.1443
13755TIP3    H162680   6.409   2.680  12.628 -0.1857  0.4853 -0.6559
13755TIP3    H262681   6.277   2.647  12.695  1.4889 -2.3598  1.3246
13756TIP3   OH262682   4.011   3.204   6.659  0.3846  0.3125 -0.0855
13756TIP3    H162683   4.064   3.277   6.692 -0.0116  0.2439  0.7150
13756TIP3    H262684   4.057   3.174   6.581  0.4252  1.5828 -0.5597
13757TIP3   OH262685   1.897   0.369   6.505 -0.1840  0.1997 -0.0051
13757TIP3    H162686   1.976   0.316   6.518  0.0962  0.5907 -0.0855
13757TIP3    H262687   1.825   0.310   6.524  0.1767  0.5658  2.7195
13758TIP3   OH262688   6.637   6.156  13.250  0.5516  0.1800 -0.0005
13758TIP3    H162689   6.585   6.086  13.289  1.2773 -1.2964 -1.6224
13758TIP3    H262690   6.572   6.216  13.213 -0.0648  0.0368  0.8371
13759TIP3   OH262691   2.465   2.744   5.390  0.0959  0.1194  0.1643
13759TIP3    H162692   2.408   2.748   5.467  1.1715  0.0379  0.9802
13759TIP3    H262693   2.509   2.659   5.397  2.0665  1.1590  0.8280
13760TIP3   OH262694   1.026   3.119  13.847  0.3624 -0.0722  0.2037
13760TIP3    H162695   0.992   3.032  13.868  0.2180 -0.0196  0.1888
13760TIP3    H262696   1.075   3.146  13.925  0.2100 -0.0669  0.2966
13761TIP3   OH262697   6.576   2.181  16.480  0.8047  0.0534 -0.5483
13761TIP3    H162698   6.552   2.193  16.388  1.0916  2.0997 -0.3913
13761TIP3    H262699   6.665   2.216  16.486  0.5655  0.4826  0.6130
13762TIP3   OH262700   2.184   6.602  16.852  0.5643  0.1035  0.4204
13762TIP3    H162701   2.242   6.647  16.790  1.6247 -0.6427  0.8492
13762TIP3    H262702   2.108   6.660  16.861  0.3585  0.1747 -1.6355
13763TIP3   OH262703   1.964   5.639   0.498 -0.2998  0.2803 -0.0853
13763TIP3    H162704   1.900   5.679   0.558  1.2464  2.6183  0.0986
13763TIP3    H262705   1.991   5.559   0.542 -2.4443 -0.2983  0.2407
13764TIP3   OH262706   4.451   3.957  12.894  0.6636  0.5243 -0.5729
13764TIP3    H162707   4.532   4.007  12.908  0.3703  0.4199  1.7461
13764TIP3    H262708   4.402   4.007  12.829  2.5758  0.5999 -2.0020
13765TIP3   OH262709   3.258   4.919   5.819  0.2357  0.5808 -0.3658
13765TIP3    H162710   3.351   4.894   5.821 -0.6300 -2.9286 -0.5019
13765TIP3    H262711   3.227   4.902   5.908 -0.8506 -0.8557 -0.9956
13766TIP3   OH262712   6.212   6.064  16.320  0.3605 -0.2103  0.1230
13766TIP3    H162713   6.210   6.057  16.415  1.5954  0.0150  0.1761
13766TIP3    H262714   6.279   6.131  16.302  0.1972 -0.3104 -0.8976
13767TIP3   OH262715   1.714   3.806  15.788  0.7466  0.5754  0.2521
13767TIP3    H162716   1.654   3.879  15.770  0.0194  0.2840  1.4435
13767TIP3    H262717   1.725   3.807  15.883  0.8204 -0.7931  0.2648
13768TIP3   OH262718   1.595   3.287  12.365 -0.0915  0.5594  0.5996
13768TIP3    H162719   1.534   3.241  12.422 -0.6933 -0.4392 -0.8156
13768TIP3    H262720   1.562   3.377  12.363 -1.0911  0.1948  0.4300
13769TIP3   OH262721   3.867   1.820  11.304  0.8610 -0.1948  0.5937
13769TIP3    H162722   3.838   1.871  11.379  0.7167  0.8084 -0.1247
13769TIP3    H262723   3.800   1.752  11.293 -0.9224  1.6768 -0.6353
13770TIP3   OH262724   4.193   0.525  14.615  0.3502 -0.5384  0.2023
13770TIP3    H162725   4.269   0.584  14.613  1.5100 -2.0212 -0.0588
13770TIP3    H262726   4.203   0.470  14.537 -1.5399 -0.1142 -0.3832
13771TIP3   OH262727   1.454   0.043   4.029 -0.5482 -0.2685 -0.1723
13771TIP3    H162728   1.438  -0.035   4.082 -1.4542 -0.7535 -1.1343
13771TIP3    H262729   1.416   0.115   4.079  0.9559 -0.3019  1.0792
13772TIP3   OH262730   4.081   3.952   3.520 -0.6903  0.1337 -0.5264
13772TIP3    H162731   4.023   4.025   3.500 -1.8908 -0.0758  2.0429
13772TIP3    H262732   4.167   3.993   3.533 -1.1901  1.0099  0.1134
13773TIP3   OH262733   4.343   5.847   5.636  0.0659  0.2963  0.6654
13773TIP3    H162734   4.315   5.883   5.721  0.0114 -0.6515  1.0530
13773TIP3    H262735   4.353   5.754   5.652 -0.2731  0.0621 -0.4669
13774TIP3   OH262736   4.392   0.153   1.795 -0.1068  0.1767  0.8655
13774TIP3    H162737   4.305   0.146   1.835 -0.1292 -0.4759  0.7002
13774TIP3    H262738   4.409   0.067   1.757  1.5004 -0.3486  2.6919
13775TIP3   OH262739   2.120   3.727  14.691 -0.4162 -0.1223  0.6649
13775TIP3    H162740   2.176   3.802  14.711 -1.3469  0.6954  0.1988
13775TIP3    H262741   2.040   3.742  14.741 -0.9110 -0.4142 -0.0290
13776TIP3   OH262742   6.292   5.094   5.813  0.0934 -0.4923  0.0655
13776TIP3    H162743   6.373   5.078   5.765 -0.1500  0.8407 -0.8216
13776TIP3    H262744   6.246   5.010   5.810  0.4376 -0.6450 -1.3635
13777TIP3   OH262745   0.669   0.996  11.246 -0.3339 -0.2328 -0.0075
13777TIP3    H162746   0.659   1.045  11.164 -0.5708 -1.0065 -0.4512
13777TIP3    H262747   0.586   1.009  11.291 -0.1490  0.3163  0.1796
13778TIP3   OH262748   4.069   2.408   5.686 -0.5969 -0.3712 -0.3823
13778TIP3    H162749   4.092   2.351   5.613  1.7942  2.4850 -1.9485
13778TIP3    H262750   4.028   2.485   5.646  2.9323  2.3541  0.9152
13779TIP3   OH262751   3.362   5.290  14.627 -0.5194 -0.1502  0.2906
13779TIP3    H162752   3.351   5.373  14.674 -0.1617  0.2085 -0.2575
13779TIP3    H262753   3.426   5.309  14.560  0.9977 -1.3713  1.3647
13780TIP3   OH262754   5.312   6.076  14.933 -0.2587 -0.6823 -0.5745
13780TIP3    H162755   5.330   6.106  14.844 -1.1089 -0.9940 -0.8582
13780TIP3    H262756   5.327   5.982  14.930 -1.2724 -0.8430 -0.6459
13781TIP3   OH262757   0.904   4.777   0.175 -0.0313  0.4870  0.1118
13781TIP3    H162758   0.891   4.682   0.169 -0.8695  0.6172 -0.2539
13781TIP3    H262759   0.835   4.807   0.234  0.8070  0.7534  0.9591
13782TIP3   OH262760   0.656   5.128  14.944 -0.2284  0.3831  0.2375
13782TIP3    H162761   0.639   5.091  15.031  0.2401  0.2114  0.2534
13782TIP3    H262762   0.635   5.221  14.954 -0.8605  0.2356  0.3455
13783TIP3   OH262763   3.444   2.265  14.971  0.0265  0.1934  0.0768
13783TIP3    H162764   3.416   2.284  14.882  3.1526 -1.0900 -1.2744
13783TIP3    H262765   3.493   2.343  14.998  3.5457 -1.3781 -1.3873
13784TIP3   OH262766   0.289   3.026  12.648 -0.0544 -0.6043 -0.3817
13784TIP3    H162767   0.311   3.103  12.700 -1.5281 -0.1173 -0.4544
13784TIP3    H262768   0.204   3.047  12.609  0.2242 -1.6743 -1.5877
13785TIP3   OH262769   0.882   2.896   2.373  0.2041  0.2917 -0.7694
13785TIP3    H162770   0.868   2.838   2.299  2.1168 -0.4491 -0.5712
13785TIP3    H262771   0.909   2.839   2.444 -1.6686  0.9928  0.5278
13786TIP3   OH262772   5.813   4.394  12.634 -0.2866 -0.0893 -0.1754
13786TIP3    H162773   5.801   4.393  12.539 -0.2066 -2.1333 -0.1771
13786TIP3    H262774   5.726   4.377  12.669  0.0122 -1.1476  0.0712
13787TIP3   OH262775   4.869   5.614   5.344  0.9583  0.1720  0.4692
13787TIP3    H162776   4.890   5.533   5.391  0.1093 -0.9700 -1.0286
13787TIP3    H262777   4.774   5.610   5.332  1.2219  0.0626 -1.9089
13788TIP3   OH262778   5.387   2.803  12.063 -0.3287  0.0241 -0.5285
13788TIP3    H162779   5.407   2.847  12.145  0.1951 -0.6523 -0.2932
13788TIP3    H262780   5.470   2.798  12.016 -0.6880  0.7135 -1.2535
13789TIP3   OH262781   2.344   3.508   2.337  0.6229 -0.0561 -0.7769
13789TIP3    H162782   2.382   3.550   2.415  0.6284  0.4519 -1.0554
13789TIP3    H262783   2.271   3.564   2.312  1.2975  0.3713 -1.7963
13790TIP3   OH262784   6.190   0.559   4.405  0.4261  0.1539 -0.3600
13790TIP3    H162785   6.260   0.621   4.428 -1.2386  2.3277 -1.0335
13790TIP3    H262786   6.201   0.545   4.311 -0.4463  1.0589 -0.6089
13791TIP3   OH262787   1.673   4.066  15.373  0.2206  0.3374  0.3802
13791TIP3    H162788   1.754   4.079  15.323  1.0285 -1.1446  1.2688
13791TIP3    H262789   1.630   3.992  15.330 -0.6235  1.0524 -0.0232
13792TIP3   OH262790   6.159   2.837   6.794  0.1460 -0.5936 -0.5768
13792TIP3    H162791   6.205   2.801   6.870 -0.0425 -2.3041 -1.2517
13792TIP3    H262792   6.224   2.834   6.723 -0.1683 -0.4715 -0.8738
13793TIP3   OH262793   1.619   3.866   1.764 -0.4735  0.0763  0.6846
13793TIP3    H162794   1.674   3.837   1.836  1.4981 -2.0697 -1.5721
13793TIP3    H262795   1.535   3.823   1.779 -0.2403  0.0290  1.9196
13794TIP3   OH262796   4.001   3.797  11.202 -0.0111  0.2975 -0.7667
13794TIP3    H162797   3.971   3.882  11.170  1.1269  0.5976 -1.0726
13794TIP3    H262798   4.024   3.812  11.293  1.8622  0.7606 -1.2982
13795TIP3   OH262799   0.984   2.259   3.580  0.2853 -0.2751 -0.9047
13795TIP3    H162800   0.919   2.209   3.629  1.1390 -1.2160 -0.7347
13795TIP3    H262801   0.932   2.325   3.533 -0.9700 -1.9791 -1.9634
13796TIP3   OH262802   4.316   6.706  14.995 -0.8232  0.2067  0.2217
13796TIP3    H162803   4.343   6.705  15.086  1.0909 -0.5111 -0.3304
13796TIP3    H262804   4.314   6.614  14.969 -0.1108  0.4703 -0.8033
13797TIP3   OH262805   5.357   6.600  16.143 -0.0048  0.2218 -0.1462
13797TIP3    H162806   5.279   6.630  16.097  0.9980 -0.5890 -2.4641
13797TIP3    H262807   5.327   6.529  16.200 -0.8985 -0.3311 -1.2973
13798TIP3   OH262808   3.880   1.393   2.643 -0.0869  0.4091  0.5048
13798TIP3    H162809   3.952   1.357   2.695  0.7664  0.7573 -0.4242
13798TIP3    H262810   3.906   1.378   2.552 -0.8867  1.1155  0.1528
13799TIP3   OH262811   4.907   0.127  13.123 -0.1908 -0.2010 -0.0870
13799TIP3    H162812   4.880   0.162  13.039 -1.8782  0.6248  0.7774
13799TIP3    H262813   4.951   0.200  13.167 -1.7323  0.2140  0.8186
13800TIP3   OH262814   3.910   1.907  11.678 -0.5925  0.5307 -0.0772
13800TIP3    H162815   3.886   1.838  11.740  0.4935  1.0914  0.9878
13800TIP3    H262816   3.827   1.943  11.649 -1.2507 -2.1309 -1.7242
13801TIP3   OH262817   6.234   1.315   2.333  0.1568 -0.4142 -0.1100
13801TIP3    H162818   6.168   1.264   2.286  0.4912 -0.2889 -0.7242
13801TIP3    H262819   6.312   1.311   2.277  1.6480 -3.0821  2.0239
13802TIP3   OH262820   4.275   1.592  15.130  0.2612  0.0136 -0.0874
13802TIP3    H162821   4.294   1.500  15.112 -0.8258 -0.6216  1.8526
13802TIP3    H262822   4.352   1.623  15.177  0.2304 -0.1530  0.0719
13803TIP3   OH262823   1.956   3.632  12.592  0.6731 -0.3684 -0.0291
13803TIP3    H162824   1.946   3.549  12.639  0.3059 -0.3918 -0.1446
13803TIP3    H262825   2.050   3.643  12.583  0.7524 -0.3593  0.7278
13804TIP3   OH262826   5.309   5.144   5.217 -0.2307  0.2560  0.7213
13804TIP3    H162827   5.259   5.104   5.146  0.4286 -1.1372  1.0113
13804TIP3    H262828   5.306   5.238   5.200  0.0181 -0.0758 -1.2233
13805TIP3   OH262829   1.724   4.454  16.088  0.5532  0.1426 -0.3560
13805TIP3    H162830   1.736   4.495  16.002 -0.2814 -0.9836 -1.0133
13805TIP3    H262831   1.630   4.440  16.096  0.6996 -0.4459  0.4300
13806TIP3   OH262832   4.503   6.140  12.204 -0.1067  0.3156 -0.0394
13806TIP3    H162833   4.532   6.219  12.250 -0.8981  1.5272 -1.5596
13806TIP3    H262834   4.575   6.119  12.145  0.2425 -0.3084  0.5959
13807TIP3   OH262835   4.443   0.269  10.476 -0.1225 -0.2675  0.4941
13807TIP3    H162836   4.364   0.215  10.484 -0.7970  0.8078  1.2357
13807TIP3    H262837   4.486   0.262  10.561  0.7387 -1.0655  0.0045
13808TIP3   OH262838   4.824   1.287   1.976  0.4154 -0.5215  0.5748
13808TIP3    H162839   4.768   1.294   1.898  1.2222 -1.3330 -0.0799
13808TIP3    H262840   4.907   1.254   1.943  1.7261  1.8594  1.3529
13809TIP3   OH262841   0.175   4.209  12.394 -0.2062  0.1937  0.2404
13809TIP3    H162842   0.097   4.175  12.437  0.6465 -1.7213  0.3306
13809TIP3    H262843   0.218   4.262  12.461 -1.2792  1.0191  0.2791
13810TIP3   OH262844   2.226   0.563   6.666  0.1005 -0.8097  0.5851
13810TIP3    H162845   2.276   0.483   6.650  0.7753 -0.1304 -0.7882
13810TIP3    H262846   2.293   0.630   6.680 -0.4555 -0.3438  1.0426
13811TIP3   OH262847   2.616   4.699   3.198  0.3678  0.2320  0.8743
13811TIP3    H162848   2.686   4.764   3.206  0.2712  0.6950 -1.5412
13811TIP3    H262849   2.541   4.740   3.243  0.3439  1.7678 -0.5001
13812TIP3   OH262850   5.059   0.964  16.528 -0.1368  0.0748  0.4567
13812TIP3    H162851   5.115   0.894  16.495  0.1077  0.2615  0.4695
13812TIP3    H262852   4.970   0.931  16.518 -0.0367 -0.1030  0.1541
13813TIP3   OH262853   3.784   2.128  14.187 -0.3455  0.3196  0.3535
13813TIP3    H162854   3.723   2.201  14.188  1.6205  2.0788 -2.0928
13813TIP3    H262855   3.799   2.108  14.280 -1.5253  2.4766  1.0413
13814TIP3   OH262856   3.178   1.566  15.505 -0.0895 -0.3357 -0.0748
13814TIP3    H162857   3.109   1.518  15.459 -0.5210 -0.1675  0.3916
13814TIP3    H262858   3.259   1.522  15.479 -0.4457 -1.0519  0.0085
13815TIP3   OH262859   5.892   3.364   5.888 -0.3963 -0.3798  0.5785
13815TIP3    H162860   5.925   3.278   5.913 -0.0468 -0.9161 -1.6800
13815TIP3    H262861   5.843   3.350   5.807 -1.8742  1.2595  1.1347
13816TIP3   OH262862   4.775   5.854  15.078 -0.4819 -0.2868  0.4010
13816TIP3    H162863   4.742   5.858  15.168  0.0399 -0.2262  0.5905
13816TIP3    H262864   4.870   5.849  15.087 -0.2869  1.8572 -0.1766
13817TIP3   OH262865   1.880   5.043   5.994  0.1013  0.4071 -0.4351
13817TIP3    H162866   1.828   5.081   6.064  1.2949  1.8695 -0.3250
13817TIP3    H262867   1.954   5.001   6.038  0.8971  1.3944 -0.7901
13818TIP3   OH262868   5.567   4.373   4.702 -0.3937 -0.2225  0.7383
13818TIP3    H162869   5.541   4.439   4.637 -0.4099  0.7158  1.6801
13818TIP3    H262870   5.657   4.351   4.679 -0.2590  0.4110  0.6415
13819TIP3   OH262871   0.374   4.083  12.276  0.4323 -0.1234  0.0967
13819TIP3    H162872   0.305   4.147  12.297 -0.1004  0.3270 -2.8014
13819TIP3    H262873   0.326   4.006  12.245  1.1927 -0.7079  0.3462
13820TIP3   OH262874   3.670   4.367  16.420  0.3138 -0.1384  0.0638
13820TIP3    H162875   3.605   4.365  16.490 -0.8962  0.8065 -1.0007
13820TIP3    H262876   3.650   4.290  16.367 -0.4252  0.5591 -0.6821
13821TIP3   OH262877   5.064   0.198  16.823  0.4213  0.5221  0.3311
13821TIP3    H162878   5.103   0.285  16.823  0.7469  0.3822  0.7533
13821TIP3    H262879   5.093   0.159  16.905 -1.3502  0.7388  1.0930
13822TIP3   OH262880   2.634   6.224  10.514 -0.2040  0.3307 -0.4687
13822TIP3    H162881   2.704   6.172  10.474 -0.7156 -1.6220  1.1440
13822TIP3    H262882   2.562   6.163  10.526 -0.0064  0.7848  3.6114
13823TIP3   OH262883   1.329   1.876  13.667  0.1278 -0.2442 -0.7430
13823TIP3    H162884   1.278   1.852  13.744  0.0527  0.8168 -0.4522
13823TIP3    H262885   1.366   1.793  13.636 -0.3844 -0.7738  0.0412
13824TIP3   OH262886   4.693   4.477   4.222 -0.0870  0.6818 -0.0371
13824TIP3    H162887   4.601   4.498   4.240 -0.5566  0.0264 -1.6431
13824TIP3    H262888   4.699   4.383   4.239  0.5050  0.8803  0.8961
13825TIP3   OH262889   4.517   2.041   0.231 -0.3531  0.5645 -0.3663
13825TIP3    H162890   4.501   2.121   0.281 -2.4632 -0.4966  0.7472
13825TIP3    H262891   4.496   1.970   0.293 -1.0537 -0.8005 -2.1294
13826TIP3   OH262892   3.411   2.827   1.133 -0.0977  0.4681  0.4437
13826TIP3    H162893   3.346   2.783   1.077  1.7397 -2.6204  0.6376
13826TIP3    H262894   3.482   2.850   1.073  1.1663 -1.4111  1.1867
13827TIP3   OH262895   6.153   1.478   5.288 -0.2073 -0.5231  0.4518
13827TIP3    H162896   6.163   1.439   5.201 -0.1610 -0.9690  0.6569
13827TIP3    H262897   6.134   1.404   5.345 -3.0196  0.0643  0.3762
13828TIP3   OH262898   3.771   1.016  16.212 -0.0614 -0.3330 -0.3973
13828TIP3    H162899   3.693   1.055  16.251 -0.8506 -0.8657 -1.3979
13828TIP3    H262900   3.840   1.080  16.227 -1.1608  1.1240 -1.3182
13829TIP3   OH262901   5.439   6.073  10.171  0.0298  0.2375  0.3983
13829TIP3    H162902   5.531   6.087  10.147 -0.2440  0.0695 -0.7448
13829TIP3    H262903   5.415   6.152  10.221  0.8098  0.2448  0.7761
13830TIP3   OH262904   4.105   0.325  12.624  0.5144 -0.0352  0.1568
13830TIP3    H162905   4.027   0.379  12.609 -0.5577 -1.6042 -0.0901
13830TIP3    H262906   4.178   0.384  12.610 -0.6200  1.1939 -0.7478
13831TIP3   OH262907   3.562   2.003  11.728  0.8379  0.3334  1.0404
13831TIP3    H162908   3.469   2.014  11.707  1.2796  0.1393 -1.2086
13831TIP3    H262909   3.599   2.091  11.722  1.3300  0.0109 -0.9732
13832TIP3   OH262910   1.270   1.792  12.494  0.1510 -0.3542 -0.1295
13832TIP3    H162911   1.262   1.785  12.399  1.9858 -0.2987 -0.2900
13832TIP3    H262912   1.273   1.702  12.525  0.0811 -0.3701 -0.1682
13833TIP3   OH262913   6.339   4.777  15.463  0.5854  0.3764 -0.0372
13833TIP3    H162914   6.428   4.781  15.499  0.6280 -1.2616  0.0919
13833TIP3    H262915   6.352   4.752  15.371  0.2457 -0.2270  0.0767
13834TIP3   OH262916   1.071   1.552  14.486  0.1668 -0.2082 -0.2666
13834TIP3    H162917   1.039   1.463  14.496 -0.8564  0.1476 -0.3628
13834TIP3    H262918   1.038   1.599  14.562 -1.1710  0.6275 -1.3489
13835TIP3   OH262919   5.608   1.647   1.673  0.1073 -0.3569 -0.6663
13835TIP3    H162920   5.609   1.739   1.646 -0.8830 -0.0579  0.2469
13835TIP3    H262921   5.523   1.637   1.717  0.7451 -1.3772  0.3417
13836TIP3   OH262922   0.393   4.442   2.101 -0.3638 -0.1210  0.3335
13836TIP3    H162923   0.488   4.433   2.090 -0.5765 -2.3176  0.1057
13836TIP3    H262924   0.358   4.431   2.013 -0.9746 -1.3555  0.7305
13837TIP3   OH262925   2.031   5.840  14.002 -0.0858  0.0712  0.5102
13837TIP3    H162926   1.978   5.818  13.926  0.3047 -0.5511  0.4168
13837TIP3    H262927   2.082   5.916  13.974 -0.0452 -0.0708  0.1988
13838TIP3   OH262928   2.583   2.989  12.432 -0.3725  0.6015 -0.9628
13838TIP3    H162929   2.554   3.071  12.470 -0.8571  0.4876 -1.0843
13838TIP3    H262930   2.679   2.991  12.439 -0.4508  0.6166  0.1807
13839TIP3   OH262931   2.288   4.931   5.177  0.0773 -0.0940 -0.3456
13839TIP3    H162932   2.228   5.006   5.171 -0.4361 -0.4767 -0.0731
13839TIP3    H262933   2.289   4.893   5.089  0.1702  0.1092 -0.4311
13840TIP3   OH262934   5.971   1.015   2.581  0.0469 -0.5344  0.1791
13840TIP3    H162935   5.968   0.927   2.618 -0.1787 -0.3415  0.6347
13840TIP3    H262936   6.064   1.035   2.572  0.1060 -0.6083  0.5972
13841TIP3   OH262937   0.552   0.053   0.484  0.6281  0.8234 -0.0605
13841TIP3    H162938   0.524   0.143   0.465 -0.3726  0.2402 -1.4394
13841TIP3    H262939   0.590   0.023   0.401 -0.9772 -0.7379 -0.2364
13842TIP3   OH262940   6.098   0.824  10.528 -0.0209 -0.2628  0.6161
13842TIP3    H162941   6.170   0.883  10.509  0.7341 -1.1609  0.6484
13842TIP3    H262942   6.137   0.753  10.579 -1.0195 -0.5130  1.0691
13843TIP3   OH262943   4.661   2.328   3.297  0.2055 -0.1646  0.0718
13843TIP3    H162944   4.598   2.346   3.227 -0.1939  0.3265  0.5418
13843TIP3    H262945   4.699   2.244   3.275 -0.8514 -0.6191 -0.0623
13844TIP3   OH262946   1.858   6.731   1.146  0.8627  0.1486 -0.2687
13844TIP3    H162947   1.814   6.646   1.157  1.2611  0.2259  2.2025
13844TIP3    H262948   1.899   6.725   1.060 -0.2649 -1.6312 -0.7262
13845TIP3   OH262949   0.269   5.881   3.936  0.2035 -0.5352 -0.6656
13845TIP3    H162950   0.254   5.950   3.871 -1.5889 -1.5493 -1.3560
13845TIP3    H262951   0.288   5.803   3.884 -1.4781 -1.4144 -0.0051
13846TIP3   OH262952   0.933   6.724   0.473 -0.2633 -1.0945 -0.1640
13846TIP3    H162953   0.905   6.787   0.540  0.9743 -0.1336 -0.5551
13846TIP3    H262954   0.851   6.694   0.434 -1.0614 -2.1262  2.1852
13847TIP3   OH262955   4.918   5.746   1.602  0.6783 -0.3797 -0.4474
13847TIP3    H162956   4.894   5.831   1.638 -0.9924 -0.6038 -0.9888
13847TIP3    H262957   4.891   5.750   1.510  0.5521 -1.4980 -0.4729
13848TIP3   OH262958   4.569   4.552   3.042 -0.1426  0.7586 -0.2780
13848TIP3    H162959   4.492   4.502   3.015 -0.3657  0.7466  0.3792
13848TIP3    H262960   4.573   4.625   2.981 -0.0351  0.1500 -1.0145
13849TIP3   OH262961   3.681   0.592   1.361 -0.5261  0.1435 -0.7020
13849TIP3    H162962   3.726   0.533   1.421 -0.1021  1.5283  0.3946
13849TIP3    H262963   3.611   0.540   1.323 -0.5171 -0.8994  0.6759
13850TIP3   OH262964   2.449   1.532   0.374  0.4586 -1.0615 -0.8418
13850TIP3    H162965   2.483   1.460   0.426  0.3254 -0.7822 -0.3685
13850TIP3    H262966   2.377   1.568   0.426  0.7379 -0.3802 -0.9245
13851TIP3   OH262967   5.391   1.798   3.303  0.0049  0.0628 -0.6545
13851TIP3    H162968   5.457   1.859   3.337  0.4267 -1.6512  1.7466
13851TIP3    H262969   5.309   1.825   3.345 -0.0664 -0.1706 -0.6397
13852TIP3   OH262970   5.004   4.020   3.860 -0.1916  0.1452  0.2812
13852TIP3    H162971   4.915   4.055   3.852  0.4802  1.3989 -2.6153
13852TIP3    H262972   5.010   3.953   3.792 -0.2103 -2.9996  3.2495
13853TIP3   OH262973   1.195   0.932  15.554 -0.1085 -0.0249  0.2304
13853TIP3    H162974   1.216   0.962  15.466  0.2846  1.0517  0.6815
13853TIP3    H262975   1.165   0.842  15.543 -0.5468  0.2742 -1.0588
13854TIP3   OH262976   3.334   6.167   0.030 -0.0545 -0.2271  1.4438
13854TIP3    H162977   3.238   6.165   0.035 -0.2204  1.6235 -0.4526
13854TIP3    H262978   3.357   6.080  -0.002 -1.3460  0.3527 -1.1875
13855TIP3   OH262979   1.713   1.695   2.446 -0.0701  0.1058 -0.6963
13855TIP3    H162980   1.772   1.769   2.462 -0.4181  0.0947  0.7493
13855TIP3    H262981   1.671   1.679   2.531 -1.2639 -0.6567 -1.4069
13856TIP3   OH262982   3.036   1.815   3.631 -0.3801 -0.3497  0.2693
13856TIP3    H162983   3.028   1.814   3.727 -1.0218 -3.1237  0.2277
13856TIP3    H262984   3.125   1.844   3.614  0.1831 -1.1799  1.7506
13857TIP3   OH262985   3.362   2.023   3.275  0.2131  0.1465 -0.2503
13857TIP3    H162986   3.400   1.960   3.336  1.1656 -0.0806 -1.0642
13857TIP3    H262987   3.328   1.969   3.203  0.4975  0.5194 -0.6666
13858TIP3   OH262988   4.613   6.538   0.546 -0.2738  0.5194  0.0417
13858TIP3    H162989   4.564   6.488   0.611 -0.4454  1.6329  0.7862
13858TIP3    H262990   4.547   6.577   0.489 -0.2270  1.2184  0.4524
13859TIP3   OH262991   4.766   0.772  16.959 -0.1358 -0.0704 -0.0730
13859TIP3    H162992   4.792   0.859  16.930 -2.3865 -0.3159 -3.0353
13859TIP3    H262993   4.767   0.777  17.054  1.1073  2.7739 -0.1901
13860TIP3   OH262994   1.608   4.352  11.453  0.4623 -0.0307 -0.0226
13860TIP3    H162995   1.528   4.308  11.481 -0.3459  2.1940  1.2688
13860TIP3    H262996   1.582   4.402  11.376  1.1764 -1.0346 -0.9489
13861TIP3   OH262997   1.374   4.718  15.597 -0.0525  0.5696  0.0578
13861TIP3    H162998   1.331   4.778  15.536  0.5474 -0.0837 -1.0294
13861TIP3    H262999   1.451   4.767  15.628 -1.7756  1.9216  2.3774
13862TIP3   OH263000   3.470   3.252   3.315 -0.0962 -0.9239 -0.1796
13862TIP3    H163001   3.393   3.203   3.287 -1.4668 -1.2121  3.7855
13862TIP3    H263002   3.499   3.208   3.395  1.3531  2.0194  0.9957
13863TIP3   OH263003   5.407   1.253  13.381 -0.0619 -0.0679  0.2520
13863TIP3    H163004   5.454   1.204  13.449  0.9889  1.0802  0.3681
13863TIP3    H263005   5.338   1.298  13.428  1.2774  1.5252  0.7501
13864TIP3   OH263006   1.119   6.541   2.411  0.0695 -0.3396  0.1573
13864TIP3    H163007   1.073   6.625   2.410  0.9508  0.1704 -1.8104
13864TIP3    H263008   1.188   6.552   2.476  0.5540  0.6830 -0.5208
13865TIP3   OH263009   1.637   1.903  14.245  0.0740 -0.2629 -0.3314
13865TIP3    H163010   1.554   1.912  14.291 -0.0176 -0.8969 -0.3728
13865TIP3    H263011   1.699   1.955  14.297 -0.4058  0.4546 -0.4665
13866TIP3   OH263012   2.737   1.822   4.341  0.1256 -0.2418  0.2993
13866TIP3    H163013   2.805   1.885   4.317  0.1141 -0.5971 -0.7197
13866TIP3    H263014   2.779   1.737   4.330 -0.7260 -0.4930 -1.2128
13867TIP3   OH263015   2.788   0.555  11.408 -0.0868  0.0182  0.6142
13867TIP3    H163016   2.882   0.543  11.402  0.3636  2.4374  2.0123
13867TIP3    H263017   2.777   0.629  11.468 -2.8408  0.4459 -0.3342
13868TIP3   OH263018   4.342   4.610  14.228 -0.3097 -0.2851 -0.9245
13868TIP3    H163019   4.334   4.522  14.265 -0.8161  0.5782  1.0915
13868TIP3    H263020   4.437   4.625  14.224 -0.2439 -0.0546  0.9304
13869TIP3   OH263021   2.409   2.082   3.933  0.2940 -0.2823 -0.7399
13869TIP3    H163022   2.379   2.067   4.022  0.7977  0.3305 -0.4609
13869TIP3    H263023   2.479   2.018   3.920  1.2211  0.5975 -0.1757
13870TIP3   OH263024   1.569   6.682  15.062  0.2180 -0.1442 -0.2837
13870TIP3    H163025   1.474   6.680  15.050  0.0723  0.4651  0.7058
13870TIP3    H263026   1.591   6.594  15.090  0.0099 -0.4108 -0.9317
13871TIP3   OH263027   2.215   6.235   1.978 -0.1613 -0.5324 -0.8035
13871TIP3    H163028   2.213   6.308   1.916 -0.1974 -0.7916 -1.1043
13871TIP3    H263029   2.156   6.170   1.942  0.0663 -0.8199 -0.6663
13872TIP3   OH263030   5.015   5.602  12.107 -0.1351  0.0657  0.3697
13872TIP3    H163031   5.081   5.564  12.049 -0.3260 -1.8115  1.3124
13872TIP3    H263032   5.061   5.672  12.153  0.8604 -0.3853  0.0921
13873TIP3   OH263033   6.471   3.107  15.645  0.3840 -0.2552  0.2716
13873TIP3    H163034   6.495   3.015  15.636 -0.1257 -0.4580  0.9261
13873TIP3    H263035   6.380   3.111  15.617  0.1892 -0.0841  0.9090
13874TIP3   OH263036   5.367   1.689  13.523 -0.3745  0.0189  0.0948
13874TIP3    H163037   5.369   1.593  13.518  0.8620 -0.0307  1.2368
13874TIP3    H263038   5.279   1.712  13.492 -0.1654 -1.3785 -1.6754
13875TIP3   OH263039   4.506   1.090  13.824 -0.0342  0.8807  0.1335
13875TIP3    H163040   4.470   1.062  13.739  3.3524 -3.2964 -0.0549
13875TIP3    H263041   4.573   1.155  13.801 -0.9031  1.6990 -0.1481
13876TIP3   OH263042   4.738   0.064  13.904  0.1297 -0.3190  0.0668
13876TIP3    H163043   4.667   0.026  13.852 -0.2854  1.4499 -0.7019
13876TIP3    H263044   4.695   0.106  13.977  0.4641 -0.0663  0.1209
13877TIP3   OH263045   5.697   5.634   0.915  0.5276 -0.2502  0.4793
13877TIP3    H163046   5.778   5.590   0.941  0.4656  0.2733  1.5952
13877TIP3    H263047   5.631   5.599   0.974  0.6597  2.0182  2.0542
13878TIP3   OH263048   0.693   2.608   0.637  0.0726  0.3293  0.1830
13878TIP3    H163049   0.685   2.619   0.542  0.5641 -3.9358 -0.4977
13878TIP3    H263050   0.782   2.639   0.656  0.0302  1.0847 -0.7694
13879TIP3   OH263051   4.532   1.753  12.284 -0.2532  0.0217 -0.2670
13879TIP3    H163052   4.494   1.833  12.321 -1.5644  0.0559 -1.6616
13879TIP3    H263053   4.465   1.686  12.297  0.7024 -0.7978  0.5796
13880TIP3   OH263054   4.347   3.605   2.717  0.9948 -0.5131  0.1999
13880TIP3    H163055   4.310   3.644   2.797 -0.6502 -0.8628 -0.3659
13880TIP3    H263056   4.429   3.652   2.703  0.0940  1.2697  0.7233
13881TIP3   OH263057   0.312   3.487   1.839 -0.3906 -0.5579 -0.0388
13881TIP3    H163058   0.224   3.523   1.848 -0.6744 -0.6008 -2.4341
13881TIP3    H263059   0.354   3.542   1.772  0.2706 -2.5686 -1.3207
13882TIP3   OH263060   4.998   4.193   1.815  0.3003 -0.5396 -0.0478
13882TIP3    H163061   4.927   4.258   1.806 -0.6428 -1.2913  1.7817
13882TIP3    H263062   4.994   4.143   1.734 -1.2301 -0.5244 -0.0023
13883TIP3   OH263063   0.254   0.653  14.640 -0.1078  0.2689 -0.6337
13883TIP3    H163064   0.341   0.618  14.660  0.6179  1.0859 -2.2735
13883TIP3    H263065   0.215   0.671  14.725  0.8826 -1.1805  0.1454
13884TIP3   OH263066   5.158   0.141   4.428  0.0923  0.1210  0.1934
13884TIP3    H163067   5.111   0.082   4.488 -1.8531  0.7374 -0.6772
13884TIP3    H263068   5.182   0.085   4.354  0.9490 -0.2433  0.7347
13885TIP3   OH263069   4.938   0.155   5.814  0.9567 -0.2380 -0.1177
13885TIP3    H163070   4.984   0.191   5.891 -1.1437 -0.9646  1.5094
13885TIP3    H263071   5.004   0.101   5.770  2.3979  0.7632  0.7646
13886TIP3   OH263072   6.652   3.824  11.278 -0.3387 -0.4340 -0.1121
13886TIP3    H163073   6.740   3.796  11.255 -0.5877 -0.7326 -0.7319
13886TIP3    H263074   6.650   3.823  11.374  0.0663 -1.2558 -0.1084
13887TIP3   OH263075   2.943   2.121  16.311 -0.2825 -0.5602  0.1567
13887TIP3    H163076   2.882   2.050  16.333  0.1926 -0.2845  2.5506
13887TIP3    H263077   2.888   2.198  16.301 -0.6187 -0.9048 -0.7480
13888TIP3   OH263078   1.745   5.793  14.506  0.2269 -0.0242  0.7407
13888TIP3    H163079   1.671   5.854  14.503 -0.1978 -0.2922  3.9631
13888TIP3    H263080   1.708   5.708  14.481  0.0641  0.3618 -0.3488
13889TIP3   OH263081   4.076   3.304   4.663 -0.1500  0.0504 -0.3158
13889TIP3    H163082   4.051   3.306   4.570 -1.4440 -0.3522  0.0176
13889TIP3    H263083   4.124   3.222   4.673 -0.1297  0.0263 -0.6004
13890TIP3   OH263084   0.257   1.982  11.539 -0.3474 -0.2381 -0.5270
13890TIP3    H163085   0.305   1.994  11.621 -2.1377  0.6303  0.4229
13890TIP3    H263086   0.322   1.997  11.471  1.2690 -1.3625  0.7261
13891TIP3   OH263087   2.958   5.288  15.086  0.1989  0.5892 -0.3671
13891TIP3    H163088   2.943   5.222  15.154 -0.5675  0.0381 -1.0623
13891TIP3    H263089   2.908   5.257  15.011  3.1972 -0.2303 -2.1070
13892TIP3   OH263090   4.780   2.310  16.575 -0.3072 -0.0897 -1.0044
13892TIP3    H163091   4.772   2.225  16.533  0.1241 -1.2692  1.2027
13892TIP3    H263092   4.852   2.299  16.638  0.1156  2.0682 -1.0720
13893TIP3   OH263093   3.143   5.311   3.855 -0.2909  0.5020 -0.5165
13893TIP3    H163094   3.151   5.405   3.840 -0.0666  0.6911  0.6988
13893TIP3    H263095   3.053   5.299   3.884 -0.1851  0.4223 -0.2097
13894TIP3   OH263096   3.186   0.567   3.301  0.6091  0.5201  0.4421
13894TIP3    H163097   3.219   0.509   3.369 -4.3031 -1.9115  0.9253
13894TIP3    H263098   3.108   0.524   3.267 -0.6559  4.6707 -2.4225
13895TIP3   OH263099   5.071   0.338   1.320  0.4291  0.3593 -0.2335
13895TIP3    H163100   5.026   0.418   1.349 -3.2051 -0.7352 -2.4974
13895TIP3    H263101   5.021   0.309   1.243  2.0643 -3.7175  0.1139
13896TIP3   OH263102   2.563   0.455   5.243 -0.0058  0.2628 -0.4442
13896TIP3    H163103   2.510   0.376   5.249 -1.7439  1.3894 -0.8782
13896TIP3    H263104   2.539   0.494   5.159  1.1308  1.0703 -0.4076
13897TIP3   OH263105   0.554   0.947   1.134 -0.6076 -0.1445  0.4080
13897TIP3    H163106   0.520   0.921   1.048  0.5489  0.2135 -0.1612
13897TIP3    H263107   0.511   1.031   1.152 -0.1708  0.2163 -0.2283
13898TIP3   OH263108   1.165   4.748   3.555 -0.0481 -0.1706 -0.2212
13898TIP3    H163109   1.175   4.799   3.635 -0.3510 -0.9216  0.3023
13898TIP3    H263110   1.249   4.703   3.545  0.1217  0.2073 -0.5349
13899TIP3   OH263111   1.095   5.104  12.770  0.1890  0.5238  0.3589
13899TIP3    H163112   1.024   5.167  12.780 -1.1556 -0.8972 -0.2244
13899TIP3    H263113   1.143   5.134  12.693 -1.3993 -0.0794 -0.8767
13900TIP3   OH263114   2.734   6.759   4.542 -0.2242  0.6614 -0.1326
13900TIP3    H163115   2.822   6.788   4.567 -0.4789  1.4848 -0.1796
13900TIP3    H263116   2.734   6.665   4.562  1.1003  0.3688 -1.3727
13901TIP3   OH263117   4.093   2.777   6.846  0.6223 -0.2568  0.0665
13901TIP3    H163118   4.032   2.726   6.793  0.8437  0.4325 -0.8749
13901TIP3    H263119   4.178   2.763   6.804  1.0389 -0.8262  1.0811
13902TIP3   OH263120   4.573   2.565   1.421 -0.0076  0.0408  0.7967
13902TIP3    H163121   4.599   2.651   1.454  0.1826  1.0128 -1.7643
13902TIP3    H263122   4.642   2.506   1.451  1.3013  1.2780  0.2456
13903TIP3   OH263123   1.638   0.045   2.328 -0.7388 -0.9196 -0.3680
13903TIP3    H163124   1.607   0.136   2.334 -0.4192 -0.8883  1.2783
13903TIP3    H263125   1.606   0.004   2.409  1.2118 -1.6005  0.0811
13904TIP3   OH263126   0.547   2.336   0.422 -0.3818  0.4928 -0.0004
13904TIP3    H163127   0.526   2.427   0.405 -0.1376  0.9912  2.2182
13904TIP3    H263128   0.609   2.312   0.353 -0.7659  1.8804 -0.8316
13905TIP3   OH263129   4.479   0.769   0.795 -0.1221  0.3340 -0.1791
13905TIP3    H163130   4.424   0.691   0.785  2.1798 -1.2346 -0.8955
13905TIP3    H263131   4.534   0.750   0.871  1.1198  0.8382 -0.9423
13906TIP3   OH263132   0.840   5.217   3.886 -0.0824 -0.2366 -0.7627
13906TIP3    H163133   0.896   5.143   3.862 -0.6533 -0.6411 -0.8448
13906TIP3    H263134   0.842   5.218   3.982 -1.8366 -1.7313 -0.6749
13907TIP3   OH263135   2.920   5.309   3.177 -0.3271  0.8846  0.4451
13907TIP3    H163136   2.980   5.246   3.218 -0.9497  0.1208  0.1924
13907TIP3    H263137   2.904   5.274   3.090 -1.7631  0.6643  0.7864
13908TIP3   OH263138   3.733   1.480  11.968 -0.6097 -0.0723 -0.0366
13908TIP3    H163139   3.828   1.477  11.981 -0.6973 -0.7137  0.4664
13908TIP3    H263140   3.722   1.474  11.874 -0.1634 -0.3297 -0.0751
13909TIP3   OH263141   5.312   1.089  13.014  0.1264 -0.3811 -0.3869
13909TIP3    H163142   5.268   1.158  13.065 -1.0342 -1.9873  0.8348
13909TIP3    H263143   5.383   1.135  12.969  1.1471  1.1416  2.5840
13910TIP3   OH263144   0.294   4.350   1.478 -0.3996  0.2552  0.0980
13910TIP3    H163145   0.221   4.399   1.439  0.1077  0.3833 -0.7016
13910TIP3    H263146   0.252   4.282   1.530 -1.0916 -0.2364 -1.0793
13911TIP3   OH263147   2.794   5.651  15.906 -0.3823  0.2825  0.2818
13911TIP3    H163148   2.758   5.563  15.915  0.2617  0.0447  0.4803
13911TIP3    H263149   2.815   5.659  15.813 -1.2973  0.5577  0.0915
13912TIP3   OH263150   3.582   2.639   1.828 -0.8616 -1.0097  0.4187
13912TIP3    H163151   3.521   2.711   1.809 -0.3523 -0.5253  0.6142
13912TIP3    H263152   3.643   2.639   1.754 -1.3315 -1.7541  0.0200
13913TIP3   OH263153   5.117   6.013  16.668 -0.1274  0.1631  0.1500
13913TIP3    H163154   5.023   6.024  16.650 -0.3284 -0.7425  0.6393
13913TIP3    H263155   5.150   5.962  16.595 -0.1603 -0.1192  0.3289
13914TIP3   OH263156   4.365   6.628   4.603 -0.2921 -0.3811  0.1605
13914TIP3    H163157   4.297   6.561   4.612  1.1560 -1.7330  1.4274
13914TIP3    H263158   4.342   6.694   4.668 -0.7531 -0.5307  0.1505
13915TIP3   OH263159   4.799   1.039   1.575 -0.1815  0.0373  0.0230
13915TIP3    H163160   4.738   1.063   1.644 -0.3553  2.2811 -0.8882
13915TIP3    H263161   4.876   1.005   1.622 -0.2791  1.5537  1.3280
13916TIP3   OH263162   0.467   4.225  16.029  0.0439 -0.5964  0.0015
13916TIP3    H163163   0.478   4.143  15.981  0.6508 -0.3930 -0.2114
13916TIP3    H263164   0.384   4.261  15.996 -0.1835 -1.0844  0.0411
13917TIP3   OH263165   2.121   2.541  11.841 -0.1280  0.3792  0.0900
13917TIP3    H163166   2.158   2.592  11.912 -1.1055  0.1456  0.7888
13917TIP3    H263167   2.132   2.595  11.763 -0.0508  1.1206  0.6144
13918TIP3   OH263168   5.582   5.035   0.312  0.6771 -0.5295 -0.3595
13918TIP3    H163169   5.661   5.020   0.260 -0.0440  0.5388 -1.8121
13918TIP3    H263170   5.576   5.130   0.319  0.5740 -0.6522  1.4346
13919TIP3   OH263171   1.460   0.826   0.524  0.1910 -0.2006 -0.1232
13919TIP3    H163172   1.400   0.894   0.490 -0.4033 -0.5204  0.2732
13919TIP3    H263173   1.487   0.859   0.610  2.5614  1.1370 -1.3301
13920TIP3   OH263174   2.407   3.233   3.410 -0.8723 -0.2102 -0.5662
13920TIP3    H163175   2.439   3.323   3.415  0.5835 -0.7865  0.8313
13920TIP3    H263176   2.331   3.238   3.353  0.6081  1.5191 -2.4873
13921TIP3   OH263177   6.722   6.534   3.294  0.0517 -0.1954  0.2266
13921TIP3    H163178   6.685   6.613   3.254  0.6838 -0.5033 -0.9947
13921TIP3    H263179   6.680   6.528   3.379 -1.1720  0.5923 -0.3098
13922TIP3   OH263180   1.148   2.691   1.551  0.3040  0.4796 -0.3775
13922TIP3    H163181   1.238   2.661   1.542 -0.4101 -1.5416 -1.0369
13922TIP3    H263182   1.155   2.785   1.569  2.4543  0.9735 -3.4620
13923TIP3   OH263183   3.374   1.278  15.937  0.6663 -0.1440 -0.2640
13923TIP3    H163184   3.461   1.284  15.978  1.2357  0.5313 -1.5449
13923TIP3    H263185   3.383   1.327  15.855 -0.2635 -2.0564 -1.5387
13924TIP3   OH263186   2.114   5.782   1.338 -0.0084  0.5285  0.1959
13924TIP3    H163187   2.046   5.770   1.272  0.5027 -0.4851 -0.1590
13924TIP3    H263188   2.083   5.733   1.414  1.4142 -1.9560 -0.7703
13925TIP3   OH263189   4.588   1.441  10.189 -0.3236  0.0879 -0.1467
13925TIP3    H163190   4.503   1.485  10.184  0.0712  0.9712  0.8490
13925TIP3    H263191   4.573   1.365  10.246 -0.6911 -0.3491 -0.8192
13926TIP3   OH263192   3.893   2.941  11.675  0.5039 -0.2963 -0.6009
13926TIP3    H163193   3.987   2.941  11.656  0.8325  0.4105  0.9452
13926TIP3    H263194   3.855   2.996  11.606  1.3434  0.1535 -0.7170
13927TIP3   OH263195   5.807   6.653  13.891  0.3552  0.3061  0.5693
13927TIP3    H163196   5.873   6.668  13.823  2.4601 -1.3902  2.1881
13927TIP3    H263197   5.853   6.668  13.973 -1.6353  0.3309  1.7204
13928TIP3   OH263198   5.318   6.496  10.517  0.2150  0.0817 -0.1610
13928TIP3    H163199   5.301   6.449  10.599  1.1267  1.0946  0.6284
13928TIP3    H263200   5.236   6.542  10.499 -1.2734 -3.0113 -1.8195
13929TIP3   OH263201   6.341   5.124  12.863 -1.0737  0.5021  0.1876
13929TIP3    H163202   6.389   5.069  12.925 -1.8776  1.9246  2.0932
13929TIP3    H263203   6.408   5.151  12.800 -0.3753 -1.4816  0.0227
13930TIP3   OH263204   0.286   4.071   3.438  0.3976  0.5914  0.0637
13930TIP3    H163205   0.369   4.083   3.393 -0.3908  3.5249 -0.7330
13930TIP3    H263206   0.260   4.159   3.465 -3.2872  0.0049 -1.2247
13931TIP3   OH263207   4.863   5.008   1.119  0.4506 -0.4347  0.1824
13931TIP3    H163208   4.887   4.939   1.057  3.1286 -0.2171  0.9335
13931TIP3    H263209   4.796   4.967   1.174  0.2198 -1.6118 -0.9370
13932TIP3   OH263210   1.481   4.296  12.113 -0.0540 -0.0751 -0.3317
13932TIP3    H163211   1.465   4.221  12.055  1.3085  1.0458 -2.2087
13932TIP3    H263212   1.406   4.354  12.097  0.1719  0.0991 -0.7859
13933TIP3   OH263213   6.592   1.970  14.379  0.1310 -0.0415 -0.0197
13933TIP3    H163214   6.683   1.967  14.410 -0.1301 -0.8299  0.7120
13933TIP3    H263215   6.599   1.972  14.284  0.8914 -1.9599 -0.0176
13934TIP3   OH263216   5.497   2.398   4.087  0.7454  0.2939  0.2214
13934TIP3    H163217   5.506   2.457   4.162  0.3992  0.4842  0.1147
13934TIP3    H263218   5.587   2.377   4.062  0.8441 -1.1280  1.7574
13935TIP3   OH263219   3.759   0.685   0.086 -0.0524 -0.4080  0.3613
13935TIP3    H163220   3.816   0.721   0.018  0.3092 -0.5631  0.5753
13935TIP3    H263221   3.756   0.591   0.067 -1.6814 -0.1576 -0.6987
13936TIP3   OH263222   1.236   1.603   1.973  0.2269  0.0639  0.6198
13936TIP3    H163223   1.321   1.618   1.931  1.3931 -1.9466  2.1768
13936TIP3    H263224   1.228   1.508   1.978 -1.5938  0.2473  1.5696
13937TIP3   OH263225   2.724   0.153   3.015 -0.6364  0.5839  0.7014
13937TIP3    H163226   2.636   0.134   3.046 -0.5125  2.2754  2.1417
13937TIP3    H263227   2.759   0.067   2.989 -2.6682 -0.0923  0.1295
13938TIP3   OH263228   0.090   0.364  14.633 -0.5074  0.2768 -0.2159
13938TIP3    H163229   0.151   0.401  14.697 -1.2992 -0.2134  0.8254
13938TIP3    H263230   0.085   0.431  14.564  2.3186 -0.3114 -1.0524
13939TIP3   OH263231   2.220   2.103  17.118 -0.4327 -0.6001 -0.5017
13939TIP3    H163232   2.242   2.163  17.189  0.5062 -0.6175 -0.7717
13939TIP3    H263233   2.158   2.041  17.157 -1.3860  0.5321 -0.2177
13940TIP3   OH263234   1.055   4.498   3.948  0.6522  0.2359 -0.4250
13940TIP3    H163235   1.079   4.517   3.857 -0.3085 -0.2087 -0.7789
13940TIP3    H263236   1.094   4.570   3.998  0.1161  1.1722 -1.3361
13941TIP3   OH263237   6.702   1.012  14.339 -0.3873  0.4439 -0.0647
13941TIP3    H163238   6.770   1.048  14.396 -0.4555 -0.3746  0.5393
13941TIP3    H263239   6.680   0.928  14.379 -0.7808  0.0889 -1.0340
13942TIP3   OH263240   6.074   4.997   0.441  0.2494 -0.6350  0.2501
13942TIP3    H163241   6.057   5.064   0.507  1.9010 -2.5028  2.6515
13942TIP3    H263242   6.164   5.013   0.413  0.5483 -1.6620  0.6134
13943TIP3   OH263243   5.078   5.318   1.245 -0.2030  0.2070  0.3025
13943TIP3    H163244   5.014   5.293   1.311  0.1424  0.4828  0.7385
13943TIP3    H263245   5.124   5.392   1.283  0.2574  0.1200 -0.0863
13944TIP3   OH263246   2.760   4.850   4.227 -0.4474  0.3333  0.1465
13944TIP3    H163247   2.760   4.869   4.321 -1.1157  1.4104 -0.0553
13944TIP3    H263248   2.692   4.907   4.191  0.5007  0.6815 -1.1381
13945TIP3   OH263249   5.116   4.660   0.961 -0.2625 -0.0639  0.7350
13945TIP3    H163250   5.195   4.707   0.935  0.4577 -1.0023  1.1676
13945TIP3    H263251   5.045   4.724   0.951  0.7874  1.3512  2.0442
13946TIP3   OH263252   4.562   0.057   6.485 -0.5182 -0.4192  0.1750
13946TIP3    H163253   4.528   0.113   6.416  2.1261 -0.0730 -0.9224
13946TIP3    H263254   4.532  -0.031   6.463 -4.1835  0.4120  1.5702
13947TIP3   OH263255   0.983   1.764  15.557  0.4010  0.0503  0.9404
13947TIP3    H163256   1.076   1.741  15.563  0.4206 -1.0032 -2.5087
13947TIP3    H263257   0.981   1.858  15.569  1.8064 -0.0138  1.9172
13948TIP3   OH263258   0.465   1.836   1.441 -0.3633 -0.5052  0.2150
13948TIP3    H163259   0.403   1.786   1.495  0.5578 -0.3409  1.4566
13948TIP3    H263260   0.535   1.774   1.422 -1.4528 -1.0608 -2.2299
13949TIP3   OH263261   4.326   0.943   6.882  0.2084 -0.1651 -0.4023
13949TIP3    H163262   4.250   0.988   6.844 -0.0342  0.5790  0.9277
13949TIP3    H263263   4.397   0.958   6.820 -0.1822  1.0151 -0.5736
13950TIP3   OH263264   0.675   5.852   5.550  0.4484 -0.4398  0.4352
13950TIP3    H163265   0.715   5.896   5.475 -1.4167 -0.4122 -0.5671
13950TIP3    H263266   0.606   5.911   5.579  1.6206 -0.1090  2.6654
13951TIP3   OH263267   2.638   5.272   3.347  0.5564 -0.5921  0.4210
13951TIP3    H163268   2.549   5.254   3.316 -0.1789 -0.1869  2.2604
13951TIP3    H263269   2.662   5.354   3.304 -0.3260 -0.2119  0.6455
13952TIP3   OH263270   3.240   5.769   2.195  0.0053 -0.0341 -0.0071
13952TIP3    H163271   3.267   5.783   2.104  1.4892 -0.4179  0.3560
13952TIP3    H263272   3.146   5.751   2.189  0.1127 -0.2362 -1.4792
13953TIP3   OH263273   5.324   3.283  16.357 -0.1106 -0.6141 -0.1670
13953TIP3    H163274   5.291   3.263  16.269  1.8199 -0.4496 -0.9739
13953TIP3    H263275   5.344   3.198  16.395 -0.9890 -0.6881  0.1260
13954TIP3   OH263276   4.074   1.191  11.531  0.7718  0.0607 -0.0307
13954TIP3    H163277   4.146   1.186  11.468 -0.0630 -2.4471 -0.8384
13954TIP3    H263278   3.995   1.184  11.477  0.0201 -0.4101  1.1219
13955TIP3   OH263279   4.390   1.911   4.307  0.0053  0.0490 -1.0234
13955TIP3    H163280   4.305   1.868   4.305 -0.5806  1.0846  0.5631
13955TIP3    H263281   4.405   1.939   4.217 -1.2321 -0.3298 -1.3577
13956TIP3   OH263282   6.460   2.470   4.094 -0.5974  0.0096 -0.0760
13956TIP3    H163283   6.537   2.442   4.044 -0.4389 -0.7136  0.5627
13956TIP3    H263284   6.391   2.480   4.029 -0.1943 -0.1943 -0.5328
13957TIP3   OH263285   1.412   0.440  16.055  0.1350 -0.4798 -0.2924
13957TIP3    H163286   1.421   0.421  15.961 -0.8462 -0.3638 -0.4098
13957TIP3    H263287   1.374   0.361  16.092 -1.0052  0.0628 -0.2689
13958TIP3   OH263288   3.973   6.408  14.959 -0.6139  0.0130  0.4133
13958TIP3    H163289   3.907   6.430  15.025 -0.6404 -1.8473  1.0390
13958TIP3    H263290   4.016   6.329  14.993  0.1374 -0.3247 -1.2560
13959TIP3   OH263291   1.566   1.005   4.977 -0.5717  0.4010  0.1375
13959TIP3    H163292   1.565   0.916   5.011  0.2353  0.5904  0.6428
13959TIP3    H263293   1.637   1.049   5.023 -0.0943  0.9360 -1.0682
13960TIP3   OH263294   5.793   6.678   1.751  0.1844 -0.0450  0.8051
13960TIP3    H163295   5.859   6.697   1.685 -0.8010  0.5059 -0.0439
13960TIP3    H263296   5.713   6.720   1.719 -0.9536 -1.9046  1.0617
13961TIP3   OH263297   5.674   6.155   3.398 -0.2942  0.2288  0.2830
13961TIP3    H163298   5.695   6.238   3.354  1.4158 -0.6189 -0.5798
13961TIP3    H263299   5.620   6.107   3.334 -2.4277  1.2021  1.3194
13962TIP3   OH263300   5.416   3.409   0.218  0.1491  0.4669 -0.1667
13962TIP3    H163301   5.457   3.353   0.284  0.7059  0.9746 -0.0807
13962TIP3    H263302   5.422   3.497   0.255  0.0096  0.6891 -0.6764
13963TIP3   OH263303   3.346   6.211   5.762  0.3795  0.3304 -0.0068
13963TIP3    H163304   3.438   6.196   5.740  0.6588 -0.0204  1.3382
13963TIP3    H263305   3.323   6.293   5.719  0.3507 -1.2496 -3.1363
13964TIP3   OH263306   3.139   4.211   7.073  0.0633 -0.1887 -0.3660
13964TIP3    H163307   3.199   4.137   7.073  0.2098 -0.0747 -1.4213
13964TIP3    H263308   3.195   4.288   7.067 -0.1112 -0.0002  0.2955
13965TIP3   OH263309   0.945   6.304  13.865 -0.4915  0.2314  0.0191
13965TIP3    H163310   0.909   6.392  13.853 -1.4890 -0.2411 -0.5418
13965TIP3    H263311   0.926   6.282  13.956 -1.9458 -0.1411 -0.3594
13966TIP3   OH263312   2.596   5.518   1.969 -0.1452  0.7450  0.2108
13966TIP3    H163313   2.601   5.544   2.061 -2.3951 -2.4560  1.3049
13966TIP3    H263314   2.630   5.429   1.967 -0.6442  0.5589 -2.0057
13967TIP3   OH263315   1.397   3.319   4.363 -1.2950 -0.0613  0.6335
13967TIP3    H163316   1.383   3.411   4.342  0.0784  0.4399  1.7854
13967TIP3    H263317   1.318   3.292   4.410 -1.8457  0.4359 -0.0090
13968TIP3   OH263318   3.489   6.051  15.836  0.3827 -0.3558  0.1419
13968TIP3    H163319   3.575   6.011  15.824  0.2014 -0.4061 -0.9824
13968TIP3    H263320   3.443   5.991  15.895  1.4514  0.1732  1.5577
13969TIP3   OH263321   6.499   1.006  10.711 -0.3015  0.7536  0.2317
13969TIP3    H163322   6.468   0.940  10.774 -2.1313  1.6714  0.3212
13969TIP3    H263323   6.532   1.077  10.766  0.1462  0.6059  0.1483
13970TIP3   OH263324   1.030   6.130   4.164  0.2504 -0.2531  0.1048
13970TIP3    H163325   1.043   6.047   4.209  0.4998 -0.2925 -0.0413
13970TIP3    H263326   0.967   6.178   4.219 -1.1383 -1.1748 -0.6502
13971TIP3   OH263327   6.056   6.247  12.285  0.0003 -0.8314  0.4323
13971TIP3    H163328   6.055   6.286  12.373 -0.1040  0.0378  0.0468
13971TIP3    H263329   6.001   6.169  12.293 -1.0523 -0.0530  0.8231
13972TIP3   OH263330   4.277   0.638   0.324  0.5634 -0.4024  0.0369
13972TIP3    H163331   4.353   0.588   0.293 -1.1119 -2.7964 -0.3773
13972TIP3    H263332   4.312   0.723   0.348  3.1293 -0.9638 -1.5568
13973TIP3   OH263333   5.323   2.601   3.400  0.2614 -0.5467  0.1626
13973TIP3    H163334   5.263   2.540   3.443  2.0140 -1.3959  1.4513
13973TIP3    H263335   5.317   2.681   3.452 -1.5453  0.2209 -1.1474
13974TIP3   OH263336   4.674   1.734  15.118  0.2803 -0.5216 -0.7893
13974TIP3    H163337   4.633   1.647  15.113  1.1237 -1.1256  2.0501
13974TIP3    H263338   4.762   1.721  15.085  0.9616 -1.1679  1.1984
13975TIP3   OH263339   3.113   1.174  14.233  0.2893  0.5213 -0.4138
13975TIP3    H163340   3.124   1.083  14.260 -0.7987  1.2282  2.5784
13975TIP3    H263341   3.202   1.209  14.226  0.6757 -0.4817 -0.5375
13976TIP3   OH263342   2.377   3.530   1.038 -0.4594  0.5332 -0.1167
13976TIP3    H163343   2.398   3.615   0.999  1.4705  0.2511  0.2793
13976TIP3    H263344   2.391   3.542   1.132  0.1123 -0.3165 -0.0944
13977TIP3   OH263345   3.814   6.762   3.200  0.4510 -0.3092 -0.0187
13977TIP3    H163346   3.742   6.735   3.256  0.1470  1.1672  0.3201
13977TIP3    H263347   3.815   6.698   3.130 -0.7141 -0.7740  0.3772
13978TIP3   OH263348   4.906   5.198  14.310 -0.0929  0.2273 -0.0286
13978TIP3    H163349   4.842   5.183  14.240 -0.4783  1.7614 -0.0292
13978TIP3    H263350   4.892   5.126  14.371 -0.1835 -0.7759 -1.2235
13979TIP3   OH263351   6.207   1.610   1.200  0.3801 -0.1721 -0.1898
13979TIP3    H163352   6.159   1.662   1.136  1.6289 -0.0750 -1.0832
13979TIP3    H263353   6.231   1.671   1.269 -0.2344 -0.0862 -0.0552
13980TIP3   OH263354   2.385   1.056  16.687  0.2125  0.0398 -0.4365
13980TIP3    H163355   2.353   1.018  16.769 -0.0410 -0.6887 -0.8725
13980TIP3    H263356   2.477   1.027  16.682  0.8840  1.8907  0.6698
13981TIP3   OH263357   2.273   2.809   2.112  0.4099  0.0576 -0.0602
13981TIP3    H163358   2.281   2.871   2.039  0.1392 -0.3296 -0.4237
13981TIP3    H263359   2.233   2.731   2.073  0.6216 -0.2979  0.4189
13982TIP3   OH263360   2.866   2.518  11.478  0.3723 -0.1625  0.3778
13982TIP3    H163361   2.782   2.500  11.435  0.6355  2.3252 -1.2700
13982TIP3    H263362   2.843   2.537  11.569 -0.7014 -0.6747  0.2248
13983TIP3   OH263363   4.742   1.912  16.178  0.1131 -0.0354  0.3754
13983TIP3    H163364   4.771   2.003  16.185  0.1528 -0.0068 -0.1472
13983TIP3    H263365   4.782   1.880  16.097  0.9605 -0.8410  1.1013
13984TIP3   OH263366   5.125   2.790  11.871  0.3493 -0.0082 -0.1453
13984TIP3    H163367   5.207   2.796  11.920  1.2407 -1.4716 -1.3699
13984TIP3    H263368   5.057   2.814  11.933  1.6262  0.1265  1.2172
13985TIP3   OH263369   4.741   5.558  12.113 -0.0858 -0.0492 -0.8971
13985TIP3    H163370   4.789   5.475  12.110 -0.4264 -0.2372 -1.1204
13985TIP3    H263371   4.806   5.623  12.087  0.2659 -0.2044 -0.4305
13986TIP3   OH263372   3.275   2.637  13.181  0.2657 -0.6167 -0.2965
13986TIP3    H163373   3.265   2.591  13.098 -1.9994  0.8869 -0.9055
13986TIP3    H263374   3.306   2.724  13.157 -0.1746 -0.2510  0.4416
13987TIP3   OH263375   3.032   0.850   2.771  0.2163  0.2605 -0.0360
13987TIP3    H163376   2.947   0.827   2.734 -0.3308  2.2914 -0.1204
13987TIP3    H263377   3.077   0.767   2.782 -1.9230 -0.8926  0.3600
13988TIP3   OH263378   6.420   5.404  15.258 -0.2021  0.8058  0.4958
13988TIP3    H163379   6.340   5.455  15.244  0.1035  1.0701 -0.3088
13988TIP3    H263380   6.465   5.406  15.174  0.9306  1.1360  1.0938
13989TIP3   OH263381   2.223   2.925  13.890  0.1708  0.1154 -0.3444
13989TIP3    H163382   2.158   2.883  13.946  0.0374  0.0586 -0.5408
13989TIP3    H263383   2.175   2.998  13.850  0.1562 -0.0824 -0.6892
13990TIP3   OH263384   6.124   5.397   5.457  0.2090  0.0598 -0.0300
13990TIP3    H163385   6.098   5.482   5.491 -1.3517 -0.9080  1.2853
13990TIP3    H263386   6.108   5.336   5.530 -0.5079 -1.6342 -1.5552
13991TIP3   OH263387   1.881   0.829   2.112  0.1316 -0.0442 -0.8357
13991TIP3    H163388   1.868   0.829   2.207 -0.2457 -0.3040 -0.8903
13991TIP3    H263389   1.817   0.891   2.079 -0.2629 -0.5415 -0.9987
13992TIP3   OH263390   0.001   1.872  13.427 -0.4079 -0.0108 -0.3389
13992TIP3    H163391  -0.014   1.886  13.333 -1.8445 -0.0656 -0.1288
13992TIP3    H263392   0.095   1.850  13.433  0.7848  4.4579 -1.2299
13993TIP3   OH263393   5.277   1.199  15.958  0.2796  0.3655  0.5292
13993TIP3    H163394   5.327   1.152  15.892 -0.5806 -0.1743  0.2504
13993TIP3    H263395   5.341   1.220  16.026  1.2075  1.1171 -0.5716
13994TIP3   OH263396   1.256   3.097   5.218  0.1272  0.3091 -0.1125
13994TIP3    H163397   1.244   3.074   5.310 -0.6165 -1.8216 -0.7026
13994TIP3    H263398   1.177   3.063   5.174  1.5207 -0.7730 -1.8686
13995TIP3   OH263399   1.390   5.934   2.977  0.0747  0.1021 -0.2228
13995TIP3    H163400   1.485   5.944   2.973  0.0904 -0.2215 -0.6184
13995TIP3    H263401   1.355   6.018   2.947  0.2279 -0.1468 -1.1114
13996TIP3   OH263402   4.187   4.080  14.430  0.0700 -0.1781 -0.2864
13996TIP3    H163403   4.113   4.044  14.480  0.4450  0.4765  0.7349
13996TIP3    H263404   4.240   4.003  14.408 -1.2139 -0.7281 -1.5238
13997TIP3   OH263405   3.575   1.272  17.100  0.3200 -0.2769  0.1537
13997TIP3    H163406   3.516   1.343  17.125  0.9993  0.5081 -0.4397
13997TIP3    H263407   3.547   1.247  17.011  1.2001  0.4430 -0.3274
13998TIP3   OH263408   1.533   1.270  12.682  0.0586 -0.1590 -0.3359
13998TIP3    H163409   1.500   1.359  12.690 -0.7273 -0.6513  2.3888
13998TIP3    H263410   1.627   1.278  12.703  0.8109  0.5178 -3.6011
13999TIP3   OH263411   1.873   0.796  11.128  0.5788  1.0408 -0.0802
13999TIP3    H163412   1.794   0.758  11.089  0.9292 -0.1085  0.3406
13999TIP3    H263413   1.915   0.842  11.055  1.0967 -0.8752 -1.0136
14000TIP3   OH263414   3.281   5.537  16.213  0.1112 -0.3513  0.3517
14000TIP3    H163415   3.369   5.509  16.238  0.7618  0.4478 -0.9679
14000TIP3    H263416   3.223   5.499  16.279  1.5606  0.0881  1.9032
14001TIP3   OH263417   5.853   4.938  14.551 -0.7522  0.2747 -0.1997
14001TIP3    H163418   5.913   4.992  14.500 -0.3616  0.5520  0.5482
14001TIP3    H263419   5.823   4.871  14.490  1.1657 -0.5319 -0.3166
14002TIP3   OH263420   1.666   0.150  14.963  0.2271  0.1691  0.0735
14002TIP3    H163421   1.657   0.133  14.869 -0.1357 -0.1434  0.1686
14002TIP3    H263422   1.627   0.074  15.006 -0.9992  1.0322  0.4913
14003TIP3   OH263423   0.459   3.612  13.259 -0.6803 -0.3556 -0.3486
14003TIP3    H163424   0.373   3.627  13.297 -1.1009 -1.1570 -0.9659
14003TIP3    H263425   0.516   3.675  13.302 -1.3685 -0.5264  0.8369
14004TIP3   OH263426   3.815   5.489  16.400  0.1076  0.3447 -0.2719
14004TIP3    H163427   3.820   5.553  16.471 -1.2413  0.1468  0.0122
14004TIP3    H263428   3.885   5.514  16.340  0.6620  1.0798  0.6634
14005TIP3   OH263429   1.249   2.886  16.118  0.1004  0.2481 -0.2554
14005TIP3    H163430   1.241   2.964  16.174 -0.6714  0.0050 -0.0211
14005TIP3    H263431   1.180   2.896  16.053 -0.2778 -0.4581  0.0406
14006TIP3   OH263432   2.411   1.075   2.469  0.2335  0.8798  0.2770
14006TIP3    H163433   2.323   1.044   2.490  0.6623 -1.9518 -1.9040
14006TIP3    H263434   2.445   1.012   2.406  3.0611  3.0918 -0.5254
14007TIP3   OH263435   2.628   6.107   3.100 -0.2695  0.5312 -0.5971
14007TIP3    H163436   2.551   6.117   3.044 -0.7062 -0.2472 -0.1456
14007TIP3    H263437   2.635   6.191   3.146 -2.6488 -0.4098  1.6108
14008TIP3   OH263438   2.318   2.570  16.683 -0.3037 -0.4897 -0.2387
14008TIP3    H163439   2.319   2.653  16.730 -0.9434 -0.4951 -0.2079
14008TIP3    H263440   2.271   2.510  16.741  0.4841 -0.9756 -0.0928
14009TIP3   OH263441   6.261   2.635  16.021 -0.2016  0.3748  0.3486
14009TIP3    H163442   6.255   2.641  15.925  0.3729 -0.1513  0.2726
14009TIP3    H263443   6.192   2.575  16.046  0.2889 -0.2781  0.1574
14010TIP3   OH263444   1.312   1.186  14.040  0.6263  0.7438  0.3303
14010TIP3    H163445   1.406   1.192  14.020  0.6510  2.3067  0.8367
14010TIP3    H263446   1.269   1.232  13.968  0.1768 -0.8350 -0.4168
14011TIP3   OH263447   3.513   6.593  11.334  0.3389 -0.5228 -0.1749
14011TIP3    H163448   3.583   6.558  11.279  1.0475 -1.2768  1.1890
14011TIP3    H263449   3.479   6.517  11.381  0.3534  0.2288  1.0898
14012TIP3   OH263450   3.381   6.481  14.329 -0.5800 -0.4521  0.3728
14012TIP3    H163451   3.418   6.397  14.302 -0.9254 -1.0150  1.6058
14012TIP3    H263452   3.340   6.463  14.413 -0.6982  0.9498  0.6265
14013TIP3   OH263453   5.244   5.902   4.754  0.0252 -0.2814  0.4230
14013TIP3    H163454   5.195   5.984   4.761 -1.1253 -1.0273  1.4378
14013TIP3    H263455   5.249   5.885   4.659 -0.2459  0.6620  0.2358
14014TIP3   OH263456   3.504   4.214  12.790  0.0195 -0.1434 -0.6475
14014TIP3    H163457   3.574   4.159  12.826 -1.2831 -1.4268 -0.0002
14014TIP3    H263458   3.549   4.291  12.756  1.8194 -1.2270 -0.8148
14015TIP3   OH263459   6.580   2.819  15.656 -0.6724  0.3731  0.0913
14015TIP3    H163460   6.660   2.864  15.684  0.4509 -0.6950 -1.3234
14015TIP3    H263461   6.580   2.738  15.707 -0.6198  0.1601 -0.2516
14016TIP3   OH263462   5.968   2.696   3.835  0.2838 -0.3945  0.3163
14016TIP3    H163463   5.894   2.637   3.818  0.3148 -1.1276  2.4595
14016TIP3    H263464   6.026   2.685   3.760 -0.8387 -1.3265 -0.4340
14017TIP3   OH263465   5.995   6.181  13.160  0.0061 -0.1005 -0.2487
14017TIP3    H163466   6.029   6.098  13.193  1.7779  0.1738 -1.3263
14017TIP3    H263467   5.910   6.158  13.123  0.4516 -1.4304 -0.4833
14018TIP3   OH263468   3.618   1.600  15.337 -0.3959 -0.1137 -0.3011
14018TIP3    H163469   3.674   1.530  15.305  0.3969  0.7611 -0.8692
14018TIP3    H263470   3.672   1.679  15.331 -1.8059  0.8090 -1.2015
14019TIP3   OH263471   1.244   0.425  11.735 -0.2621 -0.2791  0.1559
14019TIP3    H163472   1.182   0.477  11.684  1.2878  0.2832 -1.1931
14019TIP3    H263473   1.257   0.345  11.683 -0.6098 -0.8485  0.9284
14020TIP3   OH263474   1.684   4.194   3.611  0.2620 -0.0919 -0.1681
14020TIP3    H163475   1.659   4.161   3.524  0.9149  1.8376 -1.1330
14020TIP3    H263476   1.601   4.220   3.651  0.1533  1.1707 -1.1644
14021TIP3   OH263477   5.140   4.593   5.972 -0.0094 -0.3453 -0.2418
14021TIP3    H163478   5.164   4.683   5.952 -0.3215  0.1053  1.3421
14021TIP3    H263479   5.222   4.544   5.964  0.4454  0.3294  0.2325
14022TIP3   OH263480   0.153   6.056  16.696 -0.5694 -0.0412 -0.6742
14022TIP3    H163481   0.215   5.987  16.720 -1.2941 -0.7586 -0.8632
14022TIP3    H263482   0.188   6.135  16.738  1.1712 -0.1626 -1.8170
14023TIP3   OH263483   1.848   2.514   1.418  0.2004  0.2954 -0.3973
14023TIP3    H163484   1.904   2.573   1.367 -0.6384  1.8131  0.3941
14023TIP3    H263485   1.854   2.547   1.508 -2.0252  0.5576 -0.3125
14024TIP3   OH263486   5.972   5.418  15.643 -0.0630  0.0883 -0.2815
14024TIP3    H163487   6.039   5.356  15.616  0.7163  0.2292  1.2567
14024TIP3    H263488   5.923   5.438  15.563  0.9907 -0.9049 -1.1813
14025TIP3   OH263489   3.061   2.137  12.919  0.2580 -0.3160  0.0889
14025TIP3    H163490   3.037   2.210  12.862  1.5070  0.1882  0.1992
14025TIP3    H263491   2.988   2.129  12.980 -1.2968 -1.1339 -1.8188
14026TIP3   OH263492   4.408   2.811   4.032  0.2730  0.1887  0.0138
14026TIP3    H163493   4.312   2.820   4.029  0.2558 -0.0036 -0.0259
14026TIP3    H263494   4.436   2.823   3.941  0.3445  0.8872  0.1262
14027TIP3   OH263495   1.964   0.098   3.396 -0.2993 -0.0494 -0.1554
14027TIP3    H163496   2.016   0.127   3.321 -0.4208  1.9534  0.4933
14027TIP3    H263497   2.000   0.147   3.470 -0.8409 -1.2482  0.9245
14028TIP3   OH263498   2.654   5.389  13.178 -0.1027  0.2291  0.0490
14028TIP3    H163499   2.619   5.451  13.241 -0.9438 -0.5674  0.3762
14028TIP3    H263500   2.618   5.305  13.205 -0.5865 -0.0938 -1.5916
14029TIP3   OH263501   2.041   6.262  12.392  0.0465 -0.3641 -0.2638
14029TIP3    H163502   1.979   6.306  12.334 -0.2142  0.9531  0.9982
14029TIP3    H263503   1.995   6.253  12.475  1.8954  1.6824  1.0525
14030TIP3   OH263504   4.750   4.023   1.932 -0.4829 -0.3816 -0.1832
14030TIP3    H163505   4.680   4.081   1.963 -2.0839 -1.7876 -1.1143
14030TIP3    H263506   4.824   4.082   1.917 -1.3885  1.0999  1.0195
14031TIP3   OH263507   4.710   0.417  14.099  0.5044  0.2423 -0.7315
14031TIP3    H163508   4.622   0.381  14.095 -0.0329  1.6748 -2.3749
14031TIP3    H263509   4.719   0.469  14.019  1.6438  2.8091  0.9775
14032TIP3   OH263510   6.075   6.178   0.731 -0.4682  0.0017  0.1527
14032TIP3    H163511   6.138   6.247   0.751 -1.2025  0.8456 -0.4059
14032TIP3    H263512   5.993   6.225   0.713 -1.1339 -1.0479  0.3938
14033TIP3   OH263513   0.454   6.002   5.601 -0.4573  0.1403  0.4249
14033TIP3    H163514   0.390   5.964   5.662 -1.3186  0.3387 -0.3470
14033TIP3    H263515   0.404   6.066   5.551 -0.1253 -1.1516 -1.5937
14034TIP3   OH263516   1.513   5.033   3.288  0.1853 -0.7945 -0.0744
14034TIP3    H163517   1.462   5.027   3.207 -0.3010  0.8306  0.0997
14034TIP3    H263518   1.561   5.115   3.281 -1.6707  0.5484  2.2926
14035TIP3   OH263519   2.020   4.405   0.451 -0.3740  0.0458 -0.2726
14035TIP3    H163520   1.967   4.430   0.375  0.9766  1.4004 -0.8118
14035TIP3    H263521   2.110   4.404   0.417 -0.0060 -1.7689  0.7205
14036TIP3   OH263522   5.266   3.051  11.850  0.1758 -0.3007  0.5332
14036TIP3    H163523   5.211   3.071  11.774  0.0218  0.4712  0.8412
14036TIP3    H263524   5.204   3.040  11.922  0.4343  0.7850  0.9267
14037TIP3   OH263525   1.670   0.244  16.947 -0.0714 -0.7595 -0.1281
14037TIP3    H163526   1.592   0.293  16.969 -0.7094 -1.7339 -0.1922
14037TIP3    H263527   1.732   0.310  16.914 -1.2891 -0.1509 -1.2167
14038TIP3   OH263528   4.992   3.317   6.172 -0.5541  0.3130  0.4615
14038TIP3    H163529   4.964   3.404   6.145 -1.5819 -0.8613 -2.4396
14038TIP3    H263530   4.911   3.265   6.172  0.4808 -1.3135 -0.6276
14039TIP3   OH263531   4.596   0.347   3.433 -0.0023  0.4836  0.0823
14039TIP3    H163532   4.615   0.411   3.502  0.7252 -0.3094  0.6278
14039TIP3    H263533   4.501   0.340   3.432  0.0552 -1.3645  2.7549
14040TIP3   OH263534   2.398   2.807   6.279 -0.1995  0.2861  0.2007
14040TIP3    H163535   2.460   2.753   6.329  0.7334 -0.0239 -1.2448
14040TIP3    H263536   2.425   2.897   6.297 -1.4462  0.2877  2.2229
14041TIP3   OH263537   2.463   2.781   3.403 -0.0760 -0.4697  0.3864
14041TIP3    H163538   2.412   2.835   3.464  0.3227  2.5053 -1.7748
14041TIP3    H263539   2.539   2.754   3.453 -0.6373  0.4018  1.7677
14042TIP3   OH263540   4.712   6.135  14.281 -0.1968  0.0535  0.0020
14042TIP3    H163541   4.632   6.098  14.318 -0.1154  0.9514  1.0954
14042TIP3    H263542   4.687   6.223  14.252  0.2090  0.0629 -0.3270
14043TIP3   OH263543   1.483   0.208  14.443 -0.6915 -0.4131  0.4810
14043TIP3    H163544   1.453   0.274  14.381  0.3384  1.5778  2.0348
14043TIP3    H263545   1.404   0.159  14.466 -1.0863 -1.1782 -2.3422
14044TIP3   OH263546   0.848   1.270   5.392  0.0278 -0.3785  0.4719
14044TIP3    H163547   0.933   1.233   5.371  0.4369  0.9126 -0.2218
14044TIP3    H263548   0.862   1.365   5.390 -1.6500 -0.1258 -0.7494
14045TIP3   OH263549   4.842   4.202  13.314 -0.1212  0.7376  0.5013
14045TIP3    H163550   4.850   4.116  13.355 -1.3913  1.4115  2.2526
14045TIP3    H263551   4.781   4.190  13.242  2.6672 -0.6215 -1.6996
14046TIP3   OH263552   4.328   5.370  13.642  0.3477  0.4966  0.3016
14046TIP3    H163553   4.375   5.423  13.706  1.5765  1.2349 -1.1894
14046TIP3    H263554   4.269   5.316  13.695  1.6122  0.8037  2.0784
14047TIP3   OH263555   0.337   1.242   5.302  0.6507 -0.2058  0.7729
14047TIP3    H163556   0.308   1.315   5.248  1.6445 -0.2784  0.1265
14047TIP3    H263557   0.433   1.246   5.299  0.7190 -0.9573  1.5148
14048TIP3   OH263558   5.514   2.956  14.646 -0.3518  0.1553  0.7231
14048TIP3    H163559   5.511   2.875  14.595  0.5044 -0.0002  0.9112
14048TIP3    H263560   5.565   3.016  14.592 -0.4419  0.3661  0.8729
14049TIP3   OH263561   4.466   1.781  16.856 -0.0946 -0.6310 -0.1304
14049TIP3    H163562   4.494   1.844  16.922 -0.1795  0.2525 -0.9326
14049TIP3    H263563   4.438   1.704  16.906 -0.3210  0.0966  0.8632
14050TIP3   OH263564   2.454   3.971   2.701  1.0173 -0.0483 -0.3391
14050TIP3    H163565   2.368   3.939   2.675  0.7682  0.6890 -0.4241
14050TIP3    H263566   2.444   4.066   2.706  1.5415 -0.0399  0.6941
14051TIP3   OH263567   6.507   4.356   0.298  0.0705  0.0439 -0.2113
14051TIP3    H163568   6.509   4.359   0.202 -1.6683  2.0433 -0.2275
14051TIP3    H263569   6.470   4.270   0.319 -0.3343 -0.0735 -1.3709
14052TIP3   OH263570   6.216   2.465   5.125  0.3498 -0.1297  0.3087
14052TIP3    H163571   6.282   2.450   5.057  1.6876  2.4785  0.9494
14052TIP3    H263572   6.189   2.556   5.113 -0.7231 -0.1760  2.1379
14053TIP3   OH263573   1.744   3.394   6.400 -0.0650 -0.2380 -0.4342
14053TIP3    H163574   1.680   3.380   6.470 -1.9634  0.2356 -2.0325
14053TIP3    H263575   1.756   3.489   6.398  2.4019 -0.4798  1.3225
14054TIP3   OH263576   6.093   3.989  15.426 -0.4559 -0.1418  0.3150
14054TIP3    H163577   6.184   3.960  15.434 -0.7361 -1.1225  0.0887
14054TIP3    H263578   6.056   3.931  15.360 -0.4506  2.2312 -1.8417
14055TIP3   OH263579   5.541   4.796  15.184  0.0011  0.0970 -0.1481
14055TIP3    H163580   5.506   4.885  15.183  0.3671  0.2790  1.2809
14055TIP3    H263581   5.595   4.790  15.105 -1.1220  0.6858 -0.9729
14056TIP3   OH263582   6.101   0.355   4.185  0.0239  0.2432  0.7955
14056TIP3    H163583   6.039   0.427   4.197 -0.1333  0.2398  0.0776
14056TIP3    H263584   6.144   0.345   4.269  0.3123  1.4316  0.8006
14057TIP3   OH263585   1.697   5.884   0.950 -0.4787 -0.0564 -0.4460
14057TIP3    H163586   1.615   5.835   0.945  0.3178 -1.6348  1.3212
14057TIP3    H263587   1.731   5.884   0.860 -2.2216  0.3343 -1.1240
14058TIP3   OH263588   6.195   5.681  14.395  0.2172  0.0182  0.5863
14058TIP3    H163589   6.242   5.621  14.337 -0.1058 -1.1438  1.5084
14058TIP3    H263590   6.208   5.645  14.483 -1.8084  0.0517  0.9310
14059TIP3   OH263591   0.363   5.933  10.392  0.2221  0.1992  0.0751
14059TIP3    H163592   0.403   6.019  10.374 -0.0572  0.3245  0.0566
14059TIP3    H263593   0.311   5.915  10.314 -1.1301  0.8201  0.8208
14060TIP3   OH263594   0.550   3.563   0.080  0.2952  0.3192 -0.0481
14060TIP3    H163595   0.512   3.614   0.151 -0.0040  1.0925 -0.7588
14060TIP3    H263596   0.518   3.474   0.094 -0.5745  0.6734  0.2049
14061TIP3   OH263597   4.909   3.903   0.301 -0.5781 -0.0697  0.0010
14061TIP3    H163598   4.837   3.940   0.353 -1.0161  1.4070 -1.6317
14061TIP3    H263599   4.936   3.974   0.243  0.2491 -1.5372 -1.4487
14062TIP3   OH263600   1.503   6.733   4.680 -0.6873  0.6703  0.0799
14062TIP3    H163601   1.521   6.826   4.669  0.7900  0.4028  0.1348
14062TIP3    H263602   1.449   6.709   4.605  0.4520  1.1725 -0.9069
14063TIP3   OH263603   3.236   6.405  10.928  0.0369  0.2594 -1.2447
14063TIP3    H163604   3.226   6.457  11.008  0.2317  0.5230 -1.3929
14063TIP3    H263605   3.330   6.401  10.914  0.0647 -0.7463 -0.8247
14064TIP3   OH263606   4.257   3.076   6.121 -0.0353 -0.2880 -0.0404
14064TIP3    H163607   4.302   2.991   6.121  1.0507  0.2711 -1.1006
14064TIP3    H263608   4.214   3.080   6.206  0.6270 -1.5212  0.3750
14065TIP3   OH263609   5.931   4.031   1.198  0.1368 -0.1557  0.5396
14065TIP3    H163610   5.953   4.013   1.289  1.0195 -1.0578  0.1643
14065TIP3    H263611   6.010   4.005   1.149 -0.8283 -0.9848 -0.6032
14066TIP3   OH263612   6.519   3.159   5.687 -0.5943 -0.9172  0.6469
14066TIP3    H163613   6.600   3.199   5.654  0.6888 -2.6775  1.5104
14066TIP3    H263614   6.449   3.214   5.654  0.9092 -0.0159 -1.1276
14067TIP3   OH263615   0.460   3.087   4.592  0.1097  0.2170  0.8039
14067TIP3    H163616   0.400   3.154   4.562  0.8731  1.0555  1.1314
14067TIP3    H263617   0.413   3.004   4.578  0.2322  0.6202 -2.1195
14068TIP3   OH263618   5.359   4.626  16.813 -0.6483  0.1505 -0.7537
14068TIP3    H163619   5.449   4.627  16.778 -0.6473  0.5137 -0.7380
14068TIP3    H263620   5.365   4.570  16.891 -0.6677 -0.7514 -1.3832
14069TIP3   OH263621   5.355   2.534  13.196  0.2246 -0.4699 -0.0874
14069TIP3    H163622   5.321   2.574  13.276 -0.3172  0.8314 -0.9617
14069TIP3    H263623   5.447   2.517  13.216  0.8710  2.6724 -0.2352
14070TIP3   OH263624   6.589   6.482  10.534 -0.4501 -0.1312  0.0509
14070TIP3    H163625   6.582   6.559  10.590 -1.8106 -0.3974  0.2757
14070TIP3    H263626   6.506   6.479  10.486 -0.4058 -1.4370  0.0230
14071TIP3   OH263627   0.748   0.278   4.747  0.0334 -0.2986  0.0180
14071TIP3    H163628   0.819   0.224   4.711  0.4250  0.4867 -0.4097
14071TIP3    H263629   0.781   0.308   4.832 -0.4085 -1.1829  0.5026
14072TIP3   OH263630   3.354   3.722  16.406  0.3075 -0.3884  0.0662
14072TIP3    H163631   3.424   3.780  16.377 -2.0834  1.8469 -1.3998
14072TIP3    H263632   3.297   3.712  16.330 -1.5711 -1.2841  1.5456
14073TIP3   OH263633   1.008   5.707   5.384 -0.1298 -0.2811  0.0578
14073TIP3    H163634   1.047   5.758   5.454 -1.1308 -1.5474  1.5563
14073TIP3    H263635   0.937   5.761   5.351 -0.5473 -0.2656  0.9700
14074TIP3   OH263636   3.060   3.542  11.367 -0.0260 -0.3261  0.6843
14074TIP3    H163637   3.076   3.633  11.344 -0.9391 -0.6922 -1.6030
14074TIP3    H263638   3.125   3.493  11.318 -1.6206 -1.1010 -0.7152
14075TIP3   OH263639   2.747   1.204   4.907  0.7849 -0.2707  0.3725
14075TIP3    H163640   2.807   1.131   4.924  0.1232 -0.8116  0.3836
14075TIP3    H263641   2.803   1.281   4.910  1.1834 -0.5973  2.2851
14076TIP3   OH263642   2.254   6.599  11.952  0.0235 -0.1194 -0.4833
14076TIP3    H163643   2.177   6.632  11.999  0.5350  0.7542 -0.2443
14076TIP3    H263644   2.316   6.673  11.952  0.7157 -0.6900 -0.9960
14077TIP3   OH263645   6.529   1.870  12.538  0.1270  0.1338 -0.2924
14077TIP3    H163646   6.569   1.854  12.453 -0.4496  2.1133 -0.9698
14077TIP3    H263647   6.591   1.833  12.601  1.4835  0.3452 -1.4880
14078TIP3   OH263648   4.059   2.405   1.192  0.1553 -0.2409 -0.3151
14078TIP3    H163649   4.068   2.399   1.287  0.2464  1.5853 -0.1792
14078TIP3    H263650   3.970   2.376   1.174  0.2933 -1.0374  0.2820
14079TIP3   OH263651   6.179   0.256  16.593 -0.3516  0.0623  0.2173
14079TIP3    H163652   6.228   0.197  16.536  0.5886  1.6387 -0.6334
14079TIP3    H263653   6.136   0.198  16.657 -0.0066 -1.5751 -1.0141
14080TIP3   OH263654   6.382   4.738   1.249  0.7249  1.0346  0.2324
14080TIP3    H163655   6.302   4.787   1.270 -1.4637 -1.6367 -1.4894
14080TIP3    H263656   6.396   4.682   1.326 -0.8827 -0.6888 -0.6764
14081TIP3   OH263657   5.116   5.691   3.283 -0.0125  0.2498 -0.3894
14081TIP3    H163658   5.200   5.730   3.309 -0.7563  0.5857  1.5658
14081TIP3    H263659   5.050   5.745   3.327 -1.2076 -0.8594 -0.8065
14082TIP3   OH263660   0.441   4.405  10.960 -0.1065  0.2395  0.6748
14082TIP3    H163661   0.372   4.367  10.907  0.0003 -1.3122  1.5906
14082TIP3    H263662   0.480   4.473  10.906 -0.8458 -0.4383 -0.7170
14083TIP3   OH263663   2.864   5.660   6.451 -0.3495  0.6965  0.4721
14083TIP3    H163664   2.784   5.613   6.428  0.2050  0.4172 -0.9990
14083TIP3    H263665   2.836   5.749   6.471 -1.1152  0.3983  0.7261
14084TIP3   OH263666   4.831   1.716  11.045 -0.6529  0.1107 -0.3385
14084TIP3    H163667   4.888   1.778  11.090  0.1286  0.1590 -1.3739
14084TIP3    H263668   4.885   1.679  10.975 -1.6917 -0.3189 -0.9364
14085TIP3   OH263669   3.424   4.823  16.848  0.2079 -0.4486 -0.0967
14085TIP3    H163670   3.473   4.906  16.851 -1.4267  0.5187  0.3225
14085TIP3    H263671   3.446   4.785  16.763  0.6129  0.6472 -0.4930
14086TIP3   OH263672   0.578   0.212  15.836  0.0702  0.8848 -0.1595
14086TIP3    H163673   0.569   0.307  15.830 -0.2280  0.8882  0.2690
14086TIP3    H263674   0.591   0.182  15.746 -2.6775  1.0504 -0.6551
14087TIP3   OH263675   2.577   5.391  12.415 -0.0268  0.0004  0.1125
14087TIP3    H163676   2.607   5.365  12.328 -0.4117 -1.1060  0.3016
14087TIP3    H263677   2.629   5.339  12.475 -0.9047 -0.4481  0.4985
14088TIP3   OH263678   5.851   4.346   0.594 -0.0516  0.1140 -0.1334
14088TIP3    H163679   5.859   4.440   0.607  0.2707  0.0722 -0.0377
14088TIP3    H263680   5.877   4.308   0.678  3.6220 -0.2389 -1.3466
14089TIP3   OH263681   4.684   4.895  15.936 -0.0879 -0.1125  0.3656
14089TIP3    H163682   4.669   4.836  15.863  0.5246  0.6666 -0.4069
14089TIP3    H263683   4.739   4.964  15.900 -0.0177  0.4356  1.4908
14090TIP3   OH263684   1.815   6.291  14.677 -0.0729 -1.2203  0.4129
14090TIP3    H163685   1.821   6.214  14.620 -3.0304 -1.2728  0.1229
14090TIP3    H263686   1.840   6.259  14.763  1.2315 -1.8893 -0.1908
14091TIP3   OH263687   2.520   0.486  16.353  0.1538 -0.3398  0.4138
14091TIP3    H163688   2.471   0.508  16.433 -0.5240  0.4114 -0.1958
14091TIP3    H263689   2.567   0.566  16.330  0.0548 -0.4354 -0.1412
14092TIP3   OH263690   1.432   5.560  10.732  0.2777 -0.0400  0.2636
14092TIP3    H163691   1.464   5.545  10.643 -0.0204 -0.9663  0.3009
14092TIP3    H263692   1.355   5.504  10.740 -0.3451  0.8736  0.7437
14093TIP3   OH263693   4.046   5.160   5.467 -0.6184  0.0365  0.6585
14093TIP3    H163694   4.141   5.147   5.468 -0.5213  0.6995  0.4732
14093TIP3    H263695   4.010   5.073   5.447 -0.0604 -0.2481  0.8749
14094TIP3   OH263696   6.197   5.834   6.011  0.1443 -0.4386  0.0698
14094TIP3    H163697   6.257   5.908   6.020 -0.8268  0.5454 -1.4996
14094TIP3    H263698   6.243   5.773   5.953 -0.7907  0.7957 -2.0202
14095TIP3   OH263699   3.814   5.405   1.519 -0.1009  0.3246 -0.0995
14095TIP3    H163700   3.731   5.363   1.541  0.3539 -0.3026  0.4715
14095TIP3    H263701   3.801   5.442   1.432 -0.9275  0.1016 -0.0706
14096TIP3   OH263702   6.717   1.531  16.190  0.7437  0.3798  0.5872
14096TIP3    H163703   6.757   1.478  16.259  1.2743  1.6864  1.2858
14096TIP3    H263704   6.713   1.619  16.226 -2.6203  0.3411  0.4597
14097TIP3   OH263705   5.238   0.813   5.703  0.0124 -0.1462 -0.1200
14097TIP3    H163706   5.184   0.738   5.726  0.5798 -0.2030  1.0725
14097TIP3    H263707   5.183   0.889   5.721 -0.3900 -0.2669 -0.8620
14098TIP3   OH263708   4.146   1.020   0.446  0.1263 -0.4013 -0.1568
14098TIP3    H163709   4.093   0.950   0.408 -1.3465  0.8005 -0.3571
14098TIP3    H263710   4.237   0.991   0.433 -0.4379 -1.7127 -1.3012
14099TIP3   OH263711   1.176   5.621   0.800  0.4107  0.2276  0.2289
14099TIP3    H163712   1.222   5.701   0.824 -0.6562  0.3207  1.9901
14099TIP3    H263713   1.091   5.650   0.769 -0.0217 -0.2403  0.9750
14100TIP3   OH263714   5.945   6.119  14.159  0.1087  0.4380  0.2579
14100TIP3    H163715   5.981   6.194  14.112  0.4124 -0.4165 -0.8839
14100TIP3    H263716   6.000   6.046  14.134 -1.3432 -0.5435 -0.1253
14101TIP3   OH263717   4.250   6.639   6.291 -0.0078  0.4044 -0.7137
14101TIP3    H163718   4.326   6.635   6.349 -0.1432 -0.7157 -0.6187
14101TIP3    H263719   4.225   6.548   6.277  0.0405  0.6704 -2.5642
14102TIP3   OH263720   6.164   5.629   2.618  0.5013  0.0715  0.0201
14102TIP3    H163721   6.132   5.539   2.605  0.2450  0.2835 -0.9025
14102TIP3    H263722   6.259   5.620   2.627  0.6793 -0.1543 -1.7529
14103TIP3   OH263723   2.960   1.389   1.227  1.2172  0.5539  0.4352
14103TIP3    H163724   2.919   1.473   1.206  0.0992  0.0372  0.4938
14103TIP3    H263725   2.974   1.348   1.142 -2.0495 -0.9511  0.5457
14104TIP3   OH263726   0.145   1.062  14.152  0.0269 -0.0378 -0.6175
14104TIP3    H163727   0.071   1.065  14.213  0.7849  0.7953  0.2785
14104TIP3    H263728   0.207   1.002  14.193  1.0306  1.4028  0.0344
14105TIP3   OH263729   3.951   4.234   1.723 -0.0435 -0.9431 -0.3064
14105TIP3    H163730   3.986   4.146   1.715  1.4781 -0.4501  0.7756
14105TIP3    H263731   4.023   4.286   1.758 -0.5063  1.0230 -2.1423
14106TIP3   OH263732   1.673   2.681  15.142 -0.0621 -0.1598  0.6481
14106TIP3    H163733   1.582   2.675  15.169 -0.6704 -0.6041 -1.4511
14106TIP3    H263734   1.678   2.763  15.093 -0.1287 -1.7270 -2.0797
14107TIP3   OH263735   2.518   2.912   2.293  0.0798 -0.5823 -0.2032
14107TIP3    H163736   2.548   2.981   2.234 -0.4111 -1.7668 -1.8675
14107TIP3    H263737   2.451   2.865   2.243 -0.3598 -1.5956  1.3072
14108TIP3   OH263738   3.060   4.667  15.911 -0.4114  0.0551  0.0724
14108TIP3    H163739   3.041   4.741  15.967 -0.6262  0.2055 -0.1990
14108TIP3    H263740   3.126   4.700  15.849  0.8696 -0.5059  1.1110
14109TIP3   OH263741   4.917   5.266   0.216  0.6299 -0.0639  0.8283
14109TIP3    H163742   5.009   5.260   0.242  1.2141  2.2186 -0.5741
14109TIP3    H263743   4.877   5.321   0.284  0.1533 -1.4553  1.7067
14110TIP3   OH263744   2.074   0.697   5.997 -0.7734  0.5022 -0.1748
14110TIP3    H163745   2.153   0.727   6.041  0.6960 -0.3660 -2.1484
14110TIP3    H263746   2.016   0.670   6.068  0.3172  2.0159  1.3380
14111TIP3   OH263747   1.520   4.428  11.181  0.3915 -0.7341  0.3610
14111TIP3    H163748   1.436   4.463  11.152  0.1318 -0.7098  1.1186
14111TIP3    H263749   1.579   4.441  11.107  0.1175  0.6734  0.3786
14112TIP3   OH263750   1.839   1.736   4.212 -0.1822  0.6674  0.4529
14112TIP3    H163751   1.846   1.785   4.130  0.1371 -0.2531 -0.0790
14112TIP3    H263752   1.745   1.723   4.225 -0.2104  0.4464  0.0152
14113TIP3   OH263753   3.880   1.944   6.423  0.3662 -0.2048  0.2429
14113TIP3    H163754   3.803   1.894   6.450 -0.1203  0.4268  0.0243
14113TIP3    H263755   3.850   2.035   6.419 -0.1169 -0.4249 -4.2489
14114TIP3   OH263756   2.622   3.940   2.975 -0.8850  0.7602 -0.1549
14114TIP3    H163757   2.636   3.852   3.009 -0.3730  1.2310  0.8709
14114TIP3    H263758   2.613   3.995   3.053 -0.8605  1.6702 -0.7827
14115TIP3   OH263759   4.287   2.498   5.455  0.1817  0.1085  0.5120
14115TIP3    H163760   4.219   2.450   5.502  0.2402 -0.5971 -0.1105
14115TIP3    H263761   4.247   2.582   5.433  0.4419  0.7963  2.5796
14116TIP3   OH263762   4.815   0.774  15.865 -0.5335 -0.1602  0.6629
14116TIP3    H163763   4.809   0.774  15.960  0.2110 -0.5409  0.7096
14116TIP3    H263764   4.877   0.704  15.844  1.1616  1.4901  0.0302
14117TIP3   OH263765   0.762   2.528  13.341  0.0646 -0.3456  0.1078
14117TIP3    H163766   0.689   2.485  13.295  1.1862 -2.3848  0.1903
14117TIP3    H263767   0.723   2.560  13.422 -1.1449  0.1832 -0.6675
14118TIP3   OH263768   4.225   2.321   3.250 -0.2479  0.1101  0.3005
14118TIP3    H163769   4.318   2.329   3.269 -0.3195  0.7338  0.3757
14118TIP3    H263770   4.216   2.357   3.162 -0.5897  0.9996  0.7025
14119TIP3   OH263771   5.786   6.429  10.846  0.4191 -0.3326  0.0301
14119TIP3    H163772   5.857   6.364  10.849 -0.4700 -1.5131 -2.8613
14119TIP3    H263773   5.736   6.406  10.768 -0.3715  3.4259 -0.6323
14120TIP3   OH263774   3.663   6.649  12.110  0.6040  0.5181  1.0597
14120TIP3    H163775   3.742   6.698  12.087  0.1752  0.5874 -0.2949
14120TIP3    H263776   3.629   6.693  12.188  1.1820  1.2940  0.8794
14121TIP3   OH263777   1.575   1.491   0.919  0.4209 -0.8565  0.7308
14121TIP3    H163778   1.656   1.458   0.878 -2.2345 -3.0963 -3.0751
14121TIP3    H263779   1.556   1.572   0.871 -0.1203 -0.8641  0.9327
14122TIP3   OH263780   1.468   0.703  13.566 -0.0247 -0.0314  0.2589
14122TIP3    H163781   1.494   0.668  13.652 -1.7039 -1.5599  0.1930
14122TIP3    H263782   1.442   0.793  13.584 -2.9849 -1.1265  1.9451
14123TIP3   OH263783   5.642   5.760  16.597 -0.1803 -0.0401 -0.5799
14123TIP3    H163784   5.632   5.684  16.540 -0.2381 -1.1672  0.9123
14123TIP3    H263785   5.694   5.729  16.671 -0.5465  1.2645  0.2550
14124TIP3   OH263786   1.956   2.186   6.510  0.1103 -0.1774 -0.7775
14124TIP3    H163787   1.872   2.213   6.547 -0.3329 -2.3386 -0.1333
14124TIP3    H263788   2.020   2.241   6.555 -0.8851  0.9277 -0.6814
14125TIP3   OH263789   6.564   0.391   3.257 -0.4272  0.0827 -0.0085
14125TIP3    H163790   6.653   0.357   3.250 -0.2457  0.7323 -0.9310
14125TIP3    H263791   6.530   0.386   3.168 -1.3760 -0.3055  0.3676
14126TIP3   OH263792   5.605   0.164   5.502  0.4969 -0.3602 -0.4467
14126TIP3    H163793   5.614   0.244   5.451 -0.0465  0.0895  0.1509
14126TIP3    H263794   5.582   0.097   5.439 -0.4336  0.2471 -0.7508
14127TIP3   OH263795   4.691   3.385  16.166  0.0153 -0.4630 -0.5793
14127TIP3    H163796   4.740   3.448  16.113 -0.4431 -0.5315 -1.0924
14127TIP3    H263797   4.682   3.427  16.252 -0.3860  0.2215 -0.9536
14128TIP3   OH263798   1.505   2.303   4.559 -0.0566 -0.3484 -0.4778
14128TIP3    H163799   1.592   2.343   4.567  0.1478 -0.3163 -2.4405
14128TIP3    H263800   1.478   2.284   4.649  1.8186 -0.0084  0.1752
14129TIP3   OH263801   3.124   1.920  12.703 -0.1873  0.3763 -0.2151
14129TIP3    H163802   3.128   1.984  12.774  1.6532 -1.2263  1.1659
14129TIP3    H263803   3.049   1.865  12.725 -0.6012  0.8684 -0.3808
14130TIP3   OH263804   5.080   4.582   1.233 -0.3185  0.0467  0.1823
14130TIP3    H163805   5.076   4.550   1.142 -0.0712 -1.0328  0.5397
14130TIP3    H263806   5.077   4.677   1.225  2.0319  0.0518 -1.0958
14131TIP3   OH263807   4.054   0.446  15.072 -0.1940 -1.0125 -0.6630
14131TIP3    H163808   4.108   0.370  15.052  1.0154 -0.2376 -0.4164
14131TIP3    H263809   4.114   0.506  15.116 -1.4420 -0.4338  0.2711
14132TIP3   OH263810   3.479   3.002   5.969  0.6843 -0.6188 -0.1237
14132TIP3    H163811   3.492   2.919   5.923 -1.3461  0.1192 -2.1162
14132TIP3    H263812   3.466   2.976   6.061  0.6880 -2.4351 -0.6151
14133TIP3   OH263813   4.488   5.007  14.784 -0.0002  0.1210 -0.1486
14133TIP3    H163814   4.528   4.935  14.833 -1.4135 -0.2884  0.4317
14133TIP3    H263815   4.431   5.051  14.847  0.0462  1.1065 -0.7796
14134TIP3   OH263816   6.357   0.124  14.879 -0.1337  0.2995 -0.0723
14134TIP3    H163817   6.268   0.123  14.844 -0.3324  2.4578  0.2718
14134TIP3    H263818   6.413   0.117  14.801 -0.5936 -0.3921 -0.3451
14135TIP3   OH263819   5.551   6.282  13.987  0.3846  0.0150  0.1605
14135TIP3    H163820   5.489   6.211  13.970  1.7531 -1.8675  2.7434
14135TIP3    H263821   5.510   6.333  14.056  0.9553 -0.2930  0.7314
14136TIP3   OH263822   1.405   5.772   0.476  0.2798 -0.3046 -0.5418
14136TIP3    H163823   1.459   5.795   0.553 -0.0404 -1.6618  0.1008
14136TIP3    H263824   1.315   5.788   0.504  0.2406  0.4726 -1.0942
14137TIP3   OH263825   1.435   1.819  14.399 -0.4189 -0.5955 -0.6484
14137TIP3    H163826   1.494   1.789  14.468  0.0933 -0.6548 -1.1077
14137TIP3    H263827   1.409   1.739  14.353  0.0911 -0.4583 -1.1922
14138TIP3   OH263828   0.296   0.587   0.977 -0.5005  0.0421  0.1757
14138TIP3    H163829   0.205   0.588   1.005 -0.2133  0.8822  1.1064
14138TIP3    H263830   0.334   0.511   1.021 -1.0471 -1.0638 -1.2200
14139TIP3   OH263831   5.116   4.986   4.293 -0.3932 -0.0303 -0.0966
14139TIP3    H163832   5.149   4.922   4.356 -1.1422 -0.2314  0.0974
14139TIP3    H263833   5.095   4.934   4.215  3.8419  0.6727 -1.8418
14140TIP3   OH263834   1.466   2.967  13.736  0.3023 -0.0602 -0.5413
14140TIP3    H163835   1.520   3.037  13.773 -1.0728 -0.3158  2.0840
14140TIP3    H263836   1.379   3.006  13.726 -0.1831 -1.0218 -0.1693
14141TIP3   OH263837   4.215   2.661  17.238  0.1735 -0.5591 -0.1250
14141TIP3    H163838   4.130   2.698  17.219 -0.3146 -0.9877  1.1350
14141TIP3    H263839   4.197   2.589  17.298  1.4041 -0.7458  0.0451
14142TIP3   OH263840   5.501   0.393   1.723 -0.4423  0.5270 -0.3762
14142TIP3    H163841   5.498   0.360   1.633 -2.8956 -1.0048  0.2098
14142TIP3    H263842   5.581   0.356   1.760  0.5330  1.0909 -1.8758
14143TIP3   OH263843   5.688   6.010   4.958 -0.6414  0.0833  0.4395
14143TIP3    H163844   5.715   6.100   4.981  0.1242 -0.3954  1.4672
14143TIP3    H263845   5.640   5.980   5.035 -1.8687 -0.0019 -0.3493
14144TIP3   OH263846   3.034   5.457   6.026 -0.0364 -0.0118 -0.6835
14144TIP3    H163847   3.074   5.538   6.060 -2.2180 -0.2717  2.7598
14144TIP3    H263848   3.071   5.388   6.081 -2.9290 -0.5746  0.6569
14145TIP3   OH263849   4.291   6.203   1.780 -0.2860 -0.1939 -0.3744
14145TIP3    H163850   4.349   6.127   1.769 -3.1343 -2.3876 -0.7041
14145TIP3    H263851   4.275   6.233   1.691  0.0110  0.1649 -0.3080
14146TIP3   OH263852   1.117   4.499   0.650 -0.1993  0.8536  0.3788
14146TIP3    H163853   1.118   4.500   0.554 -0.5627 -0.7362  0.3452
14146TIP3    H263854   1.058   4.428   0.673 -0.2308  1.3166  1.7964
14147TIP3   OH263855   2.081   4.433   4.465 -0.3387 -0.0782 -0.4944
14147TIP3    H163856   1.988   4.448   4.446 -0.5017  1.5077  1.4704
14147TIP3    H263857   2.080   4.389   4.550  0.7670  1.2248  0.1973
14148TIP3   OH263858   5.828   1.912   1.026  0.2670  0.2795 -0.4533
14148TIP3    H163859   5.853   1.991   0.978  2.7279 -0.6765 -0.8041
14148TIP3    H263860   5.908   1.884   1.070 -1.4148 -0.0842  2.5131
14149TIP3   OH263861   0.647   5.519   4.153  0.3197  0.3843  0.4283
14149TIP3    H163862   0.643   5.448   4.089  2.8947  0.2197  0.4050
14149TIP3    H263863   0.664   5.597   4.100  0.9150  0.4855  0.7673
14150TIP3   OH263864   4.991   6.430  16.667 -0.9232  0.4234 -0.1149
14150TIP3    H163865   4.918   6.380  16.704 -1.6701  0.9699 -0.8229
14150TIP3    H263866   5.038   6.464  16.743 -1.3775  0.0325  0.3468
14151TIP3   OH263867   1.512   6.349   0.157 -0.0524  0.0999  0.8141
14151TIP3    H163868   1.554   6.435   0.155  0.5994 -0.2232  0.5671
14151TIP3    H263869   1.565   6.295   0.098 -0.9337 -0.2589  0.3412
14152TIP3   OH263870   5.900   4.319  11.097 -0.6313 -0.5465 -0.2508
14152TIP3    H163871   5.805   4.315  11.103 -0.7628 -1.1921 -2.4223
14152TIP3    H263872   5.929   4.228  11.095 -0.2476 -0.4086 -3.0845
14153TIP3   OH263873   3.104   3.093  15.935 -0.1723  0.3278  0.1065
14153TIP3    H163874   3.046   3.112  15.861 -0.2926 -0.4020  0.0046
14153TIP3    H263875   3.182   3.054  15.894 -0.7422 -1.2230  0.4380
14154TIP3   OH263876   2.243   0.418   2.203 -0.2825  0.1596 -0.6272
14154TIP3    H163877   2.230   0.368   2.123  1.8605 -1.6221  0.0858
14154TIP3    H263878   2.200   0.366   2.271 -0.7433  0.8877 -0.3452
14155TIP3   OH263879   2.210   5.085   2.593  0.3147  0.2402  0.1332
14155TIP3    H163880   2.191   4.992   2.607  0.3783 -0.1884 -2.4883
14155TIP3    H263881   2.302   5.087   2.566 -0.4585  0.7330 -2.6337
14156TIP3   OH263882   5.920   3.796  12.854 -0.0396 -0.4348  0.2373
14156TIP3    H163883   5.858   3.861  12.887  0.5960 -0.1142  0.7995
14156TIP3    H263884   5.869   3.744  12.791 -0.4025  0.9648 -0.6389
14157TIP3   OH263885   4.751   1.022   0.130 -0.2291 -0.0621 -0.1605
14157TIP3    H163886   4.832   0.981   0.098 -0.6005 -1.1611  0.3005
14157TIP3    H263887   4.720   1.073   0.055  0.6479 -0.0025 -0.4973
14158TIP3   OH263888   4.476   6.013  11.630 -0.1457 -0.0408  0.4664
14158TIP3    H163889   4.425   5.962  11.694  0.0848 -0.8298  0.0358
14158TIP3    H263890   4.458   5.970  11.546  0.0794  0.5771  0.0977
14159TIP3   OH263891   4.721   3.074   4.678 -0.0258  0.5546 -0.0308
14159TIP3    H163892   4.638   3.043   4.643 -0.2650  1.3342 -0.1640
14159TIP3    H263893   4.705   3.166   4.701  1.0443  0.9717 -0.8997
14160TIP3   OH263894   3.793   2.794  10.996  0.2672 -0.9521  0.3292
14160TIP3    H163895   3.864   2.754  11.045  1.1437 -2.5273 -2.1019
14160TIP3    H263896   3.835   2.858  10.939 -0.4458 -0.7437  0.0227
14161TIP3   OH263897   3.040   1.221   6.054 -0.3440  0.4532  0.2090
14161TIP3    H163898   3.048   1.131   6.022  1.5389  0.7612 -0.2144
14161TIP3    H263899   2.952   1.225   6.093 -1.2269 -0.9951 -1.5633
14162TIP3   OH263900   6.469   4.788  11.497  0.1125 -0.2841 -0.1294
14162TIP3    H163901   6.440   4.879  11.506 -1.3922 -0.7788  0.1374
14162TIP3    H263902   6.556   4.787  11.539  0.3032  1.1006 -0.4605
14163TIP3   OH263903   4.051   2.091   3.219 -0.2260  0.2966 -0.1548
14163TIP3    H163904   4.139   2.124   3.198 -0.3266  1.0095  0.5243
14163TIP3    H263905   3.992   2.149   3.172 -0.4269  1.4657  1.4939
14164TIP3   OH263906   1.256   4.507  13.003  0.1659  0.2081  0.5376
14164TIP3    H163907   1.305   4.467  12.930 -0.7447  1.5086 -0.8126
14164TIP3    H263908   1.287   4.460  13.080  0.7891 -1.5679 -0.7390
14165TIP3   OH263909   4.780   3.648   1.020 -0.1262  0.3028  0.1474
14165TIP3    H163910   4.828   3.624   1.100 -0.1938  0.6683  0.2987
14165TIP3    H263911   4.689   3.622   1.038  0.2928 -1.9501 -0.7858
14166TIP3   OH263912   5.819   6.414  14.107 -0.0846 -0.1073 -0.1795
14166TIP3    H163913   5.759   6.361  14.159  1.2837 -1.4356  0.1034
14166TIP3    H263914   5.848   6.355  14.037  3.2354 -0.5135  1.4673
14167TIP3   OH263915   2.339   6.323  16.120 -0.0005 -0.3926 -0.0220
14167TIP3    H163916   2.316   6.367  16.202  3.2553  1.9775 -0.2480
14167TIP3    H263917   2.263   6.270  16.098 -2.1232  1.2945  2.9408
14168TIP3   OH263918   0.812   2.126  13.488  0.5136  0.2202 -0.3935
14168TIP3    H163919   0.790   2.191  13.554  0.2599  1.1631 -1.3849
14168TIP3    H263920   0.876   2.170  13.431  0.3515 -0.3983 -1.0611
14169TIP3   OH263921   5.239   4.726  12.929 -0.5552  0.7281 -0.0110
14169TIP3    H163922   5.195   4.798  12.973 -0.9093  0.9629 -0.7507
14169TIP3    H263923   5.329   4.729  12.964 -0.7309  1.1358  0.4209
14170TIP3   OH263924   1.576   0.548  16.721  1.3740 -0.5145 -0.2350
14170TIP3    H163925   1.613   0.606  16.787  1.9066  0.0996 -1.0674
14170TIP3    H263926   1.619   0.573  16.639 -0.2573 -0.3290 -1.0794
14171TIP3   OH263927   0.488   4.498   5.667 -0.3052 -0.2179 -0.3183
14171TIP3    H163928   0.519   4.587   5.681  0.7833 -0.9732  2.3440
14171TIP3    H263929   0.401   4.509   5.627 -0.6857  2.0590  1.0560
14172TIP3   OH263930   0.125   6.018   2.799  0.9403  0.4375 -0.2118
14172TIP3    H163931   0.141   6.096   2.745  1.5243  0.7942  0.4594
14172TIP3    H263932   0.189   6.026   2.870 -0.6523  0.6261  1.2113
14173TIP3   OH263933   0.886   6.157  15.475  0.0593 -0.3023  0.5834
14173TIP3    H163934   0.959   6.197  15.428 -0.6985  0.8662  0.3924
14173TIP3    H263935   0.892   6.064  15.453  1.7856 -0.3002  0.9676
14174TIP3   OH263936   1.040   0.990  13.462  0.2646 -0.1073  0.5718
14174TIP3    H163937   1.096   0.987  13.539 -0.4487  0.1071  1.1002
14174TIP3    H263938   1.034   0.899  13.433 -0.4356 -0.3517  1.4724
14175TIP3   OH263939   0.510   0.458   2.476 -0.4636  0.4650 -0.0955
14175TIP3    H163940   0.442   0.394   2.496 -0.0727  0.4150  1.1097
14175TIP3    H263941   0.523   0.506   2.558  0.5620  0.8423 -0.4699
14176TIP3   OH263942   4.704   5.215  11.458 -0.1891 -0.4050  0.1352
14176TIP3    H163943   4.691   5.240  11.549 -0.9169 -1.0857  0.2266
14176TIP3    H263944   4.619   5.183  11.429  0.5160 -2.1055 -0.1755
14177TIP3   OH263945   2.942   3.559  15.411  0.2750 -0.2354 -0.9378
14177TIP3    H163946   2.872   3.562  15.345  0.2858 -0.0673 -0.9426
14177TIP3    H263947   2.987   3.643  15.401  0.2896 -0.2178 -0.7304
14178TIP3   OH263948   1.023   4.654   3.301 -0.3075 -0.3612 -0.0018
14178TIP3    H163949   1.079   4.685   3.372 -1.1645  1.1026  0.0376
14178TIP3    H263950   1.033   4.719   3.232 -0.7197 -0.9443 -0.6210
14179TIP3   OH263951   0.582   3.812  15.201 -0.3138  0.3361 -0.3959
14179TIP3    H163952   0.670   3.847  15.184 -0.4760  1.5835  1.1411
14179TIP3    H263953   0.524   3.868  15.149 -0.3881  1.0388  0.4267
14180TIP3   OH263954   6.168   0.418   3.938 -0.4151 -0.3194  0.1022
14180TIP3    H163955   6.214   0.498   3.964  0.8806 -0.6702 -1.0503
14180TIP3    H263956   6.164   0.366   4.018  0.9539 -0.1481  0.3047
14181TIP3   OH263957   0.289   4.021   3.070 -0.0759 -0.1275 -0.2725
14181TIP3    H163958   0.332   3.992   2.989 -0.8843 -1.1869 -0.3406
14181TIP3    H263959   0.196   4.003   3.055 -0.5302  1.9434 -0.0478
14182TIP3   OH263960   6.220   1.033   0.489  0.1366  0.2849  0.2362
14182TIP3    H163961   6.252   1.078   0.567 -0.7469  1.8205 -0.2637
14182TIP3    H263962   6.285   0.965   0.472  0.9670  0.7146  1.6012
14183TIP3   OH263963   4.327   6.361  15.487 -0.2573 -0.1894  0.1597
14183TIP3    H163964   4.381   6.391  15.415 -1.2284 -0.1264 -0.5546
14183TIP3    H263965   4.286   6.281  15.455 -0.4333 -0.3425  0.7574
14184TIP3   OH263966   3.689   1.364   2.021  0.2176  0.2952  0.1836
14184TIP3    H163967   3.603   1.345   1.984 -0.6737  1.6719  1.4767
14184TIP3    H263968   3.747   1.368   1.945 -0.3291 -3.1960 -0.5051
14185TIP3   OH263969   5.538   0.202  16.444  0.0055  0.3373  0.1346
14185TIP3    H163970   5.571   0.255  16.372 -0.0021 -0.9747 -0.8423
14185TIP3    H263971   5.614   0.153  16.475  0.0189  0.9142  1.0652
14186TIP3   OH263972   6.392   0.745  14.651  0.1995 -0.5045  0.3220
14186TIP3    H163973   6.314   0.697  14.678 -1.6438  2.1695 -0.1187
14186TIP3    H263974   6.465   0.687  14.674 -1.8878 -2.9574  0.9035
14187TIP3   OH263975   5.173   1.826   6.318 -0.1611 -0.0357 -0.1437
14187TIP3    H163976   5.159   1.775   6.397  0.3962  0.3781  0.2201
14187TIP3    H263977   5.101   1.890   6.317 -1.5552 -1.5830 -1.2150
14188TIP3   OH263978   3.823   3.395   4.317 -0.2596 -0.2537 -0.1168
14188TIP3    H163979   3.754   3.350   4.367  1.7134 -2.2636  0.8740
14188TIP3    H263980   3.814   3.487   4.342 -1.0062 -0.8502  1.9172
14189TIP3   OH263981   2.272   0.513  11.208 -0.1083  0.4979 -0.0566
14189TIP3    H163982   2.219   0.591  11.223 -0.1490  0.3086  0.8324
14189TIP3    H263983   2.360   0.538  11.237 -0.1970  0.1116  0.5656
14190TIP3   OH263984   6.614   5.471  11.748  0.0105 -0.8457  0.2302
14190TIP3    H163985   6.673   5.442  11.678 -1.1979 -2.6963 -0.0587
14190TIP3    H263986   6.648   5.556  11.774  2.1879 -1.4134 -0.6497
14191TIP3   OH263987   5.227   3.927  12.157  0.5146 -0.3184  0.3280
14191TIP3    H163988   5.250   3.925  12.064 -1.0380 -0.5108 -0.0531
14191TIP3    H263989   5.137   3.896  12.161  0.7235 -0.7667  1.9560
14192TIP3   OH263990   0.766   1.796   4.283 -0.5629 -0.2952  0.0921
14192TIP3    H163991   0.699   1.778   4.349  0.6724 -1.5793  1.0365
14192TIP3    H263992   0.793   1.886   4.299 -1.3585 -0.1031  0.3500
14193TIP3   OH263993   4.287   4.147   4.566 -0.7998  0.7568  0.5180
14193TIP3    H163994   4.318   4.059   4.587 -0.2189  0.7068 -0.5610
14193TIP3    H263995   4.212   4.133   4.509  0.2139  0.9806 -0.8962
14194TIP3   OH263996   6.088   3.085   5.944 -0.4003  0.3598  0.0582
14194TIP3    H163997   6.025   3.013   5.944  0.6016 -0.5260 -0.4751
14194TIP3    H263998   6.142   3.069   6.021 -0.6604  0.9841  0.3766
14195TIP3   OH263999   0.202   2.736   1.189 -0.1148  0.1763 -0.2644
14195TIP3    H164000   0.118   2.782   1.185  0.0007  0.2346 -2.7599
14195TIP3    H264001   0.251   2.782   1.257 -1.8976  0.4820  0.8515
14196TIP3   OH264002   6.518   4.910   0.363 -0.3744 -0.0739 -0.4881
14196TIP3    H164003   6.586   4.932   0.299 -0.2578  1.2569  0.0740
14196TIP3    H264004   6.437   4.945   0.326 -0.6952 -1.2724 -0.9478
14197TIP3   OH264005   0.542   3.792   2.529  0.6276 -0.3011 -0.0927
14197TIP3    H164006   0.559   3.855   2.599 -1.2883 -0.5810  0.6653
14197TIP3    H264007   0.549   3.706   2.570  1.2894 -0.5315 -0.6738
14198TIP3   OH264008   5.284   5.867  13.522 -0.2080 -0.2999  0.1402
14198TIP3    H164009   5.222   5.863  13.449 -0.0954  1.1894 -0.0533
14198TIP3    H264010   5.319   5.778  13.529  0.1177 -0.3654 -1.9262
14199TIP3   OH264011   2.975   5.165  11.837  0.9864  0.4849 -0.0438
14199TIP3    H164012   2.891   5.163  11.789  1.4473  0.6330 -0.8732
14199TIP3    H264013   2.986   5.258  11.860  0.7071  0.3956  0.4594
14200TIP3   OH264014   4.612   5.298  11.702 -0.1453 -0.1447 -0.3273
14200TIP3    H164015   4.519   5.279  11.690 -0.5409  1.1091  0.6400
14200TIP3    H264016   4.614   5.366  11.769  1.6000 -1.7829  1.3412
14201TIP3   OH264017   4.316   3.887   0.372 -0.7848  0.0644  0.2469
14201TIP3    H164018   4.257   3.882   0.447  0.6267  0.2656  1.3938
14201TIP3    H264019   4.404   3.882   0.410 -0.0698 -1.8363 -1.5398
14202TIP3   OH264020   5.088   5.529   1.441  1.0069  0.1169  0.4488
14202TIP3    H164021   5.043   5.564   1.517  0.4102  1.6449 -0.5764
14202TIP3    H264022   5.125   5.606   1.397  0.5476 -0.6208 -1.2948
14203TIP3   OH264023   3.455   6.708  14.472 -0.0980 -0.4239  0.1664
14203TIP3    H164024   3.427   6.638  14.412  1.3957 -1.1902  0.3453
14203TIP3    H264025   3.374   6.739  14.511 -0.9249 -1.1234 -0.9398
14204TIP3   OH264026   1.180   1.409  15.932  0.0818  0.1896 -0.2421
14204TIP3    H164027   1.139   1.495  15.926  1.3119  0.8917  1.0868
14204TIP3    H264028   1.273   1.426  15.914  0.0177 -1.1989 -2.0744
14205TIP3   OH264029   5.552   0.787   5.809  0.1358  0.2346 -0.0600
14205TIP3    H164030   5.555   0.881   5.827 -1.4091  0.2349  0.3390
14205TIP3    H264031   5.481   0.755   5.865  0.6566 -1.1710 -0.1887
14206TIP3   OH264032   2.192   5.938  14.228  0.6225  0.3455 -0.2513
14206TIP3    H164033   2.162   5.986  14.305  0.3830 -0.6459  0.2750
14206TIP3    H264034   2.133   5.966  14.158  0.5388  0.8781  0.0324
14207TIP3   OH264035   3.766   1.950   5.133 -0.0363 -0.3347 -0.7235
14207TIP3    H164036   3.831   1.996   5.079  0.8908 -0.6945  0.0884
14207TIP3    H264037   3.804   1.864   5.149 -0.6341 -0.4805 -0.0815
14208TIP3   OH264038   2.216   1.518   2.635 -0.7902 -0.2358  0.5129
14208TIP3    H164039   2.167   1.576   2.693  2.1396 -0.1703  3.0980
14208TIP3    H264040   2.243   1.574   2.562 -2.0672  0.4382  0.5507
14209TIP3   OH264041   3.835   4.937  13.501  0.0879  0.7278  0.4064
14209TIP3    H164042   3.846   4.973  13.589  0.0045 -0.1734  0.7897
14209TIP3    H264043   3.758   4.982  13.467  1.6601  3.0609 -0.2345
14210TIP3   OH264044   5.538   0.047   2.963  0.2749  0.8957  0.2885
14210TIP3    H164045   5.516  -0.022   2.901 -0.2443  1.0333  0.3231
14210TIP3    H264046   5.630   0.030   2.986  0.3787  0.6794 -0.2953
14211TIP3   OH264047   2.399   2.101   3.566 -0.5726 -0.2466  0.2116
14211TIP3    H164048   2.379   2.023   3.619 -1.9532 -0.2462 -0.2898
14211TIP3    H264049   2.317   2.121   3.521 -0.0507  1.1426 -0.1433
14212TIP3   OH264050   0.230   4.581   5.793 -0.3658 -0.0233  0.3443
14212TIP3    H164051   0.288   4.632   5.849 -0.0659 -0.8643  0.8076
14212TIP3    H264052   0.155   4.639   5.777  0.0232  0.6048  0.7661
14213TIP3   OH264053   3.735   6.731  12.806  0.2728  0.1156 -0.1663
14213TIP3    H164054   3.655   6.688  12.837  0.5423  1.2760  2.2878
14213TIP3    H264055   3.797   6.660  12.793 -0.7758 -0.6786 -0.8839
14214TIP3   OH264056   3.872   2.857   5.302 -0.2046 -0.3378 -0.0172
14214TIP3    H164057   3.787   2.890   5.274 -0.3547  0.3897  1.2755
14214TIP3    H264058   3.934   2.924   5.272 -0.4421  0.8255  2.0115
14215TIP3   OH264059   3.428   1.370   5.451  0.3692  0.2499  0.1305
14215TIP3    H164060   3.517   1.406   5.445 -0.0846  1.0747 -2.2125
14215TIP3    H264061   3.413   1.332   5.364 -1.4771 -0.1285  0.6091
14216TIP3   OH264062   5.735   4.946   0.900 -0.2836  0.3513 -0.0747
14216TIP3    H164063   5.739   4.997   0.981 -0.1403  0.6310 -0.2520
14216TIP3    H264064   5.723   5.012   0.831  0.3231  0.1813 -0.3477
14217TIP3   OH264065   3.509   2.011  12.788 -0.4870 -0.1171 -0.5529
14217TIP3    H164066   3.520   1.939  12.849  0.9543 -1.0124 -1.8237
14217TIP3    H264067   3.509   2.090  12.842 -0.3951 -0.9559  0.6825
14218TIP3   OH264068   1.939   3.387   2.148 -0.1566 -0.0658 -0.0972
14218TIP3    H164069   1.907   3.449   2.083  1.2371 -0.8591 -1.5752
14218TIP3    H264070   1.951   3.439   2.228 -1.2238  1.0553 -0.6512
14219TIP3   OH264071   3.529   2.758  11.807  0.0022 -0.7552 -0.2441
14219TIP3    H164072   3.576   2.794  11.732  0.0936  2.4510  1.2682
14219TIP3    H264073   3.576   2.678  11.829  2.9581  0.8177 -0.6218
14220TIP3   OH264074   2.519   3.685   2.833 -0.2416  0.1787 -0.1046
14220TIP3    H164075   2.613   3.669   2.846 -0.3752  0.3640  1.1964
14220TIP3    H264076   2.513   3.779   2.816 -0.1672  0.1379 -0.3487
14221TIP3   OH264077   2.368   4.747  16.503 -0.1214  0.0999 -0.3111
14221TIP3    H164078   2.341   4.836  16.525  0.9707  0.6545 -1.1639
14221TIP3    H264079   2.337   4.735  16.413 -1.9226 -1.0667  0.4390
14222TIP3   OH264080   5.152   5.043  15.672 -0.1144 -0.1209  0.3549
14222TIP3    H164081   5.148   5.139  15.678 -2.3313 -0.2137  0.8364
14222TIP3    H264082   5.172   5.025  15.580 -1.7192  0.7930 -0.1970
14223TIP3   OH264083   6.469   5.590  12.206  0.6601 -0.3831  0.0178
14223TIP3    H164084   6.448   5.671  12.252 -0.8969 -0.8952  0.2407
14223TIP3    H264085   6.477   5.616  12.114  0.7038  0.1067  0.1580
14224TIP3   OH264086   4.627   0.438  14.854 -0.0269 -0.5123 -0.2461
14224TIP3    H164087   4.576   0.365  14.819  0.3661 -0.7201 -0.3875
14224TIP3    H264088   4.612   0.434  14.949 -0.3071 -0.5477 -0.2913
14225TIP3   OH264089   1.972   6.010  15.162  0.0873  0.4959  0.0702
14225TIP3    H164090   1.943   6.101  15.154  0.8423  0.6869 -0.5182
14225TIP3    H264091   1.996   5.984  15.073  1.0220  0.1023  0.4357
14226TIP3   OH264092   1.035   1.715   4.532 -0.1711 -0.1422 -0.1910
14226TIP3    H164093   1.044   1.723   4.437 -1.3320 -0.9951 -0.3842
14226TIP3    H264094   1.061   1.625   4.552 -1.4285 -0.4580  0.0876
14227TIP3   OH264095   2.040   3.538   4.683 -0.1484  0.6201  0.1990
14227TIP3    H164096   2.065   3.630   4.679  1.6710  0.1635  0.8998
14227TIP3    H264097   2.059   3.504   4.595  1.6058  0.3030  0.6931
14228TIP3   OH264098   6.114   2.717  11.765 -0.2643 -0.1046 -0.9239
14228TIP3    H164099   6.056   2.642  11.772 -1.7712  1.1651  1.0134
14228TIP3    H264100   6.103   2.764  11.848  3.0624  0.5419 -0.7369
14229TIP3   OH264101   6.097   0.223  11.026  0.2129  0.1680 -0.4369
14229TIP3    H164102   6.148   0.152  10.986  1.2638  0.5153  0.2596
14229TIP3    H264103   6.014   0.182  11.051  0.9040 -0.8857  0.1794
14230TIP3   OH264104   6.759   2.404   6.545  0.0845 -0.3279 -0.3498
14230TIP3    H164105   6.800   2.373   6.464 -0.8102  0.6931 -1.2046
14230TIP3    H264106   6.822   2.381   6.614  0.3785 -2.1599 -1.1945
14231TIP3   OH264107   1.485   0.751   1.647 -0.2296 -0.3136  0.4299
14231TIP3    H164108   1.548   0.717   1.710  0.7913  1.6377  0.4630
14231TIP3    H264109   1.515   0.717   1.563  0.6366  0.3039  0.4915
14232TIP3   OH264110   1.325   3.915   5.325 -0.2785 -0.0247 -0.3171
14232TIP3    H164111   1.396   3.948   5.270  0.4509 -0.7272  0.1908
14232TIP3    H264112   1.286   3.844   5.275  0.2995 -0.5761  0.0048
14233TIP3   OH264113   4.018   0.529  16.755 -0.5531  0.4619  0.2075
14233TIP3    H164114   3.999   0.533  16.661  0.4882 -0.5066 -0.0628
14233TIP3    H264115   4.083   0.459  16.763 -1.5548 -0.3027  1.8169
14234TIP3   OH264116   3.788   1.996   3.222  0.5829 -0.3076 -0.0318
14234TIP3    H164117   3.773   2.079   3.267 -0.4476 -0.4231 -0.1535
14234TIP3    H264118   3.882   1.980   3.232  1.2982  2.1945 -2.2867
14235TIP3   OH264119   6.305   5.851  11.311 -0.2531 -0.2726  0.4860
14235TIP3    H164120   6.261   5.768  11.293  0.5650 -1.0526  1.9658
14235TIP3    H264121   6.314   5.893  11.226 -0.6306 -1.7349 -0.2845
14236TIP3   OH264122   1.863   6.722   0.072  0.5070  0.2224  0.0902
14236TIP3    H164123   1.801   6.739   0.002 -0.1901  1.6462  1.0208
14236TIP3    H264124   1.943   6.768   0.046  0.5507 -0.0024 -0.1816
14237TIP3   OH264125   1.981   5.104  10.832  0.4671  0.6271  0.0778
14237TIP3    H164126   2.012   5.021  10.869  2.2745  1.3088  0.1489
14237TIP3    H264127   1.982   5.090  10.737 -3.1414 -0.7571  0.1337
14238TIP3   OH264128   1.323   1.523  15.447  0.2139 -0.6505 -0.3246
14238TIP3    H164129   1.410   1.516  15.485  0.7214  1.7175 -0.9386
14238TIP3    H264130   1.284   1.599  15.491 -2.0251 -2.4322  0.8507
14239TIP3   OH264131   0.513   2.019   5.275  0.0899  0.0739 -1.0283
14239TIP3    H164132   0.565   1.943   5.249  0.2569 -0.8036  1.7419
14239TIP3    H264133   0.576   2.077   5.319 -0.8299 -0.0207  0.4368
14240TIP3   OH264134   1.733   5.443  14.980  0.0880  1.1302  0.5223
14240TIP3    H164135   1.689   5.451  14.895  1.6255  1.2900 -0.2816
14240TIP3    H264136   1.695   5.365  15.019 -1.5936  1.8036  0.2629
14241TIP3   OH264137   4.406   5.541   4.349 -0.5353  0.4459  0.4665
14241TIP3    H164138   4.368   5.457   4.322  1.2922 -0.7921  1.6545
14241TIP3    H264139   4.334   5.587   4.391 -1.3907 -0.8102  0.4061
14242TIP3   OH264140   0.101   5.442   0.240 -0.3602 -0.0463  0.2402
14242TIP3    H164141   0.056   5.494   0.173  0.5555  1.4273  0.7392
14242TIP3    H264142   0.145   5.507   0.294  0.2957 -1.3311  1.2648
14243TIP3   OH264143   1.655   1.594  15.960  0.2985 -0.3252 -0.3738
14243TIP3    H164144   1.700   1.596  16.045 -0.5867 -2.2203  0.1654
14243TIP3    H264145   1.723   1.573  15.897  0.5945 -0.8930  0.1298
14244TIP3   OH264146   3.990   3.528   5.307 -0.4012  0.3947  0.0803
14244TIP3    H164147   3.960   3.561   5.391 -0.3202 -1.7863  1.0164
14244TIP3    H264148   3.915   3.482   5.271  0.2617 -0.6989  0.0654
14245TIP3   OH264149   2.051   2.059  12.270 -0.5227 -0.2956  0.1141
14245TIP3    H164150   2.075   2.031  12.359 -1.5954  0.1574  0.5505
14245TIP3    H264151   1.981   1.999  12.244  0.2280 -0.8311 -0.6781
14246TIP3   OH264152   2.771   0.224  16.534 -0.0600 -0.4333 -0.1284
14246TIP3    H164153   2.834   0.175  16.481  0.8093  0.3013  0.2184
14246TIP3    H264154   2.721   0.157  16.581 -0.2611 -1.0571 -1.2054
14247TIP3   OH264155   4.257   6.273   4.147 -0.0861  0.6087 -0.8175
14247TIP3    H164156   4.333   6.224   4.116 -0.0510  1.3968 -2.0277
14247TIP3    H264157   4.286   6.364   4.151 -0.5334  0.7133  0.1414
14248TIP3   OH264158   0.247   0.664   2.084 -0.1960 -0.5596  0.6244
14248TIP3    H164159   0.280   0.594   2.028  0.2553  1.0099 -1.1484
14248TIP3    H264160   0.154   0.643   2.097  0.1700 -2.0099  0.9664
14249TIP3   OH264161   1.081   3.734  10.648  0.2952  0.0270 -0.1919
14249TIP3    H164162   1.025   3.810  10.663  0.3789  0.1335 -0.4139
14249TIP3    H264163   1.170   3.769  10.650  0.3469 -0.1146  0.0013
14250TIP3   OH264164   4.479   1.368  11.152 -0.0981  0.2086 -0.2919
14250TIP3    H164165   4.573   1.384  11.155  0.2825 -1.9106  0.7531
14250TIP3    H264166   4.447   1.423  11.081  2.1174  0.1052 -1.4264
14251TIP3   OH264167   3.448   1.766   0.152  0.3264 -0.6959 -0.2405
14251TIP3    H164168   3.457   1.701   0.083  1.2985 -0.4941 -0.3075
14251TIP3    H264169   3.354   1.786   0.155  0.0593 -1.9460 -0.3521
14252TIP3   OH264170   4.375   3.237   5.899  0.2896 -0.5697  0.2802
14252TIP3    H164171   4.440   3.167   5.905 -0.9281 -1.7565 -0.2963
14252TIP3    H264172   4.325   3.232   5.980  0.0315 -0.5326  0.1254
14253TIP3   OH264173   5.111   4.772  13.859  0.5120  0.4399  0.3566
14253TIP3    H164174   5.084   4.787  13.768 -0.6847  0.1513  0.6524
14253TIP3    H264175   5.083   4.682  13.878  0.9945  0.4054  0.9270
14254TIP3   OH264176   2.047   0.319  16.996  0.2727 -0.3081  0.0425
14254TIP3    H164177   2.076   0.389  16.937  1.7043 -0.7505  0.2056
14254TIP3    H264178   1.952   0.331  17.003  0.4394  1.2861 -0.3511
14255TIP3   OH264179   0.318   0.023   3.118  0.2384 -0.6257  0.0667
14255TIP3    H164180   0.283  -0.030   3.189  2.0398 -1.5976  0.2442
14255TIP3    H264181   0.387   0.075   3.158 -0.2722  0.5148 -0.4971
14256TIP3   OH264182   1.120   4.545  13.959 -0.5464 -0.5854 -0.7603
14256TIP3    H164183   1.187   4.527  13.893 -0.8404 -0.4287 -1.1014
14256TIP3    H264184   1.038   4.544  13.911 -0.8116 -0.9794 -0.3011
14257TIP3   OH264185   6.259   5.941   0.311 -0.8526 -0.3704 -0.0617
14257TIP3    H164186   6.229   6.017   0.362 -1.4713 -0.4694 -0.2667
14257TIP3    H264187   6.178   5.900   0.280 -0.5407 -1.3737  0.4245
14258TIP3   OH264188   6.294   2.981  14.968  0.5173  0.2155  0.1473
14258TIP3    H164189   6.374   3.032  14.979  0.5426  0.3272 -0.5791
14258TIP3    H264190   6.319   2.892  14.991  1.0034  0.1367 -0.6619
14259TIP3   OH264191   2.564   1.631  16.165  0.0057 -0.5224 -0.2957
14259TIP3    H164192   2.564   1.656  16.258  2.2683  0.4899 -0.5492
14259TIP3    H264193   2.591   1.539  16.165 -0.7824 -0.7601  0.0900
14260TIP3   OH264194   1.368   1.080   5.229 -0.3169 -0.5137  0.2454
14260TIP3    H164195   1.354   1.015   5.160 -0.3463  0.3401 -0.5556
14260TIP3    H264196   1.334   1.162   5.193  2.7277  0.6601 -0.0380
14261TIP3   OH264197   0.926   6.744   2.464 -0.2933  0.3365 -0.0919
14261TIP3    H164198   0.982   6.796   2.523 -0.4578  0.4163 -0.0044
14261TIP3    H264199   0.914   6.800   2.387  0.4151 -0.0132 -0.4605
14262TIP3   OH264200   6.280   3.279   0.597  0.2639 -0.0600  0.3732
14262TIP3    H164201   6.288   3.362   0.550 -0.1722 -0.2944 -0.1167
14262TIP3    H264202   6.356   3.277   0.655  0.4408  0.5404  0.1645
14263TIP3   OH264203   0.209   3.325   4.691 -0.0082 -0.9529 -0.2065
14263TIP3    H164204   0.221   3.236   4.724 -2.9736 -1.6524 -0.8546
14263TIP3    H264205   0.141   3.363   4.747  0.0978  0.3699 -0.9408
14264TIP3   OH264206   0.706   6.466  11.203  0.2670  0.4868  0.1016
14264TIP3    H164207   0.706   6.466  11.298 -0.5445  0.9613  0.1119
14264TIP3    H264208   0.632   6.522  11.179  0.5496  0.4874 -0.8046
14265TIP3   OH264209   4.654   4.662   2.022  0.5043  0.3188 -0.1828
14265TIP3    H164210   4.715   4.666   1.948  0.7407  1.3816  0.0546
14265TIP3    H264211   4.697   4.712   2.091 -1.1859  2.1770 -0.4321
14266TIP3   OH264212   0.119   3.842   3.319  0.4028 -0.2079  0.1764
14266TIP3    H164213   0.182   3.915   3.316 -0.1016  0.2037 -0.4328
14266TIP3    H264214   0.048   3.869   3.262 -0.1046 -0.8956  0.4741
14267TIP3   OH264215   5.664   5.791   2.796 -0.5899 -0.0529 -0.2191
14267TIP3    H164216   5.751   5.777   2.757  0.2387  0.7300  1.2834
14267TIP3    H264217   5.603   5.763   2.728  0.8433 -3.8663 -0.0516
14268TIP3   OH264218   4.324   1.580  12.764 -0.5048 -0.1185 -0.1392
14268TIP3    H164219   4.246   1.562  12.817  0.2567 -2.1064  0.3708
14268TIP3    H264220   4.380   1.632  12.820 -0.1772 -1.2788  0.6414
14269TIP3   OH264221   0.705   4.964   1.131  0.5332  0.3304  0.2903
14269TIP3    H164222   0.736   4.966   1.041  1.0623 -2.2843  0.3758
14269TIP3    H264223   0.784   4.973   1.184  0.6762 -1.8440  0.4855
14270TIP3   OH264224   0.776   4.597  12.905 -0.1470 -0.2268  0.3234
14270TIP3    H164225   0.754   4.527  12.966  0.9673 -0.3869  0.5634
14270TIP3    H264226   0.864   4.624  12.931 -1.4334  2.8330  1.6915
14271TIP3   OH264227   6.617   4.223   4.739 -0.8199 -0.4285 -0.0610
14271TIP3    H164228   6.650   4.273   4.814  2.9592 -0.4689 -1.5938
14271TIP3    H264229   6.615   4.133   4.769  2.4911 -0.7117 -0.4648
14272TIP3   OH264230   4.408   1.991  17.071  0.4123 -0.1515 -0.2113
14272TIP3    H164231   4.382   2.005  17.163  1.8717  1.8312 -0.0667
14272TIP3    H264232   4.325   1.989  17.023 -0.2868  0.5165  0.9328
14273TIP3   OH264233   6.283   4.335  12.417 -0.4665 -0.2917 -0.1351
14273TIP3    H164234   6.372   4.371  12.426  0.0218 -1.4934  0.0191
14273TIP3    H264235   6.257   4.316  12.507 -1.1543  0.6849 -0.1244
14274TIP3   OH264236   2.499   0.213  16.303  0.2821 -0.1710 -0.3104
14274TIP3    H164237   2.564   0.203  16.233  1.8964  0.7630  1.0057
14274TIP3    H264238   2.508   0.304  16.331 -0.5870 -0.4375  0.8681
14275TIP3   OH264239   1.416   1.743  11.676  0.0018 -0.1837  0.1048
14275TIP3    H164240   1.448   1.709  11.592 -2.4027 -0.3472 -0.8066
14275TIP3    H264241   1.470   1.820  11.693  1.8415 -1.3040 -0.5846
14276TIP3   OH264242   4.466   6.044  14.411  0.0430  0.0938  0.5498
14276TIP3    H164243   4.491   5.961  14.451 -1.6553 -0.9506 -0.4450
14276TIP3    H264244   4.370   6.045  14.417  0.0792  2.3472  1.2392
14277TIP3   OH264245   2.734   5.782  15.022 -0.6118 -0.3230  0.3771
14277TIP3    H164246   2.693   5.868  15.029  0.1446  0.1640 -1.1481
14277TIP3    H264247   2.804   5.784  15.088 -0.8740  0.0677  0.6456
14278TIP3   OH264248   0.777   3.954   2.281  0.1026 -0.2070  0.4560
14278TIP3    H164249   0.727   4.033   2.261 -0.0767  0.1257  2.2198
14278TIP3    H264250   0.866   3.986   2.300  0.2983 -0.5405  0.1235
14279TIP3   OH264251   0.083   1.989  14.346  0.1893  0.2709 -0.2361
14279TIP3    H164252   0.069   1.961  14.256  0.8175  0.5691 -0.4297
14279TIP3    H264253   0.112   2.080  14.339  1.3146 -0.0395  0.1954
14280TIP3   OH264254   3.358   4.908  11.777 -0.4697 -0.0479  0.0585
14280TIP3    H164255   3.297   4.914  11.850 -0.1089 -3.6105  0.7402
14280TIP3    H264256   3.304   4.888  11.701 -0.4313 -0.5698  0.1658
14281TIP3   OH264257   6.754   2.396  16.549  0.1977  0.5397 -0.2573
14281TIP3    H164258   6.760   2.394  16.645 -1.7365 -1.1565 -0.1485
14281TIP3    H264259   6.749   2.489  16.527 -1.6493  0.8626  1.4374
14282TIP3   OH264260   6.470   2.125  17.155 -0.1704  0.0922  0.4674
14282TIP3    H164261   6.470   2.060  17.225 -0.2167 -1.7035 -1.1573
14282TIP3    H264262   6.552   2.173  17.166  1.3651 -2.3257 -0.1813
14283TIP3   OH264263   5.120   0.221  10.357  0.2780 -0.0500 -0.0023
14283TIP3    H164264   5.097   0.152  10.420  3.2204 -0.9607  0.1749
14283TIP3    H264265   5.037   0.251  10.321 -1.3394 -0.8442  2.9469
14284TIP3   OH264266   3.395   6.422  10.693 -0.4660 -0.6467  0.7731
14284TIP3    H164267   3.469   6.481  10.711 -1.2054 -0.2564  2.6445
14284TIP3    H264268   3.436   6.343  10.659  0.6379  0.4170 -0.4745
14285TIP3   OH264269   0.883   5.168   2.580 -0.1235 -0.0885  0.3937
14285TIP3    H164270   0.939   5.204   2.649  0.7707 -0.4894 -0.1156
14285TIP3    H264271   0.831   5.101   2.624  0.1949 -0.1017  0.7577
14286TIP3   OH264272   6.390   3.978  11.868  0.1951 -0.4212 -0.3596
14286TIP3    H164273   6.402   3.992  11.774 -0.2773  2.9002  0.0216
14286TIP3    H264274   6.417   4.061  11.908  1.6179 -2.2138  2.5546
14287TIP3   OH264275   5.917   4.027  15.184  0.4782  0.5585  0.0921
14287TIP3    H164276   5.967   4.107  15.193 -0.4009  0.9570  1.6684
14287TIP3    H264277   5.965   3.975  15.120 -0.5009  3.5271 -3.2156
14288TIP3   OH264278   0.959   5.360  12.860  0.2726  0.6558  0.2330
14288TIP3    H164279   0.910   5.414  12.797 -0.1041  0.2136  0.1414
14288TIP3    H264280   1.048   5.395  12.858  0.4890  0.0931 -1.2069
14289TIP3   OH264281   3.422   3.744  11.973  0.3213  0.0835 -0.1859
14289TIP3    H164282   3.437   3.781  12.060  0.5622  0.0637 -0.2193
14289TIP3    H264283   3.352   3.680  11.986  1.0305 -0.6294  0.1780
14290TIP3   OH264284   4.723   6.729  11.077  0.3443  0.2736  0.0060
14290TIP3    H164285   4.740   6.778  11.157 -1.8409  1.2513 -0.0923
14290TIP3    H264286   4.664   6.658  11.105  0.9480 -0.4111 -0.4374
14291TIP3   OH264287   6.045   3.537  15.893 -0.4221  0.3007 -0.3737
14291TIP3    H164288   5.962   3.578  15.868  0.0452  2.2000  1.0413
14291TIP3    H264289   6.030   3.443  15.882 -2.3032  0.6947 -1.4308
14292TIP3   OH264290   2.439   0.145  13.249  0.2890  0.1320  0.2237
14292TIP3    H164291   2.357   0.186  13.275  0.1950  1.1517 -1.6121
14292TIP3    H264292   2.505   0.214  13.259 -0.2069  1.6213 -5.0434
14293TIP3   OH264293   2.463   4.185  15.674 -0.0605  0.3348 -0.2068
14293TIP3    H164294   2.446   4.098  15.709  0.9618  0.8167  1.5427
14293TIP3    H264295   2.542   4.214  15.719 -0.7184  2.4029 -0.3208
14294TIP3   OH264296   6.489   0.676   4.152 -0.3534  0.4468 -0.3448
14294TIP3    H164297   6.527   0.764   4.154  1.0336 -0.1470 -0.5022
14294TIP3    H264298   6.416   0.684   4.090 -0.4308  1.5563 -0.1323
14295TIP3   OH264299   4.572   3.988  14.261  0.7428 -0.0067 -0.4077
14295TIP3    H164300   4.581   4.053  14.330  1.6510  0.6844 -1.1699
14295TIP3    H264301   4.649   3.932  14.270 -0.7031 -1.8384  1.1089
14296TIP3   OH264302   0.610   1.510   6.580 -0.3706 -0.1286 -0.1005
14296TIP3    H164303   0.703   1.532   6.579 -1.0250  2.9964 -3.3540
14296TIP3    H264304   0.575   1.557   6.656  0.2821  0.9232 -0.4301
14297TIP3   OH264305   6.019   4.638   4.627 -0.2574 -0.1271 -0.6858
14297TIP3    H164306   5.961   4.635   4.703 -0.9894 -0.2278 -1.2309
14297TIP3    H264307   6.103   4.604   4.658 -0.7324 -0.7661 -0.0903
14298TIP3   OH264308   6.141   0.135  16.830  0.1157  0.0034 -0.5713
14298TIP3    H164309   6.062   0.148  16.883  0.5686 -1.3752  0.4860
14298TIP3    H264310   6.213   0.140  16.893  0.5430 -3.5370 -0.6596
14299TIP3   OH264311   3.364   4.868   0.242 -0.2838 -0.2160  0.4305
14299TIP3    H164312   3.369   4.785   0.194 -2.7607  0.6938 -1.5164
14299TIP3    H264313   3.353   4.935   0.174 -0.1359  1.5171  2.0692
14300TIP3   OH264314   1.383   3.398  14.302 -0.0692  0.1069  0.5112
14300TIP3    H164315   1.352   3.323  14.252  0.9258  0.5544 -0.8162
14300TIP3    H264316   1.434   3.360  14.373  2.0625 -0.4682 -1.2614
14301TIP3   OH264317   1.567   1.870  12.680  0.4542 -1.2420  0.0692
14301TIP3    H164318   1.590   1.887  12.589 -0.8615 -2.2229 -0.4712
14301TIP3    H264319   1.646   1.892  12.729  0.7134  0.6982 -1.1436
14302TIP3   OH264320   2.210   3.462   3.579  0.7571  0.2460  0.6541
14302TIP3    H164321   2.262   3.459   3.499 -2.7364  1.8454 -1.7963
14302TIP3    H264322   2.228   3.548   3.616  1.0790  0.1707  0.6716
14303TIP3   OH264323   2.022   3.041   6.327 -0.0779  0.5751 -0.2382
14303TIP3    H164324   2.011   2.948   6.347  1.2536  0.5156  0.2652
14303TIP3    H264325   2.040   3.082   6.412  1.3984  0.9737 -0.7287
14304TIP3   OH264326   3.298   0.597  13.270  0.0367 -0.1304 -0.3679
14304TIP3    H164327   3.384   0.615  13.307 -0.5262  0.7224  0.5850
14304TIP3    H264328   3.272   0.679  13.228 -0.8153  0.0085  0.4100
14305TIP3   OH264329   0.858   1.198   6.645 -0.4219 -0.1300 -0.6869
14305TIP3    H164330   0.855   1.119   6.590  0.5527 -0.8893  0.3268
14305TIP3    H264331   0.767   1.216   6.666 -0.5970 -1.4943 -0.2219
14306TIP3   OH264332   2.031   3.392   0.623  0.4085 -0.0946 -0.2321
14306TIP3    H164333   2.044   3.354   0.710  0.6118  1.5452  0.4775
14306TIP3    H264334   2.106   3.450   0.611  0.4526 -0.4108 -1.5727
14307TIP3   OH264335   0.716   4.104  14.250 -0.2652  0.4269 -0.0573
14307TIP3    H164336   0.677   4.023  14.283 -0.8882  0.7784  0.0799
14307TIP3    H264337   0.809   4.095  14.269 -0.8529  1.5515  3.9322
14308TIP3   OH264338   2.713   2.852   2.086 -0.7545  0.1598  0.0921
14308TIP3    H164339   2.701   2.942   2.116 -0.0912  0.6956 -1.2089
14308TIP3    H264340   2.667   2.799   2.151 -0.5016  1.3790  1.2950
14309TIP3   OH264341   5.823   6.406   5.573  0.3537 -0.4008 -0.5316
14309TIP3    H164342   5.800   6.468   5.641  0.6854 -1.3901  0.5120
14309TIP3    H264343   5.914   6.426   5.551 -0.0600  0.5612 -1.4099
14310TIP3   OH264344   2.910   3.153   3.552  0.1819 -0.4713  0.6409
14310TIP3    H164345   2.910   3.173   3.646 -0.6114  0.7182  0.4098
14310TIP3    H264346   2.817   3.158   3.527  0.5856  1.2989 -0.6061
14311TIP3   OH264347   4.828   0.350   1.162  0.4452 -0.8005  0.0542
14311TIP3    H164348   4.881   0.306   1.096  1.3388 -1.5076  1.2257
14311TIP3    H264349   4.818   0.286   1.233 -0.7398 -0.1615  0.4940
14312TIP3   OH264350   6.260   5.964   0.773 -0.4496  0.2495  0.3492
14312TIP3    H164351   6.332   6.017   0.738 -0.3955  0.0710  0.1884
14312TIP3    H264352   6.186   6.024   0.776 -0.6027  0.1206 -0.6010
14313TIP3   OH264353   5.940   1.646   5.302  0.1383 -0.1246  0.0054
14313TIP3    H164354   6.017   1.592   5.320  0.2044 -0.0525 -0.0573
14313TIP3    H264355   5.943   1.715   5.369 -0.4101 -0.6816  0.6039
14314TIP3   OH264356   1.517   5.946   5.125  0.2532 -0.8231  0.1400
14314TIP3    H164357   1.488   5.887   5.056  1.0088 -0.7339 -0.2562
14314TIP3    H264358   1.489   6.033   5.095 -0.4968 -0.9220  0.5300
14315TIP3   OH264359   0.348   3.816   5.623 -0.4342  0.1350 -0.4372
14315TIP3    H164360   0.316   3.788   5.537 -0.5530 -0.5407 -0.1816
14315TIP3    H264361   0.305   3.757   5.685  1.6677 -1.1453 -0.1265
14316TIP3   OH264362   6.640   3.246  13.408 -0.1945  0.5776  0.1913
14316TIP3    H164363   6.708   3.221  13.470 -1.3676 -2.2041  0.4148
14316TIP3    H264364   6.590   3.166  13.393 -0.8791  1.5592 -3.1677
14317TIP3   OH264365   0.691   0.636  17.090 -0.2814 -0.3094 -0.2850
14317TIP3    H164366   0.727   0.547  17.084  0.9939  0.1189  0.6220
14317TIP3    H264367   0.764   0.692  17.062 -1.0422  0.4542 -0.7393
14318TIP3   OH264368   5.939   5.765   9.875 -0.2350  0.4263  0.1743
14318TIP3    H164369   5.908   5.682   9.912 -0.4150 -0.0771 -1.1044
14318TIP3    H264370   5.985   5.807   9.948 -1.9755  0.1674  1.4536
14319TIP3   OH264371   4.905   3.411   0.839  0.1014 -0.1780 -0.1332
14319TIP3    H164372   4.965   3.443   0.772 -0.9644  0.4311 -0.8118
14319TIP3    H264373   4.945   3.437   0.922  2.1653 -2.2129 -0.4390
14320TIP3   OH264374   3.307   5.029   3.488 -0.4484  0.2388 -0.2732
14320TIP3    H164375   3.289   4.941   3.455 -1.0237  0.6354 -1.0634
14320TIP3    H264376   3.385   5.057   3.441 -1.6710  1.0741 -1.8683
14321TIP3   OH264377   2.023   4.046  17.000 -0.4547  1.0175  0.1271
14321TIP3    H164378   2.045   4.084  16.915  0.5484  0.5901  0.1909
14321TIP3    H264379   2.042   4.116  17.063 -1.2569  1.3561  0.0110
14322TIP3   OH264380   1.159   1.840  14.840  0.2726 -0.3155 -0.1475
14322TIP3    H164381   1.164   1.849  14.935  1.1418  1.9877 -0.3875
14322TIP3    H264382   1.250   1.839  14.811  0.0199 -1.4402 -0.9266
14323TIP3   OH264383   0.903   3.422   4.219 -0.4065  0.1139  0.3885
14323TIP3    H164384   0.874   3.331   4.212  0.5970 -0.3295  1.7264
14323TIP3    H264385   0.996   3.419   4.195 -0.7824  1.0686 -1.2241
14324TIP3   OH264386   5.928   6.568   4.691  0.3114  0.3888 -0.1872
14324TIP3    H164387   5.957   6.486   4.649 -1.4136 -0.2619 -0.1548
14324TIP3    H264388   5.972   6.637   4.641  1.2023 -0.5329 -0.6981
14325TIP3   OH264389   0.762   2.283  12.439 -0.2548 -0.1381  0.2134
14325TIP3    H164390   0.757   2.210  12.501 -0.7280 -1.1038 -0.9416
14325TIP3    H264391   0.685   2.337  12.459  0.4703  0.4379  1.5302
14326TIP3   OH264392   0.051   5.863  14.987  0.1491 -0.5086 -0.3783
14326TIP3    H164393   0.007   5.782  15.014 -0.9590  0.2217  0.0766
14326TIP3    H264394   0.053   5.916  15.066  2.1312 -0.6273 -0.3268
14327TIP3   OH264395   6.564   5.583  11.386  0.6934  0.0122 -0.1925
14327TIP3    H164396   6.547   5.607  11.295  0.3361  1.3346  0.2162
14327TIP3    H264397   6.615   5.502  11.380 -0.4832 -0.6603 -1.5352
14328TIP3   OH264398   2.752   3.462   2.143 -0.6895  0.6212 -0.3413
14328TIP3    H164399   2.806   3.478   2.066 -0.4546 -1.0468 -0.5381
14328TIP3    H264400   2.669   3.429   2.108 -0.4821 -0.4168  0.1343
14329TIP3   OH264401   2.822   6.769   4.000  0.0744 -0.4709 -0.9498
14329TIP3    H164402   2.761   6.833   3.963  0.4910 -0.1294 -1.0512
14329TIP3    H264403   2.895   6.821   4.032  0.8395 -0.9636 -1.8601
14330TIP3   OH264404   0.869   2.212  13.047 -0.7326 -0.0819 -0.3941
14330TIP3    H164405   0.828   2.126  13.036  1.3563 -1.3944  1.5253
14330TIP3    H264406   0.890   2.216  13.141  1.3824  1.4845 -0.8893
14331TIP3   OH264407   3.529   0.514   6.499  0.1067  0.4917 -0.1529
14331TIP3    H164408   3.558   0.599   6.466  0.9679  0.4982  0.6298
14331TIP3    H264409   3.552   0.514   6.591 -2.2805  0.4473  0.4722
14332TIP3   OH264410   6.779   5.989  13.501  0.8178  0.8983  0.2114
14332TIP3    H164411   6.714   6.026  13.442  0.2113  0.5410  0.6405
14332TIP3    H264412   6.774   5.894  13.485  1.8822  0.9350 -0.4081
14333TIP3   OH264413   1.018   2.813   4.535 -0.5815 -0.4320 -1.2101
14333TIP3    H164414   1.008   2.812   4.440 -0.6916  0.2021 -1.2089
14333TIP3    H264415   1.065   2.732   4.555  0.8129  0.1746 -1.9576
14334TIP3   OH264416   5.545   1.644  12.232  0.2542 -0.5026  0.0690
14334TIP3    H164417   5.534   1.704  12.158 -0.7777 -0.4764  0.2446
14334TIP3    H264418   5.609   1.580  12.201  0.1069 -0.2779 -0.7188
14335TIP3   OH264419   2.777   5.960  14.087 -0.1317  0.1063 -0.2264
14335TIP3    H164420   2.775   6.055  14.102  0.8956  0.3746 -1.6563
14335TIP3    H264421   2.833   5.949  14.010 -0.2469 -1.6706 -0.0800
14336TIP3   OH264422   1.996   4.633   2.704  0.2795  0.4597 -0.6903
14336TIP3    H164423   1.957   4.643   2.791 -0.2328  0.9252 -0.9716
14336TIP3    H264424   1.960   4.706   2.653 -0.4161 -0.5474 -1.6561
14337TIP3   OH264425   4.677   1.964  16.697  0.0682  0.5316 -0.2884
14337TIP3    H164426   4.596   1.913  16.686 -0.6022  0.9313  2.2679
14337TIP3    H264427   4.666   2.040  16.641 -0.4017 -0.4714 -1.5708
14338TIP3   OH264428   1.855   0.049   4.897  0.3765 -0.4541 -0.3157
14338TIP3    H164429   1.944   0.081   4.908 -0.0126  0.3345  0.6190
14338TIP3    H264430   1.840   0.050   4.802  0.5473  1.6840 -0.3319
14339TIP3   OH264431   6.568   2.747   3.031  0.4364 -0.2214  0.1045
14339TIP3    H164432   6.508   2.678   3.060 -1.0304  0.9829 -0.0056
14339TIP3    H264433   6.516   2.798   2.969  2.3224 -0.5061 -1.7524
14340TIP3   OH264434   3.184   0.553   0.432 -0.5825  0.5774  0.0019
14340TIP3    H164435   3.241   0.554   0.355  0.9411  1.0004  1.1181
14340TIP3    H264436   3.187   0.643   0.465 -1.5802  0.5082  0.3109
14341TIP3   OH264437   4.270   4.980  13.190  0.1243  0.2012  0.4182
14341TIP3    H164438   4.325   4.964  13.266 -0.3931 -0.6670  0.6251
14341TIP3    H264439   4.243   4.892  13.162  0.8616  0.4737 -1.1720
14342TIP3   OH264440   0.615   5.818   0.565 -0.0984  0.0825  0.0525
14342TIP3    H164441   0.673   5.743   0.579  0.5285  0.6058  0.3006
14342TIP3    H264442   0.650   5.861   0.486 -1.0565 -0.4479 -0.6693
14343TIP3   OH264443   3.045   1.911  17.057  0.1112  0.2400 -0.2023
14343TIP3    H164444   3.091   1.990  17.083 -1.3199  0.9330  0.3042
14343TIP3    H264445   3.113   1.852  17.025  1.2670  1.4104  0.0809
14344TIP3   OH264446   4.274   0.981  13.621 -0.0614  0.3632  0.0833
14344TIP3    H164447   4.351   0.945  13.577 -0.5612 -1.5286  0.7070
14344TIP3    H264448   4.201   0.956  13.564 -0.3840  0.6100  0.3943
14345TIP3   OH264449   0.865   6.510   5.271  0.9223 -0.0013 -0.8188
14345TIP3    H164450   0.946   6.524   5.221  0.7050  0.0736 -1.1535
14345TIP3    H264451   0.805   6.470   5.208  0.5558  0.3456 -0.6897
14346TIP3   OH264452   6.494   2.357  14.972 -0.6758 -0.1561 -0.3358
14346TIP3    H164453   6.407   2.389  14.948 -0.6022  0.9719  0.8855
14346TIP3    H264454   6.533   2.428  15.023  1.5529 -0.0049 -2.1549
14347TIP3   OH264455   4.172   0.995   2.530  0.2079 -0.1177  0.1419
14347TIP3    H164456   4.258   0.978   2.491  0.0626 -0.2156 -0.1342
14347TIP3    H264457   4.162   0.928   2.597  0.6050  0.2587  0.5803
14348TIP3   OH264458   5.462   5.605   1.905  0.5276 -0.4375  0.0041
14348TIP3    H164459   5.553   5.581   1.885  0.8315  0.6847  0.0058
14348TIP3    H264460   5.469   5.688   1.953 -0.4584 -0.7594  0.7200
14349TIP3   OH264461   2.064   6.351   4.760 -0.4351 -0.5054  0.1089
14349TIP3    H164462   2.115   6.428   4.733 -2.0018  0.1411 -1.0721
14349TIP3    H264463   2.060   6.357   4.855 -1.0846  1.2507 -0.0113
14350TIP3   OH264464   1.316   6.339   0.621  0.0227 -0.0537  0.1521
14350TIP3    H164465   1.314   6.374   0.531 -2.0942 -0.6642 -0.0583
14350TIP3    H264466   1.238   6.377   0.663 -1.4826 -3.2938  0.3810
14351TIP3   OH264467   1.439   4.611  12.079  0.4621  0.2212 -1.2409
14351TIP3    H164468   1.525   4.575  12.056  0.9273 -0.8840  1.9920
14351TIP3    H264469   1.378   4.539  12.061  0.8178 -0.6215  0.7599
14352TIP3   OH264470   5.698   0.887  11.186 -0.7334  0.8090 -0.0915
14352TIP3    H164471   5.739   0.931  11.261  0.6102 -0.1621 -0.2359
14352TIP3    H264472   5.612   0.861  11.217 -0.9130  2.0883  0.5179
14353TIP3   OH264473   4.490   4.864   4.001  0.1422  0.4193  0.0776
14353TIP3    H164474   4.581   4.835   4.009 -0.6263 -2.1771 -0.1481
14353TIP3    H264475   4.468   4.852   3.909 -0.2418  1.6217  0.0086
14354TIP3   OH264476   0.372   0.179  16.100  0.4233  0.2518 -0.1965
14354TIP3    H164477   0.353   0.231  16.022 -1.0604  4.0263  2.5272
14354TIP3    H264478   0.467   0.167  16.097  0.7048  2.3749 -1.3935
14355TIP3   OH264479   6.241   5.633   3.712 -0.1431 -0.0891  0.0193
14355TIP3    H164480   6.273   5.549   3.679 -2.3944 -0.1867 -2.0368
14355TIP3    H264481   6.166   5.611   3.767 -0.5430  0.5448 -0.2633
14356TIP3   OH264482   5.182   0.979  16.845 -0.4865 -0.5705  0.0472
14356TIP3    H164483   5.183   0.998  16.751  1.2606 -0.8789  0.0004
14356TIP3    H264484   5.168   0.885  16.851 -0.6461 -0.5443  0.1151
14357TIP3   OH264485   3.542   6.420  12.057  0.0629 -0.1279 -0.6208
14357TIP3    H164486   3.565   6.513  12.060  0.4261 -0.2330 -0.0716
14357TIP3    H264487   3.625   6.374  12.065 -0.3077 -0.5131  1.2091
14358TIP3   OH264488   3.117   2.911   2.849  0.2032  0.2189 -0.1550
14358TIP3    H164489   3.071   2.855   2.786 -0.0494  0.6856 -0.3881
14358TIP3    H264490   3.099   2.871   2.934  0.0608 -0.0795 -0.3236
14359TIP3   OH264491   5.143   1.468  14.498 -0.5701 -0.0408  0.1343
14359TIP3    H164492   5.090   1.538  14.460  0.4749 -0.0843 -1.4296
14359TIP3    H264493   5.219   1.514  14.535  0.0614 -0.3173 -0.7963
14360TIP3   OH264494   0.219   2.355  16.202 -0.0583 -0.7775 -0.2002
14360TIP3    H164495   0.150   2.421  16.211 -0.4723 -0.8726 -2.3966
14360TIP3    H264496   0.299   2.406  16.189 -0.2275 -0.6950 -0.9255
14361TIP3   OH264497   5.083   1.864   4.129  0.3855 -0.2289  0.3888
14361TIP3    H164498   5.130   1.902   4.203 -1.9738  1.1148  1.2314
14361TIP3    H264499   5.007   1.821   4.168 -1.2296  1.0527 -1.2755
14362TIP3   OH264500   6.681   1.477  12.114 -0.0350 -0.1048 -0.4596
14362TIP3    H164501   6.768   1.441  12.099 -0.5425 -1.3955 -0.3521
14362TIP3    H264502   6.627   1.440  12.044 -0.9778 -1.0449  0.7473
14363TIP3   OH264503   2.155   0.767  14.708 -0.2034  0.1902 -1.0434
14363TIP3    H164504   2.078   0.735  14.661 -1.1055  1.8008 -0.7115
14363TIP3    H264505   2.160   0.860  14.685 -1.0133  1.1822  2.4717
14364TIP3   OH264506   2.292   0.927   4.327  0.4479  0.7021  0.0560
14364TIP3    H164507   2.371   0.973   4.358 -0.2879  2.0878 -0.0898
14364TIP3    H264508   2.270   0.970   4.245  0.2486 -0.5224 -0.5428
14365TIP3   OH264509   4.326   1.815   1.914  0.0738  0.2516  0.0433
14365TIP3    H164510   4.372   1.885   1.869 -0.1210  0.3072 -0.0713
14365TIP3    H264511   4.382   1.738   1.904 -0.5650 -0.0364 -1.3786
14366TIP3   OH264512   5.931   4.609   2.466  0.2455 -0.1789 -0.0447
14366TIP3    H164513   6.025   4.601   2.481  0.7779  1.2139 -2.4179
14366TIP3    H264514   5.900   4.518   2.464  2.1966 -0.8750 -2.8343
14367TIP3   OH264515   4.064   3.647  12.778  0.0067  0.2077  0.5430
14367TIP3    H164516   4.117   3.642  12.858 -0.7008  0.1229  1.0126
14367TIP3    H264517   4.054   3.556  12.750  0.0492  0.2157  0.5043
14368TIP3   OH264518   5.160   5.969   4.036 -0.3823  0.2290 -0.4614
14368TIP3    H164519   5.230   5.929   4.087 -2.0838  0.9231  2.5712
14368TIP3    H264520   5.203   6.033   3.980  1.4884 -0.1828  0.4866
14369TIP3   OH264521   4.580   0.365   2.858  0.6788  0.1800  0.3534
14369TIP3    H164522   4.510   0.311   2.893  0.8795  0.1800  0.7619
14369TIP3    H264523   4.660   0.330   2.899  1.2164 -1.3808 -1.9344
14370TIP3   OH264524   6.479   0.852   5.378 -0.3965  0.7434  0.0351
14370TIP3    H164525   6.507   0.934   5.420 -2.2147  1.0037  0.7800
14370TIP3    H264526   6.420   0.812   5.441  0.6700 -1.2893 -0.2275
14371TIP3   OH264527   2.822   0.411   4.964 -0.0794 -0.2551  0.0088
14371TIP3    H164528   2.818   0.315   4.968  1.2238 -0.3596 -0.8703
14371TIP3    H264529   2.863   0.429   4.880 -2.3553  1.1494 -0.8369
14372TIP3   OH264530   5.403   4.252  11.312 -0.0625 -0.2825  0.4957
14372TIP3    H164531   5.350   4.210  11.245 -0.9159  0.3122  0.7917
14372TIP3    H264532   5.358   4.335  11.330  1.2930  0.5114  0.3117
14373TIP3   OH264533   5.805   5.256  16.152  1.1370  0.0270  0.4036
14373TIP3    H164534   5.840   5.198  16.219  0.7666  0.9869  1.4377
14373TIP3    H264535   5.720   5.283  16.185  0.6839  0.0421 -0.7350
14374TIP3   OH264536   5.712   0.972   4.229  0.1106 -0.3044 -0.4663
14374TIP3    H164537   5.624   0.946   4.257  0.2485  1.0877  1.3343
14374TIP3    H264538   5.770   0.937   4.296  0.6187  1.6148  0.1129
14375TIP3   OH264539   5.705   5.324  14.084  0.1993  0.1304  0.2673
14375TIP3    H164540   5.775   5.290  14.028  0.3470 -0.1818  0.6346
14375TIP3    H264541   5.670   5.246  14.128  0.3390  0.4179  0.8861
14376TIP3   OH264542   0.340   4.399   4.382  0.2192  0.0868  0.3082
14376TIP3    H164543   0.347   4.443   4.297  3.5243 -1.3834 -0.2620
14376TIP3    H264544   0.290   4.459   4.436 -2.0190  1.0460 -2.6832
14377TIP3   OH264545   6.369   6.505  16.058  0.1853  0.5102  0.0808
14377TIP3    H164546   6.377   6.456  15.977  1.4504  0.3173  0.3076
14377TIP3    H264547   6.375   6.438  16.127  1.9766  0.9656  0.3923
14378TIP3   OH264548   4.566   4.006   4.896 -0.3209 -0.4974  0.6637
14378TIP3    H164549   4.539   3.942   4.830  1.3040 -1.7803  1.2295
14378TIP3    H264550   4.492   4.009   4.956 -0.7299 -1.2721  0.2161
14379TIP3   OH264551   5.853   0.965  16.021 -0.5101  0.0418 -0.2928
14379TIP3    H164552   5.867   0.964  15.927  0.8900  0.3002 -0.1057
14379TIP3    H264553   5.940   0.980  16.058 -0.4749 -3.2690  1.1716
14380TIP3   OH264554   0.973   1.558  14.900 -0.0942 -0.3969  0.7424
14380TIP3    H164555   0.944   1.469  14.879 -1.9256  0.0508  1.2429
14380TIP3    H264556   0.995   1.554  14.993  0.8877 -0.5926  0.5032
14381TIP3   OH264557   1.238   0.575   2.521  0.3315 -0.0782 -0.2184
14381TIP3    H164558   1.162   0.621   2.485  0.9203  0.0534 -1.3347
14381TIP3    H264559   1.220   0.567   2.614 -0.4573  1.1004 -0.2645
14382TIP3   OH264560   1.263   2.886  14.562  0.0183 -0.0693 -0.4604
14382TIP3    H164561   1.180   2.859  14.602 -0.3202 -0.0114 -1.1240
14382TIP3    H264562   1.327   2.827  14.600 -0.8285 -2.3326 -2.4591
14383TIP3   OH264563   0.790   0.152  16.892 -0.1790 -0.2459  0.2632
14383TIP3    H164564   0.791   0.060  16.867  0.2564 -0.3387  0.6362
14383TIP3    H264565   0.755   0.197  16.815  0.2710 -0.6409 -0.1726
14384TIP3   OH264566   1.771   3.885   2.188  0.6347 -0.1788  0.1090
14384TIP3    H164567   1.714   3.959   2.207  2.3345  0.9960  0.7653
14384TIP3    H264568   1.760   3.826   2.262 -0.3062 -0.3320 -0.1474
14385TIP3   OH264569   4.923   1.630   3.795  0.0434  0.0639 -0.1098
14385TIP3    H164570   4.932   1.537   3.816  0.2611 -0.1990 -1.3246
14385TIP3    H264571   4.842   1.656   3.839 -0.7491 -1.0409 -0.8600
14386TIP3   OH264572   4.947   3.852  12.969  0.3471 -0.3283 -0.3191
14386TIP3    H164573   4.949   3.819  12.879 -1.5140 -0.2836 -0.4039
14386TIP3    H264574   4.854   3.859  12.990  0.7427  1.1017  1.0906
14387TIP3   OH264575   0.060   2.671   1.430 -0.0399 -0.2256 -0.0783
14387TIP3    H164576   0.130   2.639   1.486  1.1902  2.7449  0.1531
14387TIP3    H264577   0.095   2.664   1.341 -0.0933 -0.3147 -0.0923
14388TIP3   OH264578   1.060   0.922   4.760 -0.1867  0.0284  0.0309
14388TIP3    H164579   1.059   0.968   4.844  1.0517 -0.1370  0.1466
14388TIP3    H264580   1.135   0.864   4.766 -0.3102 -0.2463 -1.0651
14389TIP3   OH264581   6.008   2.742  15.518 -0.1240 -0.3089  0.4254
14389TIP3    H164582   6.016   2.647  15.532 -0.6379 -0.5294 -0.6983
14389TIP3    H264583   6.089   2.767  15.474 -1.5039 -0.8973 -2.5785
14390TIP3   OH264584   3.311   2.033  15.037  0.5773  0.5432 -0.1239
14390TIP3    H164585   3.296   2.038  15.131 -1.8304 -1.5900 -0.3346
14390TIP3    H264586   3.367   2.108  15.017  1.6352  0.6728  3.0825
14391TIP3   OH264587   5.181   1.138   1.570 -0.5112  0.1997 -0.3087
14391TIP3    H164588   5.123   1.073   1.609 -0.0263 -0.6993 -1.0811
14391TIP3    H264589   5.205   1.196   1.643  1.0828 -1.9574  0.9370
14392TIP3   OH264590   6.589   2.121  15.740 -0.0950  0.4699  0.4056
14392TIP3    H164591   6.570   2.142  15.649  0.3561  1.6111  0.5684
14392TIP3    H264592   6.506   2.087  15.775 -0.0709 -0.6362 -0.6152
14393TIP3   OH264593   1.510   5.630   3.471  0.4237 -0.0860  0.4019
14393TIP3    H164594   1.481   5.618   3.561 -0.5569  0.4293  0.1559
14393TIP3    H264595   1.433   5.613   3.417  1.0349 -0.5273 -0.3556
14394TIP3   OH264596   4.561   0.657   1.476  0.8624 -0.2626  0.3319
14394TIP3    H164597   4.574   0.565   1.496  0.7443 -0.2911  0.2788
14394TIP3    H264598   4.571   0.703   1.559  0.0797 -0.4084  0.5048
14395TIP3   OH264599   1.460   4.994   2.335  0.0159 -0.9103 -0.1456
14395TIP3    H164600   1.543   4.986   2.288  0.8805  2.0108  0.7839
14395TIP3    H264601   1.409   5.057   2.285  0.0743  0.5341  1.5362
14396TIP3   OH264602   2.286   2.858  15.234 -0.5451  0.5599  0.0418
14396TIP3    H164603   2.198   2.877  15.201 -0.7391 -0.2864  0.0631
14396TIP3    H264604   2.320   2.943  15.262 -1.0544  1.0157 -0.7057
14397TIP3   OH264605   3.031   3.059  11.165  0.2572 -0.6921 -0.0608
14397TIP3    H164606   3.045   3.137  11.111 -3.1346 -0.1116 -0.2574
14397TIP3    H264607   3.102   3.060  11.229  2.7302  0.1624 -2.7120
14398TIP3   OH264608   3.765   0.423   0.010  0.5329  0.1610 -0.2377
14398TIP3    H164609   3.728   0.334   0.011  1.0256 -0.0371  0.1789
14398TIP3    H264610   3.854   0.412   0.043 -0.1532  1.1631  1.9705
14399TIP3   OH264611   1.777   5.842   4.147  0.3912 -0.4590 -0.1542
14399TIP3    H164612   1.789   5.924   4.099 -0.4147 -0.0167  0.4027
14399TIP3    H264613   1.747   5.780   4.080 -1.4774  0.3513 -0.1054
14400TIP3   OH264614   2.794   4.455  15.115  0.1288  0.1790 -0.1073
14400TIP3    H164615   2.738   4.378  15.117  0.5733 -0.1478  0.0135
14400TIP3    H264616   2.878   4.424  15.149  1.1736 -0.0093 -2.7305
14401TIP3   OH264617   0.185   2.930  11.035 -0.6534 -0.3758 -0.1324
14401TIP3    H164618   0.242   3.007  11.041 -0.9974 -0.0984 -0.4225
14401TIP3    H264619   0.104   2.963  10.998 -1.4161 -0.5471  1.3707
14402TIP3   OH264620   6.210   3.607  11.822  0.2269 -0.6476 -0.4593
14402TIP3    H164621   6.290   3.641  11.863  0.3958  1.3334 -2.3483
14402TIP3    H264622   6.236   3.581  11.734 -0.5692 -2.9449 -0.0421
14403TIP3   OH264623   5.445   1.096  16.906 -0.1723 -0.2607  0.6417
14403TIP3    H164624   5.433   1.183  16.867 -0.8680 -0.3970  0.5396
14403TIP3    H264625   5.374   1.044  16.868 -1.8094 -0.0212  3.2411
14404TIP3   OH264626   0.949   0.098   0.032  0.0776  0.2291  0.0395
14404TIP3    H164627   0.950   0.194   0.029  0.6021  0.3495  2.4956
14404TIP3    H264628   0.860   0.076   0.058 -0.3493 -0.0177 -1.5942
14405TIP3   OH264629   1.918   1.250  12.497 -1.0759  0.1983  0.0317
14405TIP3    H164630   1.871   1.330  12.519  0.3417  1.0650  0.0310
14405TIP3    H264631   1.853   1.193  12.456 -1.7850  1.9164 -1.2771
14406TIP3   OH264632   4.101   3.693  16.636 -0.1500  0.0578  0.2554
14406TIP3    H164633   4.134   3.684  16.725  0.4113  0.5526  0.0960
14406TIP3    H264634   4.013   3.728  16.647 -0.1232  0.0135  0.6188
14407TIP3   OH264635   1.354   5.487   2.283 -0.7593 -0.3303 -0.2856
14407TIP3    H164636   1.367   5.572   2.241 -0.9199  0.1781  0.6667
14407TIP3    H264637   1.313   5.509   2.367  1.2669 -1.1642  0.9665
14408TIP3   OH264638   3.946   3.691   3.735 -0.2811  0.0703  0.6371
14408TIP3    H164639   4.038   3.681   3.713 -0.3018  0.6202  0.2973
14408TIP3    H264640   3.945   3.748   3.812 -0.3227 -0.1385  0.7911
14409TIP3   OH264641   0.707   1.539   5.642 -0.0725  0.3997  0.2728
14409TIP3    H164642   0.671   1.622   5.672  0.9044  0.6946  0.6511
14409TIP3    H264643   0.794   1.535   5.681  0.2196 -0.4020 -0.4362
14410TIP3   OH264644   1.404   0.649  15.439  0.1103  0.2840  0.0332
14410TIP3    H164645   1.321   0.696  15.449  0.0434 -0.0375  1.0653
14410TIP3    H264646   1.427   0.660  15.347 -0.4197  1.4719  0.0309
14411TIP3   OH264647   4.578   1.471  15.808  0.1178 -0.3199  0.2714
14411TIP3    H164648   4.642   1.482  15.738 -1.0177  1.1892 -0.5764
14411TIP3    H264649   4.496   1.452  15.762 -0.8465  1.6317  1.1131
14412TIP3   OH264650   2.700   0.220  16.081  0.0726  0.0753 -0.2697
14412TIP3    H164651   2.702   0.161  16.006  0.1657  2.2877 -2.0692
14412TIP3    H264652   2.634   0.285  16.058 -0.8870  0.0360  2.1977
14413TIP3   OH264653   2.994   0.473  14.019 -0.1514 -0.1362 -0.2405
14413TIP3    H164654   3.042   0.451  13.940 -2.2360  3.6347 -2.6965
14413TIP3    H264655   3.061   0.475  14.088  2.0341 -1.4910 -2.2420
14414TIP3   OH264656   0.107   0.916   0.221  0.0889  0.3232  0.0948
14414TIP3    H164657   0.125   0.994   0.273  0.6347 -0.0226  0.4197
14414TIP3    H264658   0.151   0.933   0.137 -0.0877  0.5129  0.0383
14415TIP3   OH264659   0.220   0.031   0.101 -0.9306 -0.2069 -0.4050
14415TIP3    H164660   0.125   0.032   0.094 -0.9131  0.9167 -0.4905
14415TIP3    H264661   0.248   0.114   0.063  0.1977 -1.2869 -1.9866
14416TIP3   OH264662   0.576   3.412  11.652 -0.2314 -0.1049  0.0717
14416TIP3    H164663   0.500   3.469  11.644  1.0572  1.3944 -2.2086
14416TIP3    H264664   0.547   3.328  11.617 -1.0732  0.2329 -0.0364
14417TIP3   OH264665   2.210   3.808  12.397  0.1012 -0.3065 -0.2023
14417TIP3    H164666   2.241   3.754  12.469  0.6349 -0.6478 -0.6884
14417TIP3    H264667   2.151   3.871  12.438 -1.0711 -1.6908  0.2721
14418TIP3   OH264668   1.162   6.731   4.705 -0.5761  0.0377  0.1474
14418TIP3    H164669   1.211   6.722   4.623  3.4802 -0.7499  2.4806
14418TIP3    H264670   1.110   6.651   4.712  0.9376 -1.0381 -0.5569
14419TIP3   OH264671   5.672   0.849  15.395  0.3912 -0.1244  0.0342
14419TIP3    H164672   5.667   0.846  15.490  0.5406 -0.2869  0.0374
14419TIP3    H264673   5.626   0.930  15.371 -0.2564 -0.4364  0.1982
14420TIP3   OH264674   4.031   5.902   3.500  0.1672  0.1230 -0.1157
14420TIP3    H164675   3.970   5.888   3.573  1.1015  0.4634  0.7552
14420TIP3    H264676   4.074   5.985   3.521  1.3049 -0.3739 -0.4343
14421TIP3   OH264677   1.851   4.750  14.383 -0.0359 -0.2762 -0.2028
14421TIP3    H164678   1.806   4.831  14.406  0.9253  0.4726 -0.9194
14421TIP3    H264679   1.781   4.685  14.377 -0.8952  0.6322 -0.2361
14422TIP3   OH264680   5.337   1.699   2.077 -0.0485  0.1842  0.1182
14422TIP3    H164681   5.360   1.628   2.017  0.4480  0.6252 -0.2180
14422TIP3    H264682   5.419   1.718   2.124  0.5139  2.3157 -1.6578
14423TIP3   OH264683   4.601   3.613   1.813 -0.3439  0.5589  0.3325
14423TIP3    H164684   4.621   3.678   1.880  0.2969  0.2360  0.4512
14423TIP3    H264685   4.679   3.559   1.807 -0.2369  0.8307 -0.9627
14424TIP3   OH264686   1.632   5.175  15.013 -0.3174  0.3273  0.3762
14424TIP3    H164687   1.555   5.123  15.038 -0.5162  1.2785  1.7865
14424TIP3    H264688   1.704   5.140  15.065  0.3013 -0.8045 -1.2159
14425TIP3   OH264689   5.671   2.093   2.442  0.0142 -0.2686 -0.0043
14425TIP3    H164690   5.750   2.038   2.439 -0.8691 -1.6172  0.6522
14425TIP3    H264691   5.696   2.173   2.397  1.2032 -1.3988 -1.4135
14426TIP3   OH264692   1.101   1.990   1.907 -0.6896 -0.7354  0.2175
14426TIP3    H164693   1.016   2.002   1.864 -0.4618  0.1944  0.0225
14426TIP3    H264694   1.162   1.971   1.835 -0.1723  1.5229  0.0429
14427TIP3   OH264695   6.356   6.439  17.057  0.3083 -0.3005 -0.3296
14427TIP3    H164696   6.363   6.434  16.961  2.5387 -1.2396 -0.1516
14427TIP3    H264697   6.357   6.533  17.075 -0.2264 -0.1121 -1.2333
14428TIP3   OH264698   1.896   1.385  14.671  0.2739 -0.1276  0.1545
14428TIP3    H164699   1.967   1.346  14.722 -0.0022  0.7601  1.2475
14428TIP3    H264700   1.861   1.454  14.728 -0.3972  0.5217 -1.0246
14429TIP3   OH264701   5.917   5.432  11.387 -0.0048  0.3965 -0.1514
14429TIP3    H164702   5.936   5.400  11.476 -0.9342  1.9097  0.5991
14429TIP3    H264703   5.882   5.520  11.400 -2.1015 -0.1519 -1.8879
14430TIP3   OH264704   5.141   1.021  14.892  0.3480  0.2126  0.7003
14430TIP3    H164705   5.124   0.999  14.800 -0.8349  2.7863  0.2703
14430TIP3    H264706   5.060   0.996  14.938  0.6542 -0.3687  0.9285
14431TIP3   OH264707   5.552   0.270  15.099 -0.7099 -0.5275 -0.1410
14431TIP3    H164708   5.553   0.186  15.053 -1.6896  0.1386 -1.3832
14431TIP3    H264709   5.620   0.322  15.056  1.1885 -1.2995  1.8352
14432TIP3   OH264710   2.410   4.907  15.150  0.2205  0.1531  0.2152
14432TIP3    H164711   2.375   4.822  15.177 -2.2734  1.5275  1.5297
14432TIP3    H264712   2.465   4.888  15.074 -2.1394 -2.3398 -0.9436
14433TIP3   OH264713   4.960   3.537  13.380 -0.7664 -0.0313 -0.2237
14433TIP3    H164714   4.973   3.594  13.455 -0.9358 -0.6711  0.2906
14433TIP3    H264715   5.038   3.551  13.325  0.0962 -0.6851  0.7981
14434TIP3   OH264716   1.403   0.441  14.264  0.2418 -0.1210  0.4400
14434TIP3    H164717   1.467   0.500  14.223 -1.6067  1.5778 -0.0935
14434TIP3    H264718   1.377   0.487  14.344  1.5520 -2.0017  2.0054
14435TIP3   OH264719   6.469   4.681  15.171  0.1822 -0.2081 -0.1019
14435TIP3    H164720   6.481   4.597  15.127 -1.2212 -0.7511  0.4887
14435TIP3    H264721   6.382   4.710  15.145  0.4058  0.7652  0.1971
14436TIP3   OH264722   5.074   0.219  13.557  0.3591 -0.1717  0.0895
14436TIP3    H164723   5.153   0.180  13.594  2.1408  2.7194 -0.5698
14436TIP3    H264724   5.022   0.246  13.634 -0.1162 -2.2025  0.5190
14437TIP3   OH264725   2.098   5.890   2.781  0.5709 -0.0293  0.5750
14437TIP3    H164726   2.029   5.953   2.762  0.8750 -0.2012 -1.1681
14437TIP3    H264727   2.075   5.855   2.867 -0.7445  0.9284  0.6284
14438TIP3   OH264728   4.783   4.532  12.147  0.1902 -0.1604  0.4866
14438TIP3    H164729   4.750   4.617  12.174  0.8899  0.9103 -1.9375
14438TIP3    H264730   4.723   4.502  12.079  0.0311 -1.5487  1.2125
14439TIP3   OH264731   1.654   0.955  11.712  0.2097  0.4394 -0.1212
14439TIP3    H164732   1.710   0.903  11.654  1.3558  0.7588  0.7012
14439TIP3    H264733   1.698   0.952  11.797 -1.1249  0.5189  0.5872
14440TIP3   OH264734   4.477   1.452  14.389  0.0127  0.1725  0.0971
14440TIP3    H164735   4.536   1.448  14.314 -2.0502 -0.7611 -1.5291
14440TIP3    H264736   4.475   1.544  14.414  0.4123  0.5471 -1.2475
14441TIP3   OH264737   2.588   1.244  16.969  0.0429 -0.0056 -0.2262
14441TIP3    H164738   2.664   1.248  17.027 -0.6467 -2.7615  0.9387
14441TIP3    H264739   2.564   1.151  16.967 -1.4746  0.3878 -2.9552
14442TIP3   OH264740   3.514   2.641  14.164  0.2946 -0.4124 -0.0799
14442TIP3    H164741   3.571   2.668  14.236 -0.5927  1.3652 -0.0199
14442TIP3    H264742   3.574   2.626  14.091  0.8999  1.0142  0.1051
14443TIP3   OH264743   3.128   3.546  14.572  0.3019  0.4275  0.2945
14443TIP3    H164744   3.100   3.512  14.487  4.1308 -1.0017 -0.5114
14443TIP3    H264745   3.138   3.640  14.557  0.5511  0.2465 -0.7416
14444TIP3   OH264746   1.593   0.690  11.891  0.2713 -0.6157  0.4612
14444TIP3    H164747   1.581   0.678  11.796 -2.1023  0.5707  0.5934
14444TIP3    H264748   1.686   0.710  11.900  0.7890 -1.9057 -1.4948
14445TIP3   OH264749   1.397   5.013  13.685 -0.5862  0.1159 -0.0102
14445TIP3    H164750   1.405   5.042  13.594 -0.4506  0.1947  0.0277
14445TIP3    H264751   1.447   5.077  13.736  0.2210 -0.5212  0.0084
14446TIP3   OH264752   2.657   1.203   2.110  0.3669  0.1754 -0.2528
14446TIP3    H164753   2.627   1.267   2.175 -0.5310 -0.1870 -0.2988
14446TIP3    H264754   2.599   1.128   2.123  0.0445  0.1806 -1.6293
14447TIP3   OH264755   1.839   4.271  12.266  0.6191 -0.0684  0.1994
14447TIP3    H164756   1.902   4.199  12.265 -0.6928 -1.2287 -0.0356
14447TIP3    H264757   1.778   4.250  12.195  2.2188  3.0876 -2.2362
14448TIP3   OH264758   3.922   4.551   1.317  0.0882 -0.4613  0.3740
14448TIP3    H164759   3.921   4.520   1.407  0.0921 -0.2661  0.4414
14448TIP3    H264760   3.836   4.526   1.281  0.2952 -1.0204  0.2675
14449TIP3   OH264761   5.214   1.717   0.876  0.1854  0.3666 -0.4425
14449TIP3    H164762   5.188   1.740   0.965 -0.6852  2.0813 -1.0945
14449TIP3    H264763   5.305   1.745   0.869 -0.2981  2.0025 -0.6277
14450TIP3   OH264764   0.287   6.666  16.068 -0.0687 -0.1821  0.5786
14450TIP3    H164765   0.341   6.677  16.147  0.3058  0.8818  0.1787
14450TIP3    H264766   0.204   6.708  16.089 -0.1093 -0.2475  0.5503
14451TIP3   OH264767   4.166   2.180  16.336  0.0780  0.1594 -0.5454
14451TIP3    H164768   4.249   2.218  16.364 -0.2581 -0.6323  1.5686
14451TIP3    H264769   4.100   2.244  16.361  0.0251  0.8430 -2.3329
14452TIP3   OH264770   2.978   3.848  13.485 -0.1143  0.0560 -0.2917
14452TIP3    H164771   3.063   3.890  13.469 -0.4724  1.5932  1.6772
14452TIP3    H264772   2.945   3.828  13.397  1.6348  0.7510 -1.1331
14453TIP3   OH264773   2.833   3.414   2.394 -0.3424  0.2529  0.0755
14453TIP3    H164774   2.804   3.436   2.305  2.0826  0.3043 -0.7371
14453TIP3    H264775   2.763   3.447   2.451 -0.6806  2.6766 -1.6493
14454TIP3   OH264776   6.365   6.120   3.746 -0.3547  0.9739  0.0888
14454TIP3    H164777   6.285   6.149   3.789 -1.1857  4.3273 -3.4522
14454TIP3    H264778   6.342   6.035   3.709 -0.9742  0.0907  2.3915
14455TIP3   OH264779   6.585   5.202   2.592  0.8828 -0.4654 -0.0469
14455TIP3    H164780   6.503   5.207   2.641  1.3858 -0.2837  0.7863
14455TIP3    H264781   6.653   5.213   2.658  1.6251 -1.9384 -0.5517
14456TIP3   OH264782   1.187   6.081  15.929 -0.2335  0.3146 -0.1089
14456TIP3    H164783   1.226   6.062  15.843  0.7340  0.7808  0.2236
14456TIP3    H264784   1.224   6.016  15.987 -0.6990  0.1588  0.0189
14457TIP3   OH264785   0.231   5.499  17.154 -0.0832 -0.1828 -0.1138
14457TIP3    H164786   0.156   5.508  17.095  0.3023 -1.1505 -0.7585
14457TIP3    H264787   0.303   5.543  17.109  0.2310 -0.9897 -0.3998
14458TIP3   OH264788   4.141   0.806   5.723 -0.0924  0.0996  0.8485
14458TIP3    H164789   4.157   0.738   5.657 -0.6090 -0.3111  1.1391
14458TIP3    H264790   4.200   0.877   5.699  0.5149 -0.4828  0.5813
14459TIP3   OH264791   3.813   4.276   6.146 -0.0125 -0.0038  0.2951
14459TIP3    H164792   3.854   4.278   6.060 -2.6892 -0.7379 -1.0393
14459TIP3    H264793   3.839   4.358   6.188 -0.3651  1.3176 -2.0289
14460TIP3   OH264794   5.772   5.222   3.929  0.5055 -0.2767 -0.3602
14460TIP3    H164795   5.741   5.312   3.926  2.7860  0.5404  0.3460
14460TIP3    H264796   5.805   5.211   4.018 -2.6175 -2.8173  0.6087
14461TIP3   OH264797   3.050   3.919  16.431  0.0164  0.5982  0.4301
14461TIP3    H164798   3.092   3.854  16.375 -1.9914  2.0158 -2.8856
14461TIP3    H264799   2.967   3.878  16.456 -0.0256  0.7770  0.5806
14462TIP3   OH264800   1.276   5.585   0.075  0.0380 -0.1237  0.1395
14462TIP3    H164801   1.340   5.534   0.025  1.1203  1.0872  0.2517
14462TIP3    H264802   1.212   5.613   0.010  1.0605  0.8540 -0.4671
14463TIP3   OH264803   5.109   1.885  14.096 -0.2396  0.5595 -0.4161
14463TIP3    H164804   5.046   1.924  14.035 -1.6048 -1.3351 -0.2520
14463TIP3    H264805   5.058   1.871  14.176  0.3964 -0.9209 -0.2600
14464TIP3   OH264806   6.428   0.724  11.092 -0.0145 -0.4333  0.5500
14464TIP3    H164807   6.466   0.706  11.006  0.8169 -0.9452  1.0176
14464TIP3    H264808   6.362   0.792  11.076 -0.0194 -0.6882 -0.5202
14465TIP3   OH264809   2.383   0.181  11.625 -0.6254 -0.1252  0.3228
14465TIP3    H164810   2.387   0.197  11.531  0.5965  1.4530  0.6404
14465TIP3    H264811   2.299   0.218  11.652 -1.7381 -2.0378 -0.3938
14466TIP3   OH264812   1.729   3.744  13.226 -0.0645  0.1713  0.4686
14466TIP3    H164813   1.640   3.768  13.253 -0.0346  0.1404  0.5934
14466TIP3    H264814   1.776   3.730  13.308  0.2696  0.9597  0.4148
14467TIP3   OH264815   2.487   1.396  14.305  0.5504 -0.2935 -0.4244
14467TIP3    H164816   2.511   1.304  14.300  0.6006 -0.1917 -2.4564
14467TIP3    H264817   2.397   1.399  14.273  0.2010  0.2368  0.5922
14468TIP3   OH264818   2.250   5.503   3.362  0.6319  0.1828 -0.0935
14468TIP3    H164819   2.274   5.517   3.454 -0.1660 -0.9090  0.2896
14468TIP3    H264820   2.193   5.426   3.363  2.6110 -1.3510 -1.8110
14469TIP3   OH264821   1.970   5.021   3.460 -0.0336 -0.0779 -0.1499
14469TIP3    H164822   1.924   5.098   3.494  0.8069  1.4317 -2.3481
14469TIP3    H264823   2.003   5.049   3.375  2.3438 -2.1162  0.0732
14470TIP3   OH264824   0.145   0.404  13.333  0.0183  0.0236 -0.2345
14470TIP3    H164825   0.148   0.322  13.382 -1.8073  0.5072  0.7090
14470TIP3    H264826   0.058   0.405  13.293  0.6569  0.7077 -1.6501
14471TIP3   OH264827   3.405   2.645  10.678 -0.0418 -0.3306 -0.3903
14471TIP3    H164828   3.389   2.739  10.688 -0.8907 -0.6705  1.8719
14471TIP3    H264829   3.334   2.614  10.620 -0.9069  0.1119  0.4188
14472TIP3   OH264830   2.468   1.324   4.928 -0.0231 -0.8254 -0.0566
14472TIP3    H164831   2.465   1.267   4.851 -0.3721 -0.5603 -0.2436
14472TIP3    H264832   2.557   1.357   4.930  0.0398 -0.9843 -0.2384
14473TIP3   OH264833   5.016   6.056   3.217  0.1032  0.9765  0.2611
14473TIP3    H164834   5.055   6.028   3.134 -0.1234  0.6893  0.2489
14473TIP3    H264835   4.966   5.980   3.246 -2.3621  2.1040 -0.8834
14474TIP3   OH264836   4.187   1.611  17.159 -0.1013  0.1605 -0.1286
14474TIP3    H164837   4.253   1.583  17.096 -0.5001 -0.9342 -0.0739
14474TIP3    H264838   4.110   1.558  17.138 -0.5598  0.5219  0.6191
14475TIP3   OH264839   6.539   3.571   2.581 -0.0115  0.1618 -0.1012
14475TIP3    H164840   6.598   3.644   2.562 -0.3827  0.0470 -1.7612
14475TIP3    H264841   6.467   3.611   2.631  0.9276  0.4944  0.9894
14476TIP3   OH264842   4.094   2.566   3.339  0.3587  0.3008 -0.0871
14476TIP3    H164843   4.114   2.596   3.250  0.2023 -2.8893 -1.2539
14476TIP3    H264844   4.119   2.474   3.340 -1.9598 -0.3850  2.4488
14477TIP3   OH264845   5.793   1.611  16.878  0.2164  0.9502  0.2877
14477TIP3    H164846   5.724   1.677  16.869 -0.5335  0.2976  1.1055
14477TIP3    H264847   5.868   1.658  16.914  0.3865  1.7791 -1.1214
14478TIP3   OH264848   1.192   3.955  17.075  0.2539 -0.0712  0.0270
14478TIP3    H164849   1.127   3.920  17.014  0.4854 -0.4078 -0.0278
14478TIP3    H264850   1.195   3.890  17.146 -1.0257  0.9948  1.0949
14479TIP3   OH264851   5.078   4.653  12.709  0.5017 -0.1458 -0.1990
14479TIP3    H164852   5.106   4.564  12.689  2.6660  0.9842 -2.3724
14479TIP3    H264853   5.134   4.680  12.781  0.5018 -0.2098 -0.1740
14480TIP3   OH264854   6.038   6.333   4.559  0.4800  0.1767  0.5769
14480TIP3    H164855   6.002   6.245   4.553  2.6810 -0.7000 -0.2077
14480TIP3    H264856   6.105   6.327   4.627  0.3038  1.3627  0.8601
14481TIP3   OH264857   1.212   4.743  15.037 -0.5494 -0.6416 -0.3346
14481TIP3    H164858   1.151   4.699  14.978 -1.2645  0.7939 -0.6768
14481TIP3    H264859   1.232   4.826  14.994 -0.0686 -0.1388  0.8304
14482TIP3   OH264860   5.259   6.218  11.274  0.3616 -0.1756 -0.1460
14482TIP3    H164861   5.273   6.173  11.191  1.0284  1.0881 -0.7387
14482TIP3    H264862   5.343   6.212  11.319  0.6372  0.9921 -0.4923
14483TIP3   OH264863   5.807   4.397  12.362  0.1351 -0.0090 -0.0493
14483TIP3    H164864   5.839   4.362  12.279  2.3476  1.6379  0.0522
14483TIP3    H264865   5.742   4.462  12.338 -0.5903 -0.8530 -0.4022
14484TIP3   OH264866   1.690   3.438  16.366 -0.2093 -0.1758 -0.2761
14484TIP3    H164867   1.722   3.446  16.456  0.8109  0.8583 -0.7167
14484TIP3    H264868   1.770   3.443  16.313 -0.9436  0.7082 -1.3048
14485TIP3   OH264869   0.913   1.143   3.087 -0.4984  0.2602  0.2978
14485TIP3    H164870   0.995   1.102   3.116 -1.0164  0.0355  1.4985
14485TIP3    H264871   0.873   1.078   3.029  0.4007  0.5728 -0.6878
14486TIP3   OH264872   5.929   2.517   0.990  0.9797  0.2407 -0.0013
14486TIP3    H164873   5.930   2.421   0.994 -0.3088  0.1933 -0.6382
14486TIP3    H264874   5.845   2.541   1.030  2.5880  1.2594  2.9071
14487TIP3   OH264875   5.395   5.946   3.867  0.1252 -0.2606  0.6022
14487TIP3    H164876   5.345   5.893   3.806 -0.1626 -1.0011  1.4647
14487TIP3    H264877   5.369   6.037   3.848 -0.9455 -0.5791  0.5079
14488TIP3   OH264878   1.857   4.220   3.169  0.3811  0.0150  0.6956
14488TIP3    H164879   1.787   4.158   3.193  2.3465 -1.9393  1.5618
14488TIP3    H264880   1.913   4.170   3.110  0.4998  1.9241 -0.8706
14489TIP3   OH264881   3.491   4.156  15.024 -0.4083  0.0662  0.2650
14489TIP3    H164882   3.584   4.164  15.042 -0.1830  2.2095 -1.6471
14489TIP3    H264883   3.448   4.181  15.106  0.6841  0.7845  0.6229
14490TIP3   OH264884   6.507   6.245  11.398  0.3819  0.7713  0.3321
14490TIP3    H164885   6.481   6.316  11.339  0.3034  0.1744 -0.3691
14490TIP3    H264886   6.425   6.216  11.438  0.4782  1.3898  0.9818
14491TIP3   OH264887   0.030   4.677   4.246  0.4301 -0.1336  0.1827
14491TIP3    H164888  -0.018   4.597   4.224 -2.2329  1.4959 -0.1396
14491TIP3    H264889   0.083   4.654   4.322 -0.9035 -1.9818  0.5716
14492TIP3   OH264890   4.047   0.798   0.277 -0.4437 -0.0515  0.5357
14492TIP3    H164891   4.094   0.831   0.200  2.2197  1.0643  2.5817
14492TIP3    H264892   4.091   0.716   0.299 -1.1708 -0.3455  0.9148
14493TIP3   OH264893   6.147   1.910   6.093  0.2279 -0.3653 -0.3535
14493TIP3    H164894   6.215   1.923   6.026  2.8300 -0.6874  2.1099
14493TIP3    H264895   6.166   1.823   6.129 -2.2603 -0.9530 -0.4068
14494TIP3   OH264896   6.132   0.588  11.310  0.6272 -0.0547 -0.0574
14494TIP3    H164897   6.062   0.539  11.352  1.3078 -0.3144  0.7979
14494TIP3    H264898   6.121   0.571  11.216  2.5851 -4.2958  0.3354
14495TIP3   OH264899   0.091   4.484  15.175 -0.2594 -0.0896 -0.1580
14495TIP3    H164900   0.084   4.465  15.269  1.0907  1.5230  0.2888
14495TIP3    H264901   0.185   4.494  15.160 -0.6508  2.6800 -1.0588
14496TIP3   OH264902   2.739   3.900   0.070 -0.0909 -0.0036 -0.6034
14496TIP3    H164903   2.654   3.944   0.068  1.2856  2.7507 -0.4066
14496TIP3    H264904   2.792   3.946   0.005  2.8254  1.7318  2.8455
14497TIP3   OH264905   6.290   3.914  12.321  0.2278 -0.0350  0.0084
14497TIP3    H164906   6.273   3.889  12.231 -0.7606 -0.4448  0.2999
14497TIP3    H264907   6.210   3.958  12.349  0.6114  0.2847  0.6123
14498TIP3   OH264908   6.645   2.535  15.100 -0.2153 -0.4877  0.2645
14498TIP3    H164909   6.691   2.505  15.179 -0.2387 -1.7313 -0.1854
14498TIP3    H264910   6.687   2.617  15.077  0.8924 -0.9451  0.6315
14499TIP3   OH264911   1.320   2.982   4.445  0.1805 -0.0099  0.2146
14499TIP3    H164912   1.349   2.918   4.379  0.5007  1.3584 -0.9980
14499TIP3    H264913   1.395   3.042   4.454 -0.8026  1.2702 -0.0358
14500TIP3   OH264914   5.260   5.287   4.679 -0.2292 -0.0369  0.1093
14500TIP3    H164915   5.180   5.242   4.706  0.3207 -0.5490  0.9089
14500TIP3    H264916   5.325   5.262   4.745 -0.2521  3.0716  1.4072
14501TIP3   OH264917   4.626   2.997   2.251 -0.5442  0.3110  0.0964
14501TIP3    H164918   4.599   2.930   2.314  1.3053 -2.0831 -1.5715
14501TIP3    H264919   4.719   3.011   2.270 -0.5179  1.2025 -0.6781
14502TIP3   OH264920   4.945   3.745   2.823 -0.6119  0.1921 -0.1904
14502TIP3    H164921   5.014   3.697   2.869 -1.7217 -0.5594  0.7148
14502TIP3    H264922   4.956   3.720   2.731 -0.0577 -0.3817  0.0303
14503TIP3   OH264923   3.502   0.178   2.379  0.2782  0.0208 -0.2164
14503TIP3    H164924   3.481   0.107   2.318 -0.3539  1.1581 -1.3575
14503TIP3    H264925   3.594   0.163   2.403  0.1677 -1.1398 -0.4902
14504TIP3   OH264926   4.909   5.545  11.206  0.1774  0.0467 -0.2072
14504TIP3    H164927   4.957   5.467  11.234  0.6663 -0.0023 -1.1691
14504TIP3    H264928   4.873   5.521  11.121  0.5172  0.9436 -0.6058
14505TIP3   OH264929   3.628   3.885  16.208  0.3809 -0.3211 -0.2098
14505TIP3    H164930   3.646   3.886  16.114 -1.1532 -1.2007 -0.5250
14505TIP3    H264931   3.680   3.812  16.241  0.1451 -0.6411 -0.5437
14506TIP3   OH264932   4.674   5.838  14.816 -0.9029  0.1329 -0.2353
14506TIP3    H164933   4.670   5.804  14.906 -1.5281  1.2326  0.1549
14506TIP3    H264934   4.760   5.809  14.784 -1.3672 -1.7175  0.1162
14507TIP3   OH264935   1.230   3.128  13.639  0.0523  0.1254  0.2382
14507TIP3    H164936   1.151   3.126  13.693 -0.2449  1.9016 -0.0913
14507TIP3    H264937   1.208   3.186  13.566  2.0697  1.7888  0.8618
14508TIP3   OH264938   1.598   2.675   1.255  0.0580 -0.2065  0.3803
14508TIP3    H164939   1.587   2.606   1.320  2.8279 -1.3816 -0.3016
14508TIP3    H264940   1.660   2.736   1.295 -1.2193  1.0850  0.3781
14509TIP3   OH264941   5.376   0.181   0.949 -0.2858 -0.0902  0.2600
14509TIP3    H164942   5.470   0.177   0.967 -0.6147 -0.7344  1.9587
14509TIP3    H264943   5.368   0.244   0.878  1.4443 -0.1265  0.0053
14510TIP3   OH264944   5.458   1.305  16.137  0.5910  0.1898  0.7074
14510TIP3    H164945   5.529   1.243  16.156 -0.4183  0.0545  4.4102
14510TIP3    H264946   5.503   1.387  16.115  1.9052 -0.8924 -0.6877
14511TIP3   OH264947   2.768   0.832   6.171 -0.4150 -0.4863  0.7602
14511TIP3    H164948   2.774   0.891   6.246  0.5156 -0.8808  1.0089
14511TIP3    H264949   2.843   0.772   6.182  0.6662  0.4341 -1.3076
14512TIP3   OH264950   0.627   2.063  14.202 -0.7017 -0.0187 -0.2287
14512TIP3    H164951   0.716   2.038  14.226 -0.8079  0.6393  0.8681
14512TIP3    H264952   0.614   2.148  14.244 -1.4295  0.4512 -1.3749
14513TIP3   OH264953   0.316   6.062   4.353 -0.1006  0.1206  0.2563
14513TIP3    H164954   0.295   6.058   4.446  1.0654 -0.0063  0.5257
14513TIP3    H264955   0.232   6.079   4.310 -0.4977  1.1114  1.3947
14514TIP3   OH264956   5.053   5.726  11.799  0.4400  0.6931  0.2186
14514TIP3    H164957   5.052   5.814  11.836  1.3974  0.5730  0.5215
14514TIP3    H264958   5.122   5.679  11.847 -0.4309 -0.3925  0.4501
14515TIP3   OH264959   5.951   4.650  15.841  0.0890 -0.5747  0.1937
14515TIP3    H164960   6.040   4.659  15.875  0.1027 -2.1141  0.6068
14515TIP3    H264961   5.957   4.580  15.776 -0.7322 -0.3724 -0.1067
14516TIP3   OH264962   4.994   4.873  13.625  0.1857  0.1500 -0.0831
14516TIP3    H164963   5.077   4.883  13.578  0.5638 -0.5375  0.4256
14516TIP3    H264964   4.943   4.950  13.601  1.0462  0.6704 -0.2467
14517TIP3   OH264965   0.997   0.460   0.862  0.4419  0.0044  0.5447
14517TIP3    H164966   0.952   0.525   0.916  2.1463  1.2548  0.5132
14517TIP3    H264967   1.021   0.507   0.782  1.7003 -0.6332  0.5247
14518TIP3   OH264968   2.894   0.901   2.333  0.6371  0.1436  0.1850
14518TIP3    H164969   2.879   0.809   2.313  0.2881  0.6656 -2.1032
14518TIP3    H264970   2.970   0.900   2.392 -0.4455 -1.6898  1.6099
14519TIP3   OH264971   5.550   3.406  11.669  0.3445  0.2447 -0.3375
14519TIP3    H164972   5.497   3.425  11.746  0.9555  0.3010  0.0734
14519TIP3    H264973   5.498   3.344  11.619 -0.8537  1.5925 -0.7840
14520TIP3   OH264974   0.429   2.676   4.781  0.6040 -0.3114  0.0247
14520TIP3    H164975   0.501   2.615   4.767 -0.9247 -1.9840 -0.8101
14520TIP3    H264976   0.402   2.662   4.871  0.0690 -1.1081 -0.2507
14521TIP3   OH264977   2.618   5.290   1.591  0.7225  0.7108 -0.8050
14521TIP3    H164978   2.580   5.204   1.575 -0.9888  1.4539 -0.8094
14521TIP3    H264979   2.670   5.307   1.513 -0.4286  0.4684 -1.6425
14522TIP3   OH264980   6.501   0.276  15.359  0.3800  0.2816 -0.5420
14522TIP3    H164981   6.468   0.191  15.386  0.4750  0.0279 -1.2141
14522TIP3    H264982   6.498   0.274  15.263  1.7006  0.5103 -0.5969
14523TIP3   OH264983   1.010   4.107  14.948  0.6019  0.2100 -0.2180
14523TIP3    H164984   1.100   4.122  14.918  0.9154  0.0075  0.6342
14523TIP3    H264985   0.977   4.037  14.891  0.5318  1.1752 -1.4066
14524TIP3   OH264986   4.297   2.478   2.325  0.1964 -0.0100  0.3105
14524TIP3    H164987   4.209   2.501   2.356 -0.1640  0.8273 -1.2675
14524TIP3    H264988   4.325   2.555   2.275  1.6995 -0.3996  0.5402
14525TIP3   OH264989   4.361   1.421   2.740  0.7025 -0.1689  0.1591
14525TIP3    H164990   4.288   1.482   2.744 -0.2527 -1.2248 -0.9419
14525TIP3    H264991   4.417   1.447   2.813 -0.8128  0.5929  1.0873
14526TIP3   OH264992   6.752   0.916  10.930  0.2951  0.0046 -0.2591
14526TIP3    H164993   6.712   1.003  10.927  1.9694  0.9888  2.7777
14526TIP3    H264994   6.830   0.924  10.875  0.5044  0.4989  0.0979
14527TIP3   OH264995   5.360   5.175   4.429 -0.4635  0.1711 -0.3348
14527TIP3    H164996   5.314   5.228   4.494 -0.4803 -1.1873  0.7831
14527TIP3    H264997   5.291   5.147   4.368 -0.7690 -0.0914  0.1253
14528TIP3   OH264998   6.168   3.250   1.554  0.7127  0.0903  0.3856
14528TIP3    H164999   6.255   3.282   1.578  0.7655 -0.4922  1.0044
14528TIP3    H265000   6.118   3.254   1.635  0.2790  0.0507  0.1196
14529TIP3   OH265001   0.360   2.824   4.544  0.1646 -0.1093 -0.4568
14529TIP3    H165002   0.297   2.768   4.499  0.0711  0.8734 -1.5810
14529TIP3    H265003   0.376   2.781   4.627 -1.4438 -0.7563 -0.4718
14530TIP3   OH265004   2.775   3.644   2.883 -0.5364  0.1216  0.0860
14530TIP3    H165005   2.783   3.637   2.978  0.2148  0.8429  0.0899
14530TIP3    H265006   2.834   3.576   2.849 -1.5443 -0.7904  0.1263
14531TIP3   OH265007   2.175   2.716   3.823  0.0787 -0.4627 -0.7664
14531TIP3    H165008   2.096   2.749   3.865  1.0748 -0.5119  1.2480
14531TIP3    H265009   2.209   2.651   3.885  2.0852  0.1209 -1.2158
14532TIP3   OH265010   4.787   5.947   5.487  0.4023 -0.2667  0.1293
14532TIP3    H165011   4.842   5.933   5.410  0.4404  1.5024 -0.1998
14532TIP3    H265012   4.850   5.958   5.559  0.3459 -2.7531  0.5826
14533TIP3   OH265013   6.495   2.460   0.374 -0.5263  0.3182 -0.2623
14533TIP3    H165014   6.429   2.390   0.375 -1.4312  1.1481 -0.7556
14533TIP3    H265015   6.450   2.534   0.333  0.8919  0.7313 -1.0666
14534TIP3   OH265016   2.627   2.945  14.456  0.0438 -0.2112  0.6127
14534TIP3    H165017   2.636   2.896  14.538 -0.1004 -0.4070  0.5134
14534TIP3    H265018   2.572   2.889  14.401 -1.8110  0.9499  1.2307
14535TIP3   OH265019   4.603   5.015   6.263 -0.5459 -0.2075 -0.7405
14535TIP3    H165020   4.639   4.961   6.333 -2.4902  0.5609  0.9449
14535TIP3    H265021   4.600   4.958   6.187  1.1572 -1.2212 -0.0756
14536TIP3   OH265022   5.055   4.812  16.523 -0.0701 -0.4562 -0.0389
14536TIP3    H165023   4.998   4.843  16.594 -0.7136 -1.3598 -0.1454
14536TIP3    H265024   5.006   4.741  16.483  0.1354  0.2914 -1.6455
14537TIP3   OH265025   3.358   6.746  13.911  0.2745 -0.5358  0.0257
14537TIP3    H165026   3.300   6.821  13.925 -0.4312 -0.9152 -0.8264
14537TIP3    H265027   3.327   6.707  13.829  0.5475 -1.8241  0.5253
14538TIP3   OH265028   4.175   0.904  13.868  0.5182  0.1458 -0.0337
14538TIP3    H165029   4.192   0.959  13.792 -1.1554  0.4288 -0.2342
14538TIP3    H265030   4.084   0.874  13.856  0.4769 -0.4050  1.4746
14539TIP3   OH265031   2.077   5.935  15.408  0.5990  0.2161 -0.2946
14539TIP3    H165032   2.035   5.951  15.324 -2.0456 -2.4925  0.4104
14539TIP3    H265033   2.133   5.858  15.392 -0.3449 -0.6517  0.5301
14540TIP3   OH265034   3.509   4.427  16.631  0.0993  0.4378  0.0806
14540TIP3    H165035   3.500   4.517  16.602  0.5218  0.5523  0.2970
14540TIP3    H265036   3.428   4.384  16.602 -0.2935  0.9848  0.3624
14541TIP3   OH265037   5.475   6.303  12.199 -0.1214 -0.7749 -0.0088
14541TIP3    H165038   5.554   6.329  12.245 -0.3281 -0.7898  0.3572
14541TIP3    H265039   5.503   6.286  12.109 -0.0971  1.3833 -0.4302
14542TIP3   OH265040   0.040   1.675  11.600  0.2464  0.0375  0.2533
14542TIP3    H165041   0.129   1.711  11.602  0.3650 -0.1967 -0.7215
14542TIP3    H265042   0.034   1.624  11.680  1.1296 -0.2711  0.1309
14543TIP3   OH265043   0.367   1.039  14.512 -0.5373  0.5778 -0.0089
14543TIP3    H165044   0.439   1.072  14.459 -0.2120  0.2130  0.1999
14543TIP3    H265045   0.321   0.978  14.455 -0.7493  0.8960 -0.1801
14544TIP3   OH265046   0.705   1.868   0.001  0.1228  0.0455 -0.2746
14544TIP3    H165047   0.684   1.866   0.094 -0.6608  0.2059 -0.4373
14544TIP3    H265048   0.619   1.860  -0.042  0.6185 -1.7191 -0.9787
14545TIP3   OH265049   5.188   4.979  15.132 -0.7410  0.1139  0.4964
14545TIP3    H165050   5.158   5.028  15.055  1.0256  0.5759  0.0710
14545TIP3    H265051   5.281   4.964  15.116 -0.4053 -0.0274  2.4163
14546TIP3   OH265052   2.219   2.048  14.309  0.4676  0.1834  0.0068
14546TIP3    H165053   2.134   2.051  14.265  0.2894  3.2222  0.4289
14546TIP3    H265054   2.282   2.028  14.239 -0.0764  2.6872 -1.2731
14547TIP3   OH265055   1.093   6.676  13.875  0.4083 -0.6751  0.3109
14547TIP3    H165056   1.140   6.734  13.936  1.8808  0.3315 -1.7447
14547TIP3    H265057   1.161   6.628  13.829 -0.6257 -0.3989 -1.5624
14548TIP3   OH265058   1.294   6.124  14.106  0.2908 -0.3345 -0.0352
14548TIP3    H165059   1.256   6.043  14.138 -1.3151  0.1762 -0.6116
14548TIP3    H265060   1.375   6.098  14.062 -0.1093 -1.5796 -0.0312
14549TIP3   OH265061   4.096   5.227   0.558 -0.0582 -0.2217 -0.6043
14549TIP3    H165062   4.191   5.216   0.568  0.1342  2.2328  0.6661
14549TIP3    H265063   4.058   5.178   0.632  0.1984 -1.3521 -1.2154
14550TIP3   OH265064   1.897   2.212   3.008  0.0431  0.8146 -0.4575
14550TIP3    H165065   1.914   2.306   3.004 -0.3742  0.9075 -0.0838
14550TIP3    H265066   1.983   2.171   2.994  0.1579  1.2459 -0.9906
14551TIP3   OH265067   0.276   3.875   1.528 -0.0194 -0.0552 -0.0606
14551TIP3    H165068   0.283   3.901   1.620  1.4365 -4.6958  1.2954
14551TIP3    H265069   0.367   3.866   1.499 -0.4750 -0.5943 -1.3800
14552TIP3   OH265070   1.279   5.347   5.782 -0.1136  0.2353 -0.3130
14552TIP3    H165071   1.248   5.401   5.710 -0.8518 -0.3430 -0.4302
14552TIP3    H265072   1.235   5.382   5.860  1.1497  1.2538 -0.0313
14553TIP3   OH265073   6.735   6.757   4.368  0.3014 -0.0740 -0.1468
14553TIP3    H165074   6.722   6.848   4.397 -2.2723 -0.7253  0.9561
14553TIP3    H265075   6.717   6.759   4.274  1.8284  0.8342 -0.4311
14554TIP3   OH265076   2.495   1.213  13.077 -0.0508  0.2388 -0.1574
14554TIP3    H165077   2.459   1.285  13.025 -0.3959 -1.4719 -2.3882
14554TIP3    H265078   2.508   1.142  13.013  1.6136 -1.1990  1.7078
14555TIP3   OH265079   4.038   5.593   2.507  0.2464  0.2989 -0.2258
14555TIP3    H165080   3.946   5.613   2.489  0.1787 -0.0401 -0.2556
14555TIP3    H265081   4.037   5.505   2.546  0.6078  0.0386 -0.7900
14556TIP3   OH265082   2.985   6.529  16.156 -0.2438 -0.3007  0.2253
14556TIP3    H165083   2.984   6.582  16.077 -0.3782 -1.4576 -0.5704
14556TIP3    H265084   2.892   6.515  16.177 -0.2117 -0.4663  0.2589
14557TIP3   OH265085   3.693   1.641   4.465 -0.0893  0.3498 -0.0348
14557TIP3    H165086   3.768   1.666   4.518  0.0565  1.3429 -0.6858
14557TIP3    H265087   3.651   1.570   4.513  1.5860 -0.5875  0.0388
14558TIP3   OH265088   2.422   0.158   0.876 -0.1046 -0.5333  0.3080
14558TIP3    H165089   2.335   0.183   0.905 -0.7708 -1.0715 -1.2076
14558TIP3    H265090   2.446   0.084   0.932 -1.1422 -1.2003 -0.1287
14559TIP3   OH265091   2.871   5.593   3.933  0.1653 -0.1201  0.1939
14559TIP3    H165092   2.841   5.541   4.008 -3.2125  1.4355 -0.0142
14559TIP3    H265093   2.826   5.677   3.942  0.6679  0.5407 -2.9034
14560TIP3   OH265094   5.744   3.679   4.980  0.3947  0.1365  0.3262
14560TIP3    H165095   5.691   3.730   5.041 -0.0554 -0.0061  0.0586
14560TIP3    H265096   5.685   3.610   4.949  1.0244 -0.5922  0.7442
14561TIP3   OH265097   1.126   5.182  11.484  0.6973 -0.2590  0.2779
14561TIP3    H165098   1.134   5.199  11.578  2.4710  0.1118  0.0946
14561TIP3    H265099   1.206   5.221  11.447 -0.1785 -0.0568 -1.4216
14562TIP3   OH265100   1.740   6.455   3.762  0.2650  0.4863 -0.3117
14562TIP3    H165101   1.706   6.544   3.749 -2.9140 -0.8075 -1.3773
14562TIP3    H265102   1.796   6.440   3.686  1.9248  2.0489  0.5769
14563TIP3   OH265103   3.208   4.735  13.680  0.4571  0.2309  1.6247
14563TIP3    H165104   3.240   4.700  13.596  0.0575 -1.9253  2.3302
14563TIP3    H265105   3.186   4.826  13.661 -0.3401 -0.4237 -0.8349
14564TIP3   OH265106   6.562   4.067   5.643  0.0003  0.2717  0.1214
14564TIP3    H165107   6.532   4.074   5.553  2.4024  0.3516 -0.7141
14564TIP3    H265108   6.487   4.033   5.692 -1.9952  2.2490 -1.5077
14565TIP3   OH265109   6.346   4.923  13.108 -0.1817 -0.1966  0.5177
14565TIP3    H165110   6.273   4.981  13.130 -0.5252 -0.4796  0.1374
14565TIP3    H265111   6.418   4.954  13.162  0.9790  3.4726 -2.9119
14566TIP3   OH265112   4.878   4.739  15.524 -0.1639 -0.1092  0.3014
14566TIP3    H165113   4.793   4.703  15.550  0.5403 -1.0493  1.3663
14566TIP3    H265114   4.906   4.682  15.453  0.2017 -0.6726  0.8880
14567TIP3   OH265115   1.145   0.369  14.852  0.2294  0.0452  0.6818
14567TIP3    H165116   1.148   0.273  14.853  0.2583  0.0388  0.0615
14567TIP3    H265117   1.155   0.392  14.760  2.5965  0.7198  1.0724
14568TIP3   OH265118   0.105   5.128  15.660  0.3968 -0.6507  0.2254
14568TIP3    H165119   0.188   5.155  15.621  0.6497  0.9725  1.8164
14568TIP3    H265120   0.070   5.208  15.698 -2.2942 -1.1570 -1.0867
14569TIP3   OH265121   5.763   6.636   1.186  0.2323  0.3614  0.1015
14569TIP3    H165122   5.768   6.618   1.092 -0.6549 -1.4847  0.3785
14569TIP3    H265123   5.673   6.665   1.199  0.7577  2.0068  0.1768
14570TIP3   OH265124   2.185   2.083   3.006 -0.0417 -0.3621  0.2643
14570TIP3    H165125   2.259   2.045   3.052  1.6044  1.9113 -0.4433
14570TIP3    H265126   2.174   2.170   3.045 -2.3926 -0.6632  0.3991
14571TIP3   OH265127   2.327   5.188  13.221 -0.1326  0.1255 -0.6783
14571TIP3    H165128   2.259   5.163  13.283 -0.0991 -0.2390 -0.7869
14571TIP3    H265129   2.306   5.138  13.142  0.3061 -0.0507 -0.6840
14572TIP3   OH265130   1.954   2.042   0.173 -0.1100 -0.4570 -0.0690
14572TIP3    H165131   1.981   2.082   0.090 -0.5386 -0.1886 -0.0790
14572TIP3    H265132   2.022   1.976   0.191  0.5310  0.1821 -0.1167
14573TIP3   OH265133   0.216   3.893  11.937 -0.1248 -0.1953 -0.3751
14573TIP3    H165134   0.208   3.866  11.845 -0.6562  0.4841 -0.5324
14573TIP3    H265135   0.134   3.938  11.956  0.4460  0.6513  0.1072
14574TIP3   OH265136   0.308   2.088   1.397 -0.4167 -0.4387  0.2601
14574TIP3    H165137   0.220   2.067   1.427 -0.2187 -1.3195  0.2418
14574TIP3    H265138   0.366   2.046   1.461 -0.0065  1.9070  1.4752
14575TIP3   OH265139   1.411   0.296   5.118  0.0351 -0.2243 -0.2450
14575TIP3    H165140   1.466   0.352   5.172  1.9932 -1.8215 -0.5575
14575TIP3    H265141   1.443   0.308   5.029 -1.3446  0.2337 -0.7062
14576TIP3   OH265142   2.418   4.267   1.317 -0.0566  0.3262  0.7653
14576TIP3    H165143   2.465   4.249   1.399  0.0220 -1.5249  0.3525
14576TIP3    H265144   2.326   4.266   1.342  0.0502  4.2722  1.6361
14577TIP3   OH265145   0.935   5.178   3.310 -0.0772 -0.8292  0.1181
14577TIP3    H165146   0.871   5.144   3.371 -1.0248  0.6795 -0.0152
14577TIP3    H265147   1.016   5.184   3.360 -0.4081 -1.3291  0.7061
14578TIP3   OH265148   0.043   4.291   0.817  0.1383 -0.2659 -0.0874
14578TIP3    H165149   0.106   4.223   0.793 -0.3386 -0.8576  0.3124
14578TIP3    H265150   0.046   4.354   0.745 -0.7800 -1.6626 -1.3780
14579TIP3   OH265151   3.966   5.767  11.894  0.2813  0.5370  0.4115
14579TIP3    H165152   4.031   5.729  11.835 -0.8921 -0.6797 -0.1046
14579TIP3    H265153   3.957   5.702  11.965 -0.0494  0.9049  0.7095
14580TIP3   OH265154   6.180   0.323  12.991 -0.0612  0.0310  0.2281
14580TIP3    H165155   6.262   0.279  13.013 -0.9587 -0.7306  2.1453
14580TIP3    H265156   6.174   0.395  13.053 -1.0672 -0.2180  0.4367
14581TIP3   OH265157   0.228   4.009   1.756  0.1651 -0.4755  0.1640
14581TIP3    H165158   0.227   4.100   1.786  4.0981 -0.4237  0.3630
14581TIP3    H265159   0.260   3.959   1.831 -0.1963 -1.7837 -0.5453
14582TIP3   OH265160   3.013   0.960   5.949  0.4185 -0.4996 -0.4293
14582TIP3    H165161   2.999   0.896   5.880 -0.4861  1.4767 -2.1556
14582TIP3    H265162   3.101   0.942   5.981  1.1879 -0.9464 -2.6846
14583TIP3   OH265163   0.652   5.869  13.898 -0.1436 -0.7520  0.6983
14583TIP3    H165164   0.640   5.785  13.943 -0.1074 -0.9329  0.3695
14583TIP3    H265165   0.572   5.918  13.917 -0.7262 -1.3538 -0.1724
14584TIP3   OH265166   5.836   2.414  10.695  0.5369  0.1912 -0.1182
14584TIP3    H165167   5.906   2.352  10.671 -0.0987 -1.0957  1.2476
14584TIP3    H265168   5.850   2.430  10.788  0.8470  2.3357 -0.5239
14585TIP3   OH265169   3.697   5.637   0.340 -0.0515 -0.3732  0.2118
14585TIP3    H165170   3.752   5.690   0.282  1.4288 -1.2304  0.8001
14585TIP3    H265171   3.698   5.549   0.301  2.3141 -1.3669  2.3754
14586TIP3   OH265172   5.667   1.851  10.908 -0.4191  0.1437  0.4101
14586TIP3    H165173   5.576   1.872  10.927 -0.4828 -0.7822  1.1353
14586TIP3    H265174   5.710   1.937  10.903 -1.2477  0.5692  0.4255
14587TIP3   OH265175   0.990   6.353   3.516 -1.0812  0.5169 -0.0725
14587TIP3    H165176   1.016   6.397   3.597 -0.8210 -1.2034  0.7874
14587TIP3    H265177   1.048   6.390   3.449  0.6084 -0.0762  1.0339
14588TIP3   OH265178   1.774   5.849   5.010  0.4465 -0.1787 -0.4911
14588TIP3    H165179   1.716   5.909   5.057  1.4462  0.6868 -0.3450
14588TIP3    H265180   1.722   5.769   4.999 -0.3427  0.1500  0.7263
14589TIP3   OH265181   4.716   5.475   1.011 -0.5309 -0.1088  0.2260
14589TIP3    H165182   4.763   5.443   0.933 -0.4683  1.7968 -0.5528
14589TIP3    H265183   4.751   5.423   1.083  3.5952  1.9566 -0.1598
14590TIP3   OH265184   1.688   1.040   2.032 -0.0461 -0.0496  0.0218
14590TIP3    H165185   1.595   1.040   2.010  0.1804  0.4402 -0.9523
14590TIP3    H265186   1.719   1.126   2.005  1.0521 -0.8098 -1.2077
14591TIP3   OH265187   5.594   2.663  15.155 -0.2321  0.4385  0.4274
14591TIP3    H165188   5.599   2.755  15.132  0.2997  0.0670 -0.9718
14591TIP3    H265189   5.653   2.654  15.231 -0.5206  1.2930  0.7550
14592TIP3   OH265190   3.382   5.746  14.024 -0.3625 -0.2236  1.0921
14592TIP3    H165191   3.444   5.735  14.096 -2.0045  1.1002  2.7698
14592TIP3    H265192   3.344   5.659  14.011  0.5083 -0.6375  1.2688
14593TIP3   OH265193   2.860   3.776   4.881  0.3502  0.0422  0.0485
14593TIP3    H165194   2.800   3.741   4.947 -0.3869  0.3245 -0.4659
14593TIP3    H265195   2.884   3.699   4.828 -0.8373  0.2024 -0.7415
14594TIP3   OH265196   1.060   5.490  16.592 -0.2243  0.1523 -0.4068
14594TIP3    H165197   0.965   5.501  16.601  0.0171  0.5902  1.7864
14594TIP3    H265198   1.087   5.566  16.540 -0.9678  0.4696 -0.3482
14595TIP3   OH265199   3.321   2.499  15.283  0.3525  0.4278  0.1210
14595TIP3    H165200   3.358   2.490  15.371 -0.4730 -0.9419  0.3491
14595TIP3    H265201   3.365   2.431  15.232  0.2112  0.6588 -0.3067
14596TIP3   OH265202   5.785   6.688   2.986  0.1988 -0.3577 -0.0543
14596TIP3    H165203   5.787   6.639   2.904  0.8331 -0.9371  0.3043
14596TIP3    H265204   5.829   6.631   3.049 -0.1575  0.1459  0.6540
14597TIP3   OH265205   4.835   1.406   4.394 -0.1497 -0.1715  0.1374
14597TIP3    H165206   4.904   1.472   4.389 -0.0536 -0.2210  0.6937
14597TIP3    H265207   4.877   1.325   4.365  0.2486 -0.3589  1.1983
14598TIP3   OH265208   2.439   5.852   1.994  0.6412 -1.0390  0.7730
14598TIP3    H165209   2.459   5.942   1.968  1.5479 -1.0350  1.4737
14598TIP3    H265210   2.466   5.799   1.919  1.0094 -0.8119  0.7409
14599TIP3   OH265211   6.752   1.736  12.003  0.5280 -0.1528 -0.1050
14599TIP3    H165212   6.738   1.655  12.052 -0.5530  0.6042  0.8837
14599TIP3    H265213   6.665   1.761  11.973  0.8304  0.7042 -0.2849
14600TIP3   OH265214   5.777   2.898   6.227  1.1742 -0.0091 -0.3780
14600TIP3    H165215   5.690   2.867   6.253  1.5584 -0.2585  0.6692
14600TIP3    H265216   5.833   2.820   6.233  1.7851  0.4778  0.5394
14601TIP3   OH265217   1.858   2.054  15.538 -0.3468 -0.5235  0.4024
14601TIP3    H165218   1.867   2.146  15.563 -3.3823 -0.1128  0.2025
14601TIP3    H265219   1.916   2.008  15.598  1.7948  1.5591  0.0150
14602TIP3   OH265220   4.859   0.105   2.529  0.3203 -0.2630  0.4793
14602TIP3    H165221   4.841   0.050   2.605  1.0778 -0.5878  0.4376
14602TIP3    H265222   4.887   0.189   2.566  1.3170 -0.6257  0.5828
14603TIP3   OH265223   1.370   3.542  15.066 -0.1246 -0.2089  0.3267
14603TIP3    H165224   1.426   3.467  15.085 -0.4568 -0.3416  0.7793
14603TIP3    H265225   1.318   3.555  15.145 -0.1705  0.4124  0.1978
14604TIP3   OH265226   5.240   4.480   1.920  0.8305 -0.0925 -0.1784
14604TIP3    H165227   5.256   4.507   1.829  1.7810 -0.2264 -0.0619
14604TIP3    H265228   5.253   4.386   1.920 -1.4911 -0.4301 -0.3746
14605TIP3   OH265229   3.684   4.399  12.226 -0.2403  1.1313 -0.2723
14605TIP3    H165230   3.735   4.461  12.279 -0.3229 -0.1489  1.3532
14605TIP3    H265231   3.749   4.358  12.169  0.0880  1.5254 -0.1840
14606TIP3   OH265232   0.098   0.251  12.756 -0.3817  0.1575  0.1480
14606TIP3    H165233   0.065   0.336  12.726 -2.0756  0.4435  2.6945
14606TIP3    H265234   0.092   0.255  12.851  1.0210 -2.2486  0.3741
14607TIP3   OH265235   0.329   2.298  12.353 -0.2215 -0.4343  0.4399
14607TIP3    H165236   0.297   2.376  12.307  1.8320 -0.2180 -0.7022
14607TIP3    H265237   0.386   2.332  12.421 -0.9898 -0.8712  1.3035
14608TIP3   OH265238   6.740   4.429  16.502  0.2120  0.2670 -0.1176
14608TIP3    H165239   6.834   4.442  16.488 -0.5283  2.0694 -4.1792
14608TIP3    H265240   6.722   4.342  16.466  0.3070 -0.0524  0.6002
14609TIP3   OH265241   1.906   3.073   1.346  0.4666 -0.1739 -0.0307
14609TIP3    H165242   1.941   2.985   1.361  1.4954  0.1825 -0.3215
14609TIP3    H265243   1.983   3.129   1.342 -0.1578  0.6613 -0.4040
14610TIP3   OH265244   2.561   3.487   0.799 -0.2187 -0.0368 -0.0521
14610TIP3    H165245   2.635   3.482   0.861  1.1083  0.4399 -1.5600
14610TIP3    H265246   2.535   3.396   0.786  0.4815 -0.2597  0.0632
14611TIP3   OH265247   3.574   5.087   5.148 -0.5920 -0.0637 -0.5862
14611TIP3    H165248   3.523   5.008   5.130 -1.4168  0.7243 -1.7555
14611TIP3    H265249   3.534   5.123   5.228  0.9657 -1.7823  1.0328
14612TIP3   OH265250   0.795   3.403  16.825  0.1236  0.1906 -0.2679
14612TIP3    H165251   0.873   3.458  16.817 -0.1290  0.5046 -0.6177
14612TIP3    H265252   0.727   3.463  16.856 -0.7022  0.5811 -2.7097
14613TIP3   OH265253   2.707   1.220  12.695 -0.4074 -0.2661 -0.1369
14613TIP3    H165254   2.650   1.157  12.740  0.8098 -0.7085  0.8094
14613TIP3    H265255   2.725   1.179  12.610  1.0530 -1.6091  0.7939
14614TIP3   OH265256   0.430   4.629   5.296  0.1754 -0.1089  0.0882
14614TIP3    H165257   0.375   4.666   5.366 -0.0077 -2.1128  1.0202
14614TIP3    H265258   0.517   4.625   5.334  0.7156  1.6827 -0.8903
14615TIP3   OH265259   1.875   6.047  14.257 -0.3600  0.0378  0.2419
14615TIP3    H165260   1.863   5.962  14.214 -1.3343  0.4556 -0.3398
14615TIP3    H265261   1.810   6.104  14.215 -1.2293  0.4985  2.1411
14616TIP3   OH265262   0.808   2.225  16.315  0.5657 -0.2967  0.2042
14616TIP3    H165263   0.724   2.190  16.344  0.2717  0.0069 -0.2763
14616TIP3    H265264   0.831   2.291  16.382  1.1953 -1.4967  1.1924
14617TIP3   OH265265   5.008   6.725   1.207  0.0547 -0.8314 -0.2023
14617TIP3    H165266   4.964   6.758   1.128  1.1236  0.4117 -0.2921
14617TIP3    H265267   5.080   6.786   1.221  0.0061 -1.1716  1.6176
14618TIP3   OH265268   1.311   4.329  13.222 -0.0250  0.1541 -0.2677
14618TIP3    H165269   1.325   4.245  13.179 -0.5640 -1.2938  2.2842
14618TIP3    H265270   1.396   4.352  13.258 -0.2636 -0.1494  0.4962
14619TIP3   OH265271   2.864   2.491   2.258  0.3514 -0.0584  0.0045
14619TIP3    H165272   2.818   2.427   2.311  2.5304 -0.2942  1.6855
14619TIP3    H265273   2.935   2.442   2.217  0.2056  0.6616 -1.1490
14620TIP3   OH265274   6.398   2.091   2.110  0.7823 -0.1728  0.4622
14620TIP3    H165275   6.422   1.998   2.112  2.0853  0.1731  1.9887
14620TIP3    H265276   6.385   2.110   2.017 -1.3309 -2.3206  0.2407
14621TIP3   OH265277   4.860   0.048   5.310  0.4966  0.3912  0.0263
14621TIP3    H165278   4.955   0.050   5.316  0.5788  0.6763 -1.2366
14621TIP3    H265279   4.838   0.117   5.248 -0.7092  1.9378  2.1036
14622TIP3   OH265280   0.702   1.498  11.481  0.0162  0.0661  0.2945
14622TIP3    H165281   0.648   1.478  11.557  0.1116  2.0833  0.9096
14622TIP3    H265282   0.641   1.502  11.408 -0.4794  0.9970  0.7609
14623TIP3   OH265283   5.655   5.121  10.342  0.0115  0.2815  0.5906
14623TIP3    H165284   5.611   5.192  10.294  1.0202 -0.6547 -1.8130
14623TIP3    H265285   5.586   5.082  10.395 -1.7111 -0.0338 -1.7931
14624TIP3   OH265286   4.083   5.706   1.516 -0.2257  0.9085  0.0618
14624TIP3    H165287   4.177   5.695   1.532 -0.3597  0.2997  0.4631
14624TIP3    H265288   4.053   5.762   1.588 -0.4261 -0.0625  0.7532
14625TIP3   OH265289   2.279   6.364   0.596 -0.0161 -0.2885 -0.1239
14625TIP3    H165290   2.284   6.331   0.506  0.3884  0.8375 -0.5139
14625TIP3    H265291   2.187   6.354   0.620 -0.2038 -0.2193 -0.8018
14626TIP3   OH265292   6.357   4.320  16.194 -0.1882 -0.4140  0.1870
14626TIP3    H165293   6.353   4.415  16.179 -1.5721 -0.4313  0.4214
14626TIP3    H265294   6.267   4.290  16.183  0.5940 -2.0649 -2.1534
14627TIP3   OH265295   6.485   1.180   5.243  0.1324 -0.1510  0.1411
14627TIP3    H165296   6.474   1.129   5.162 -0.0942  0.1944 -0.0448
14627TIP3    H265297   6.496   1.114   5.311  1.5418 -0.4415 -0.3411
14628TIP3   OH265298   5.699   5.485   0.432 -0.3971  0.4416  0.1746
14628TIP3    H165299   5.738   5.440   0.507  0.6042  0.1834 -0.4849
14628TIP3    H265300   5.683   5.415   0.368  1.7286  1.0688 -1.1038
14629TIP3   OH265301   6.133   5.827   5.046  0.2690  0.3586  0.0491
14629TIP3    H165302   6.120   5.833   4.951 -0.0609  0.2961  0.0890
14629TIP3    H265303   6.216   5.780   5.055 -0.1929 -0.5353 -0.2092
14630TIP3   OH265304   4.158   1.998  13.446 -0.6542 -0.0725 -0.1324
14630TIP3    H165305   4.189   1.922  13.497 -2.5864 -2.1887 -2.0037
14630TIP3    H265306   4.127   2.060  13.512 -0.6568 -1.6300  1.3686
14631TIP3   OH265307   3.535   3.907  16.516 -0.4367 -0.4844  0.1567
14631TIP3    H165308   3.573   3.981  16.468 -1.5162 -0.2078 -0.2915
14631TIP3    H265309   3.586   3.831  16.488  0.4112  0.0213  0.3070
14632TIP3   OH265310   2.429   2.047  13.600  0.3766  0.1200 -0.0477
14632TIP3    H165311   2.467   2.082  13.520 -0.6848 -2.6713 -1.8650
14632TIP3    H265312   2.500   1.997  13.641  1.1645  2.2303  1.2532
14633TIP3   OH265313   1.950   2.110   5.558  0.1477  0.0297  0.4220
14633TIP3    H165314   1.946   2.070   5.646  0.2594  0.7405  0.7501
14633TIP3    H265315   1.996   2.045   5.505  1.0913  0.0847  1.1560
14634TIP3   OH265316   4.660   6.726   3.317  0.1879  0.1109  0.1626
14634TIP3    H165317   4.634   6.647   3.363  1.1005 -0.4593 -0.2677
14634TIP3    H265318   4.596   6.791   3.342 -0.3270 -0.6553  0.8642
14635TIP3   OH265319   4.017   5.236  12.367 -0.5279  0.2766 -0.4539
14635TIP3    H165320   4.000   5.285  12.286  0.2274  0.3567 -0.5675
14635TIP3    H265321   3.950   5.167  12.368 -1.4236  1.1399 -0.4274
14636TIP3   OH265322   2.612   2.528  11.375 -0.2069  0.1981 -0.8308
14636TIP3    H165323   2.554   2.599  11.405  0.3582  0.9644 -1.5286
14636TIP3    H265324   2.643   2.558  11.290  2.4457  0.5202  0.2125
14637TIP3   OH265325   5.612   3.736   5.218  0.0365 -0.2103 -0.0710
14637TIP3    H165326   5.571   3.678   5.282  0.7972 -0.1339  0.4932
14637TIP3    H265327   5.636   3.814   5.268  2.0878 -0.8056 -0.1020
14638TIP3   OH265328   6.277   6.244   5.932 -0.0216 -0.1128  0.0887
14638TIP3    H165329   6.315   6.249   5.845 -1.8599 -1.9511 -0.8761
14638TIP3    H265330   6.311   6.162   5.968 -0.2496  0.0257  0.6270
14639TIP3   OH265331   4.436   2.869   6.303  0.3422 -0.2692 -0.2284
14639TIP3    H165332   4.461   2.932   6.371 -0.8001  0.3790 -0.3904
14639TIP3    H265333   4.352   2.833   6.334 -0.6266  0.6826 -1.7150
14640TIP3   OH265334   0.928   3.014  16.379 -0.3194 -0.1381  0.2122
14640TIP3    H165335   0.895   2.959  16.308 -0.3023  0.9457 -0.6462
14640TIP3    H265336   1.022   3.022  16.363 -0.0732 -1.0722  1.1743
14641TIP3   OH265337   0.529   6.698   2.880 -0.7493  0.3590 -0.6160
14641TIP3    H165338   0.499   6.730   2.795 -3.0786 -0.7521 -0.2614
14641TIP3    H265339   0.522   6.774   2.938 -2.1554  0.3240 -0.7269
14642TIP3   OH265340   0.476   1.397  12.578 -0.6081  0.2351 -0.0989
14642TIP3    H165341   0.459   1.330  12.512  2.5862 -1.3713  0.5987
14642TIP3    H265342   0.494   1.476  12.527  1.4495 -0.8977 -1.1944
14643TIP3   OH265343   3.586   3.241  15.762  0.3546 -0.3087  0.0640
14643TIP3    H165344   3.603   3.224  15.670  2.3359 -0.4893  0.4369
14643TIP3    H265345   3.666   3.282  15.794  0.3018 -1.6696  2.0472
14644TIP3   OH265346   2.365   0.428  17.067  0.1298  0.3599  0.4956
14644TIP3    H165347   2.332   0.401  16.981 -0.1174 -1.0348  1.0133
14644TIP3    H265348   2.336   0.518  17.077 -0.0235  0.4606 -0.7959
14645TIP3   OH265349   6.472   0.213  16.147 -0.2838  0.2349 -0.2348
14645TIP3    H165350   6.440   0.292  16.189  0.6406  1.0440 -1.0313
14645TIP3    H265351   6.532   0.175  16.211 -0.2556  0.5041 -0.1007
14646TIP3   OH265352   1.832   0.223  12.951  0.1826  0.1871 -0.1446
14646TIP3    H165353   1.818   0.178  12.868 -1.3786  0.4565 -0.0362
14646TIP3    H265354   1.902   0.286  12.932  0.2608 -0.1734 -1.0790
14647TIP3   OH265355   2.682   2.929  15.608 -0.1295  0.2127  0.9307
14647TIP3    H165356   2.733   3.009  15.608  2.1164 -1.1666  0.8048
14647TIP3    H265357   2.680   2.901  15.700  1.0377 -0.7391  0.6889
14648TIP3   OH265358   6.031   3.883   4.136 -0.0714 -0.4343 -0.5305
14648TIP3    H165359   6.005   3.823   4.205 -1.2498 -0.2259 -0.7667
14648TIP3    H265360   6.119   3.856   4.111  0.4663 -0.3648  1.1986
14649TIP3   OH265361   3.213   4.953  15.109 -0.3426  0.3916  0.7805
14649TIP3    H165362   3.189   5.023  15.170 -3.6885 -1.6600  1.9524
14649TIP3    H265363   3.251   4.885  15.164  0.2183  0.0836  0.0279
14650TIP3   OH265364   5.678   1.137  14.803 -0.0604 -0.1555 -0.3365
14650TIP3    H165365   5.670   1.112  14.896 -0.1950 -0.2407 -0.3704
14650TIP3    H265366   5.595   1.109  14.764 -1.0620  2.1908  0.0554
14651TIP3   OH265367   3.553   4.552  13.279 -0.0958 -0.5335  0.2000
14651TIP3    H165368   3.542   4.481  13.215  1.1992 -0.4490 -0.1159
14651TIP3    H265369   3.465   4.566  13.314 -0.6907 -1.0713 -1.0486
14652TIP3   OH265370   0.153   1.569   0.705 -0.4619  0.1470 -0.1732
14652TIP3    H165371   0.076   1.528   0.744 -0.8028  0.9244 -0.0220
14652TIP3    H265372   0.210   1.589   0.779 -0.6918  0.7611 -0.1621
14653TIP3   OH265373   6.183   2.000   4.180  0.9971  0.6305  0.0551
14653TIP3    H165374   6.204   2.065   4.112  0.4453  0.4583 -0.2817
14653TIP3    H265375   6.266   1.983   4.223  1.0760  1.9101  0.4529
14654TIP3   OH265376   1.757   2.021   0.787 -0.1858 -0.3608 -0.5647
14654TIP3    H165377   1.685   2.084   0.794  1.5920  1.7348 -0.3554
14654TIP3    H265378   1.827   2.059   0.840  1.3881 -1.8846 -1.4850
14655TIP3   OH265379   2.945   6.463  14.000 -0.5461  0.2671 -0.4201
14655TIP3    H165380   3.024   6.470  14.054 -1.2829 -1.5846  0.9473
14655TIP3    H265381   2.892   6.539  14.025  1.2291  2.1530 -2.1519
14656TIP3   OH265382   3.650   2.864   0.969 -0.6059 -0.1815 -0.0664
14656TIP3    H165383   3.652   2.874   0.874  1.2815  1.6537  0.1554
14656TIP3    H265384   3.722   2.804   0.988  0.4132  1.1702  0.3906
14657TIP3   OH265385   4.438   1.150   2.683 -0.4739  0.2796  0.3028
14657TIP3    H165386   4.479   1.133   2.599 -0.2516 -0.6381  0.5925
14657TIP3    H265387   4.433   1.246   2.689  0.6809  0.3740 -0.1817
14658TIP3   OH265388   2.884   2.117  17.195 -0.2466  0.0641  0.1349
14658TIP3    H165389   2.895   2.211  17.205 -0.7490  0.0292  1.0660
14658TIP3    H265390   2.953   2.079  17.251 -0.6788 -0.1184  0.5466
14659TIP3   OH265391   6.564   3.282   2.201 -0.0735 -0.2499  0.5197
14659TIP3    H165392   6.637   3.224   2.223  1.5452  1.3045 -0.5380
14659TIP3    H265393   6.606   3.357   2.157 -2.0972  1.6701  1.7515
14660TIP3   OH265394   0.650   0.882   4.755 -0.4083  0.6626  0.0891
14660TIP3    H165395   0.712   0.840   4.815 -0.7152 -0.1752 -0.1710
14660TIP3    H265396   0.674   0.848   4.669 -1.2894  0.2424  0.0011
14661TIP3   OH265397   1.457   2.154  13.832  0.2765 -0.7730 -0.0078
14661TIP3    H165398   1.548   2.142  13.859  0.6424  0.7519 -0.5161
14661TIP3    H265399   1.450   2.106  13.749  0.8009 -0.2876 -0.3297
14662TIP3   OH265400   0.128   6.623   5.056 -0.0487 -0.3199  0.3944
14662TIP3    H165401   0.188   6.682   5.012 -0.1881  0.9717  1.8798
14662TIP3    H265402   0.088   6.572   4.986  2.1763 -0.6466 -0.6653
14663TIP3   OH265403   3.279   2.138  15.312 -0.2478 -0.3044  0.7628
14663TIP3    H165404   3.285   2.096  15.398 -3.8454 -0.7896  0.8518
14663TIP3    H265405   3.282   2.232  15.331  0.6016 -0.4162  1.2369
14664TIP3   OH265406   5.057   2.879   0.839 -0.0094  0.4949 -0.3695
14664TIP3    H165407   5.024   2.870   0.750 -0.6466 -1.2643  0.0268
14664TIP3    H265408   5.073   2.973   0.849 -0.1510  0.7355 -2.2463
14665TIP3   OH265409   3.320   5.377  14.204  0.1605 -0.6546 -0.4186
14665TIP3    H165410   3.343   5.290  14.237 -1.3279 -0.9500 -0.0847
14665TIP3    H265411   3.300   5.428  14.283 -1.8781 -0.8931 -0.7593
14666TIP3   OH265412   5.804   0.910  16.866 -0.4625  0.4319  0.2952
14666TIP3    H165413   5.814   0.894  16.960 -0.5330  1.5731  0.5036
14666TIP3    H265414   5.757   0.993  16.861 -2.6380 -0.8337 -0.7428
14667TIP3   OH265415   2.251   6.226  15.379 -0.1026  0.1248 -0.3355
14667TIP3    H165416   2.228   6.180  15.298 -0.4436 -0.5140  0.1182
14667TIP3    H265417   2.346   6.224  15.382 -0.1243 -0.8258 -0.1685
14668TIP3   OH265418   1.725   3.280  13.595 -0.3027 -0.6677 -0.4144
14668TIP3    H165419   1.646   3.316  13.553  0.8129 -1.8517 -3.6713
14668TIP3    H265420   1.767   3.356  13.635 -2.2501  0.2550 -0.0452
14669TIP3   OH265421   0.309   5.703  12.412  0.1345  0.3707 -0.4514
14669TIP3    H165422   0.290   5.664  12.327  0.7161 -1.6187  0.2961
14669TIP3    H265423   0.399   5.735  12.405  0.3804 -0.2978 -0.4237
14670TIP3   OH265424   3.558   4.139  16.324  0.4793 -0.5624  0.0771
14670TIP3    H165425   3.473   4.096  16.334 -0.4322  0.9725 -0.8011
14670TIP3    H265426   3.602   4.090  16.255  0.2810 -1.3270  0.4875
14671TIP3   OH265427   0.069   3.589   5.579  0.1801 -0.2209  1.3091
14671TIP3    H165428   0.143   3.598   5.519 -0.7165 -0.0501  0.2103
14671TIP3    H265429   0.102   3.621   5.663  1.3823 -0.2481  0.8635
14672TIP3   OH265430   4.804   3.794   3.954 -0.2532 -0.1427 -0.2741
14672TIP3    H165431   4.729   3.749   3.915 -1.5552  1.3257  0.5070
14672TIP3    H265432   4.877   3.733   3.941 -1.8102 -2.1428  0.0569
14673TIP3   OH265433   2.074   5.910   3.896 -0.3757 -0.8049  0.0076
14673TIP3    H165434   2.089   5.823   3.933  1.1688 -0.6254 -0.1408
14673TIP3    H265435   1.981   5.913   3.878 -0.7708 -1.7613  1.7328
14674TIP3   OH265436   3.996   5.138   0.072 -0.4507  0.0763  0.1714
14674TIP3    H165437   4.005   5.049   0.039 -1.4546  0.3916 -0.9557
14674TIP3    H265438   4.085   5.175   0.065 -0.4549 -0.1597 -1.3250
14675TIP3   OH265439   5.200   2.132   1.798  0.6899 -0.1505 -0.0850
14675TIP3    H165440   5.217   2.085   1.716  0.1405  0.7727 -0.7466
14675TIP3    H265441   5.280   2.122   1.849  0.6321 -1.6648 -0.2835
14676TIP3   OH265442   6.725   5.935  12.763 -0.6613 -0.1042 -0.6861
14676TIP3    H165443   6.757   5.955  12.851  0.2543  0.6833 -1.1893
14676TIP3    H265444   6.726   5.839  12.758 -1.5363 -0.1935  0.4452
14677TIP3   OH265445   0.814   3.952  13.230 -0.2914 -0.4349  0.0499
14677TIP3    H165446   0.808   3.896  13.153 -4.4961  1.4998 -1.2053
14677TIP3    H265447   0.907   3.974  13.236  0.2258 -0.8419 -4.3810
14678TIP3   OH265448   1.531   3.036  13.435  0.0850 -0.1738 -0.2657
14678TIP3    H165449   1.585   3.115  13.441  0.4208 -0.3402 -0.9903
14678TIP3    H265450   1.518   3.008  13.526  1.5707 -0.3669 -0.1069
14679TIP3   OH265451   6.705   3.525   6.499 -0.6041 -0.6370 -0.2109
14679TIP3    H165452   6.655   3.540   6.579 -0.1309  0.3321 -0.0942
14679TIP3    H265453   6.646   3.554   6.429  0.5139  2.4236  0.0445
14680TIP3   OH265454   2.808   0.124  17.207  0.3495 -0.0044  0.4870
14680TIP3    H165455   2.815   0.068  17.284  1.4184 -0.8690 -0.2386
14680TIP3    H265456   2.807   0.064  17.133 -1.3615  0.7890 -0.1624
14681TIP3   OH265457   5.084   4.610   3.659 -0.1420  0.4223  0.0107
14681TIP3    H165458   5.045   4.532   3.698 -1.3123  0.2168 -1.5595
14681TIP3    H265459   5.103   4.667   3.734 -0.4253 -0.8278  1.0553
14682TIP3   OH265460   6.731   4.199   2.067  0.2154  0.9132  0.2538
14682TIP3    H165461   6.655   4.141   2.060 -0.6240  2.0747 -0.3337
14682TIP3    H265462   6.720   4.262   1.996  1.0832  1.8496  0.9419
14683TIP3   OH265463   3.300   6.103   2.578 -0.1103 -0.3177  0.2230
14683TIP3    H165464   3.370   6.165   2.599  0.7099 -0.5622 -1.6403
14683TIP3    H265465   3.322   6.072   2.490 -1.2492 -2.2360  0.5921
14684TIP3   OH265466   1.324   4.315   5.087 -0.0598 -0.0110 -0.0219
14684TIP3    H165467   1.309   4.225   5.059 -0.2603 -0.5050  1.6119
14684TIP3    H265468   1.244   4.361   5.065 -0.8656 -0.7737  1.2495
14685TIP3   OH265469   2.558   5.975   2.375  0.4943 -0.4311 -0.1081
14685TIP3    H165470   2.560   6.070   2.382  0.0780 -0.3342 -1.2197
14685TIP3    H265471   2.648   5.948   2.396  0.1769  0.0600  1.9824
14686TIP3   OH265472   4.105   0.051  14.585  0.4109 -0.9997 -1.2450
14686TIP3    H165473   4.177   0.009  14.632  0.6344 -1.2118 -1.7620
14686TIP3    H265474   4.148   0.094  14.511  0.2152  0.3624 -0.5736
14687TIP3   OH265475   4.848   1.345   5.492  0.6165  0.1256  0.1213
14687TIP3    H165476   4.932   1.300   5.484  0.5875  0.5556 -3.4228
14687TIP3    H265477   4.871   1.435   5.514  1.0936  0.2192 -0.7360
14688TIP3   OH265478   1.556   4.573  11.739  0.0932 -0.2814 -0.3053
14688TIP3    H165479   1.637   4.522  11.739  0.5859  0.4981  0.4102
14688TIP3    H265480   1.559   4.623  11.658  0.3132 -0.2769 -0.2952
14689TIP3   OH265481   5.122   1.722  12.027  0.2118  0.3575  0.5385
14689TIP3    H165482   5.189   1.680  12.081 -0.7770 -1.0795  0.6763
14689TIP3    H265483   5.153   1.712  11.937 -0.3095 -1.2013  0.5282
14690TIP3   OH265484   6.760   5.386  11.359  0.0439 -0.2495  0.4505
14690TIP3    H165485   6.826   5.377  11.429 -0.1506  0.3397  0.7095
14690TIP3    H265486   6.771   5.306  11.307  0.8580 -0.2376  0.5838
14691TIP3   OH265487   4.502   4.670  11.541  0.2196 -0.2059  0.2016
14691TIP3    H165488   4.577   4.652  11.485 -0.8387 -0.0319 -1.3135
14691TIP3    H265489   4.429   4.681  11.480 -1.2823 -1.6033  1.7031
14692TIP3   OH265490   5.886   1.952  14.107 -0.8670  0.0920 -0.7210
14692TIP3    H165491   5.938   1.874  14.126 -0.7627  0.4514  0.5117
14692TIP3    H265492   5.859   1.984  14.193  0.8874  2.6480 -1.0497
14693TIP3   OH265493   6.126   0.751  14.962 -0.1655  0.2315 -0.1294
14693TIP3    H165494   6.196   0.814  14.947  0.0273 -0.2127 -1.1373
14693TIP3    H265495   6.045   0.801  14.948 -0.0093  0.1903 -1.1604
14694TIP3   OH265496   2.821   1.614   1.160 -0.2755 -0.6361 -0.3167
14694TIP3    H165497   2.872   1.682   1.204  0.2764 -0.0743 -1.7926
14694TIP3    H265498   2.739   1.609   1.210 -0.6243  1.6295 -0.6017
14695TIP3   OH265499   3.352   0.362   0.195 -0.3805  0.2089  0.0120
14695TIP3    H165500   3.314   0.279   0.223 -0.7599  0.6510  0.8204
14695TIP3    H265501   3.314   0.378   0.108 -0.3967 -0.3977 -0.0967
14696TIP3   OH265502   5.425   2.667   1.196  0.4593 -0.5886  0.0616
14696TIP3    H165503   5.391   2.580   1.218 -1.6534 -0.0315 -0.9085
14696TIP3    H265504   5.370   2.697   1.124  2.5674  0.6728 -1.0679
14697TIP3   OH265505   5.533   4.010  11.332 -0.3295  0.2516  0.0907
14697TIP3    H165506   5.456   4.059  11.360 -1.0781 -0.0726 -1.2982
14697TIP3    H265507   5.606   4.069  11.346 -0.9221  0.8388  0.7599
14698TIP3   OH265508   4.340   0.116   4.648  0.5304 -0.4117 -0.4075
14698TIP3    H165509   4.245   0.104   4.656  0.8313 -2.8882 -0.2287
14698TIP3    H265510   4.358   0.111   4.554  0.4734  0.3080 -0.4631
14699TIP3   OH265511   5.145   2.256  13.305  0.0003 -0.0499 -0.1662
14699TIP3    H165512   5.237   2.249  13.278 -0.0652  1.0818 -0.7363
14699TIP3    H265513   5.124   2.349  13.291 -0.7744  0.0330  1.4161
14700TIP3   OH265514   0.727   2.006   1.125  0.4508 -0.3286 -0.3259
14700TIP3    H165515   0.811   2.000   1.078  0.9190  2.4920  0.0576
14700TIP3    H265516   0.742   2.074   1.191 -1.8792 -0.4483  0.3475
14701TIP3   OH265517   2.112   1.328  10.847  0.7347  0.3785 -0.3445
14701TIP3    H165518   2.079   1.413  10.875  1.3832  0.5086  0.0311
14701TIP3    H265519   2.191   1.349  10.796  1.7801 -0.0850  1.0768
14702TIP3   OH265520   1.530   2.707   6.286 -0.3059 -0.6539 -0.4104
14702TIP3    H165521   1.609   2.668   6.324 -0.8565  0.1050  1.5799
14702TIP3    H265522   1.560   2.791   6.251 -0.3448 -0.0309  1.0052
14703TIP3   OH265523   4.046   3.779  12.011 -0.1656  0.1662 -0.0120
14703TIP3    H165524   4.045   3.713  12.081 -0.1383 -0.4024 -0.5470
14703TIP3    H265525   4.138   3.797  11.996 -0.2102  1.8170  1.5273
14704TIP3   OH265526   1.236   5.182   1.692 -0.2596 -0.0621  0.0246
14704TIP3    H165527   1.211   5.252   1.632 -1.6239  0.2095  0.8990
14704TIP3    H265528   1.294   5.224   1.755  1.2744 -0.3741 -1.1548
14705TIP3   OH265529   0.327   4.709  11.008  0.2178 -0.3166  0.4133
14705TIP3    H165530   0.303   4.713  10.916  1.2251  1.0751  0.2008
14705TIP3    H265531   0.420   4.691  11.009  0.3784  0.4865  1.1396
14706TIP3   OH265532   0.932   4.083   3.830 -0.2418  0.8309  0.7535
14706TIP3    H165533   0.941   4.062   3.737 -1.1864  2.0941  0.3664
14706TIP3    H265534   0.841   4.110   3.840 -1.5715 -3.8971  3.0147
14707TIP3   OH265535   5.866   1.803   5.958  0.0321 -0.0589  0.7990
14707TIP3    H165536   5.892   1.752   6.034  0.4167  1.4980  1.7360
14707TIP3    H265537   5.940   1.796   5.897 -0.0079 -0.7701  0.8285
14708TIP3   OH265538   1.679   3.430   0.450 -0.0724  0.4135  0.8558
14708TIP3    H165539   1.685   3.342   0.487  0.5037  0.2571  0.3933
14708TIP3    H265540   1.609   3.424   0.385 -0.6088  0.5145  1.4155
14709TIP3   OH265541   4.132   4.150  17.103 -0.0777  0.3893  0.6361
14709TIP3    H165542   4.066   4.100  17.150 -0.4739 -3.3669 -3.5961
14709TIP3    H265543   4.082   4.202  17.039  0.8262 -0.3154 -0.6706
14710TIP3   OH265544   3.616   5.135  13.574  0.2287 -0.6263  0.0107
14710TIP3    H165545   3.567   5.161  13.496 -0.7844  0.0787  0.8692
14710TIP3    H265546   3.669   5.212  13.595  0.1253 -0.6350  0.3051
14711TIP3   OH265547   1.771   5.605  16.028  0.2175  0.1838  0.1235
14711TIP3    H165548   1.733   5.690  16.052  0.6010  0.8630 -1.5511
14711TIP3    H265549   1.860   5.608  16.064  0.1343  0.3863  0.3158
14712TIP3   OH265550   2.322   0.935   4.845  0.0450  0.9478  0.1355
14712TIP3    H165551   2.251   0.872   4.853  1.0231 -0.3085 -0.7720
14712TIP3    H265552   2.316   0.989   4.924 -1.4353  0.3838  0.4179
14713TIP3   OH265553   5.845   1.965  12.589  0.5605  0.6506  0.2889
14713TIP3    H165554   5.821   1.894  12.529  1.6487  0.1105  0.4746
14713TIP3    H265555   5.888   2.029  12.534 -0.5108  1.2264  0.1051
14714TIP3   OH265556   1.310   6.725   0.770  0.5203  0.3324 -0.1923
14714TIP3    H165557   1.261   6.662   0.717  0.6953 -0.4714  0.5927
14714TIP3    H265558   1.316   6.803   0.715  0.4755 -0.4052 -1.2617
14715TIP3   OH265559   2.377   0.073   0.636  0.1341  0.5980  0.7073
14715TIP3    H165560   2.429   0.121   0.572  2.1730  0.0169  1.8799
14715TIP3    H265561   2.403   0.111   0.720 -0.2433 -0.6990  1.4212
14716TIP3   OH265562   3.763   3.905   2.755  0.1308  0.4239  0.2596
14716TIP3    H165563   3.701   3.916   2.827 -0.4720 -0.6019 -0.0908
14716TIP3    H265564   3.714   3.931   2.677  0.3565  0.2563  0.0602
14717TIP3   OH265565   3.884   4.047  14.405 -0.5475 -0.7062 -0.0919
14717TIP3    H165566   3.885   4.061  14.310 -1.1778  0.5343  0.0600
14717TIP3    H265567   3.927   4.125  14.441 -0.2565 -1.1982  0.6326
14718TIP3   OH265568   5.259   3.452   5.262 -0.5468 -0.3017 -0.7731
14718TIP3    H165569   5.351   3.425   5.260 -0.9336 -1.5207 -2.9176
14718TIP3    H265570   5.214   3.381   5.309 -0.1242  1.3250  2.2634
14719TIP3   OH265571   2.969   0.416   5.223 -0.6123  0.3694 -0.2036
14719TIP3    H165572   2.926   0.409   5.137 -0.5312 -2.7308 -0.0788
14719TIP3    H265573   3.063   0.417   5.202 -0.6126  0.4292 -0.2008
14720TIP3   OH265574   2.074   6.533   5.590 -0.3657  0.2729 -0.8380
14720TIP3    H165575   2.113   6.612   5.553 -0.6734  0.7582 -0.1406
14720TIP3    H265576   2.005   6.510   5.529 -2.5281  2.4969  0.6357
14721TIP3   OH265577   2.998   1.471  10.189  0.1786  0.3059 -0.2496
14721TIP3    H165578   2.929   1.492  10.127  1.0948  0.3293 -1.2610
14721TIP3    H265579   2.954   1.421  10.258 -0.3661 -1.9527 -2.1879
14722TIP3   OH265580   0.274   4.827  13.466 -0.1663  0.2541 -0.5080
14722TIP3    H165581   0.305   4.760  13.527 -2.7299  0.1237  0.7213
14722TIP3    H265582   0.353   4.875  13.441  1.2260 -1.0577  1.2605
14723TIP3   OH265583   4.446   3.043   4.626 -0.4141 -0.2652 -0.3576
14723TIP3    H165584   4.363   3.002   4.601 -1.9792  2.4355  0.1805
14723TIP3    H265585   4.468   3.100   4.552  0.2963 -0.0260  0.0376
14724TIP3   OH265586   6.103   5.039   4.403 -0.0763 -0.1119  0.6878
14724TIP3    H165587   6.138   5.030   4.491  1.5858 -1.8286 -0.1229
14724TIP3    H265588   6.120   5.130   4.379 -0.8771  0.4701  2.2438
14725TIP3   OH265589   2.693   1.759   3.696  0.3548  0.4606 -0.0050
14725TIP3    H165590   2.698   1.680   3.748  1.4715  0.0116 -0.7705
14725TIP3    H265591   2.767   1.753   3.635 -0.3702  1.4066 -1.0177
14726TIP3   OH265592   0.124   1.699   3.653 -0.5238  0.1793 -0.0561
14726TIP3    H165593   0.218   1.714   3.655 -0.5263  0.2243 -0.2564
14726TIP3    H265594   0.096   1.734   3.569 -0.3792 -1.7941 -0.9576
14727TIP3   OH265595   2.573   6.113  16.384 -0.2112 -0.7755  0.0516
14727TIP3    H165596   2.512   6.060  16.333 -0.3394 -0.1157 -0.4950
14727TIP3    H265597   2.635   6.147  16.319 -0.8404  0.7158  0.2003
14728TIP3   OH265598   4.165   0.411  14.105 -0.2153  0.3735 -0.5531
14728TIP3    H165599   4.109   0.345  14.064  0.7965 -0.9847  0.1838
14728TIP3    H265600   4.117   0.493  14.095 -1.7348 -0.5491 -1.0589
14729TIP3   OH265601   0.104   4.729  12.958  0.1098  0.6388  0.4790
14729TIP3    H165602   0.036   4.662  12.950 -0.8570  1.7560 -0.9322
14729TIP3    H265603   0.141   4.715  13.045  1.5887 -3.2820 -0.6445
14730TIP3   OH265604   5.506   1.274  14.093  0.4561 -0.0570  0.3404
14730TIP3    H165605   5.549   1.349  14.052  1.3938 -0.4200  0.6469
14730TIP3    H265606   5.414   1.283  14.069  1.1030 -0.7068 -2.5495
14731TIP3   OH265607   1.110   3.047   3.350 -0.7294 -0.4034  0.1931
14731TIP3    H165608   1.133   2.959   3.379 -1.5091 -0.4107  0.8176
14731TIP3    H265609   1.031   3.069   3.401 -1.1709  0.2235 -0.7500
14732TIP3   OH265610   2.233   6.177   1.377 -0.6727  0.0791 -0.5316
14732TIP3    H165611   2.275   6.098   1.343  0.6907  0.5430  0.0224
14732TIP3    H265612   2.147   6.179   1.335 -0.1962 -0.9754 -1.5840
14733TIP3   OH265613   6.650   1.358   5.804  0.1174  0.7335  0.5246
14733TIP3    H165614   6.732   1.314   5.780 -1.5933 -0.9251 -2.5999
14733TIP3    H265615   6.654   1.441   5.756  0.7739  1.4712  1.8441
14734TIP3   OH265616   5.882   5.892  16.491 -0.2003 -0.2843 -0.7511
14734TIP3    H165617   5.943   5.876  16.564  0.2343  1.0772 -0.8091
14734TIP3    H265618   5.800   5.914  16.534 -0.4757 -1.4005 -0.6753
14735TIP3   OH265619   1.659   0.170   3.167  0.5210  0.2986  0.0619
14735TIP3    H165620   1.707   0.234   3.218  0.1860  1.5158 -1.1397
14735TIP3    H265621   1.715   0.092   3.168  1.7151  1.1434  0.0904
14736TIP3   OH265622   0.292   4.915   3.672 -0.3101 -0.8202  0.1075
14736TIP3    H165623   0.233   4.888   3.743  1.0826 -2.5243  0.6580
14736TIP3    H265624   0.292   4.842   3.611 -0.2195 -0.0411 -0.8458
14737TIP3   OH265625   5.518   1.819  15.319 -0.3514 -0.1426  0.1092
14737TIP3    H165626   5.485   1.775  15.398  0.7782  0.4287  0.9196
14737TIP3    H265627   5.609   1.792  15.312  0.6403  2.6642  1.1254
14738TIP3   OH265628   0.509   6.458   1.218 -0.2283 -0.6540 -0.2915
14738TIP3    H165629   0.578   6.421   1.164  0.2965 -2.6767  1.6926
14738TIP3    H265630   0.434   6.400   1.204 -0.4419 -0.5112  0.2446
14739TIP3   OH265631   1.687   5.570  12.275  0.2879  0.1459 -0.0295
14739TIP3    H165632   1.700   5.540  12.365 -0.6535 -1.3177 -0.3644
14739TIP3    H265633   1.598   5.606  12.273 -0.3968 -1.5422 -0.8117
14740TIP3   OH265634   3.958   2.772   4.963 -0.5374  0.1893 -0.1618
14740TIP3    H165635   3.941   2.688   5.007 -0.2433  1.0389  1.5962
14740TIP3    H265636   4.047   2.764   4.929 -0.1535  0.1379  0.8419
14741TIP3   OH265637   3.382   6.186   4.751  0.1989  0.1642 -0.1171
14741TIP3    H165638   3.376   6.274   4.714 -1.4553  0.8204  1.6240
14741TIP3    H265639   3.339   6.130   4.686  0.3808  0.7762 -0.7782
14742TIP3   OH265640   4.994   2.404   1.450 -0.3579  0.0641  0.7940
14742TIP3    H165641   4.954   2.428   1.534 -0.4157  1.2404  0.4467
14742TIP3    H265642   4.988   2.484   1.398  1.9300  0.0774  0.5299
14743TIP3   OH265643   3.595   6.684  14.780 -0.0697  0.6593 -0.4479
14743TIP3    H165644   3.639   6.614  14.732 -0.1149  0.7720 -0.6481
14743TIP3    H265645   3.506   6.650  14.795  0.0917  0.4142 -0.0047
14744TIP3   OH265646   4.026   6.020   5.082  0.3702 -0.3544  0.0694
14744TIP3    H165647   3.990   6.058   5.162  0.8699 -1.5591  0.8910
14744TIP3    H265648   4.068   5.939   5.111 -1.4009 -1.9829 -1.7271
14745TIP3   OH265649   3.603   1.617   1.569 -0.0781 -0.1976  0.8758
14745TIP3    H165650   3.664   1.625   1.496  0.3498  1.0312  1.3696
14745TIP3    H265651   3.603   1.523   1.589 -0.2944 -0.5702 -0.7752
14746TIP3   OH265652   6.610   1.999   3.627  0.3047 -0.6563  0.1184
14746TIP3    H165653   6.686   2.053   3.647  0.5297 -0.7272 -0.5258
14746TIP3    H265654   6.539   2.036   3.680  0.6470 -0.2242  0.2740
14747TIP3   OH265655   1.047   4.795   5.540 -0.2552 -0.1078  0.3790
14747TIP3    H165656   1.045   4.700   5.541  0.6762 -0.1350  0.4759
14747TIP3    H265657   0.955   4.822   5.534 -0.6210 -0.9901  1.8630
14748TIP3   OH265658   1.304   4.884  11.544 -0.0630 -0.3860 -0.0886
14748TIP3    H165659   1.325   4.811  11.602 -0.8322 -0.0602  0.6094
14748TIP3    H265660   1.323   4.962  11.595 -1.1214 -0.0937 -0.1280
14749TIP3   OH265661   6.751   3.328   5.659 -0.7608  0.0033 -0.2059
14749TIP3    H165662   6.750   3.418   5.625 -0.5614 -0.3201 -1.0811
14749TIP3    H265663   6.832   3.290   5.625 -1.7582 -1.1024 -1.4358
14750TIP3   OH265664   5.305   4.990   0.428  0.4239  0.3585  0.5232
14750TIP3    H165665   5.385   4.986   0.479 -0.3390  1.4092  1.8334
14750TIP3    H265666   5.265   4.904   0.440  0.6119  0.3519  1.0982
14751TIP3   OH265667   0.952   1.437   5.154 -0.0577 -0.1370 -0.3919
14751TIP3    H165668   1.043   1.451   5.182  0.4399  0.0597 -2.0560
14751TIP3    H265669   0.900   1.482   5.220  0.9836 -1.3840  1.3166
14752TIP3   OH265670   4.725   0.709  12.438  0.1391  0.1707 -0.4112
14752TIP3    H165671   4.630   0.714  12.432 -0.2473 -2.3429  2.4428
14752TIP3    H265672   4.751   0.788  12.485 -0.3731  1.5114 -2.3289
14753TIP3   OH265673   3.010   0.479   3.641 -0.2433  0.0816  0.3453
14753TIP3    H165674   3.101   0.466   3.616  0.2990 -0.2263  2.3506
14753TIP3    H265675   2.993   0.571   3.621 -0.5673 -0.6832 -3.1848
14754TIP3   OH265676   4.629   5.681   0.300 -0.4660  0.2219  0.4222
14754TIP3    H165677   4.560   5.615   0.291 -0.0366 -0.6712  3.1517
14754TIP3    H265678   4.586   5.753   0.346  0.3932 -0.3560  2.1729
14755TIP3   OH265679   1.814   0.142  11.192  0.4767  0.3012  0.1627
14755TIP3    H165680   1.860   0.204  11.249  0.8786 -1.3302  1.6363
14755TIP3    H265681   1.782   0.196  11.120 -0.3651  2.4892  2.1101
14756TIP3   OH265682   2.596   4.698  11.783 -0.2523  0.5023 -0.7227
14756TIP3    H165683   2.566   4.730  11.868  0.2365  0.2998 -0.4687
14756TIP3    H265684   2.663   4.633  11.805  0.0414  0.6235 -1.2654
14757TIP3   OH265685   4.521   0.490   0.904  0.3471  0.3757 -0.0518
14757TIP3    H165686   4.578   0.414   0.914  0.0311  0.1707  0.1841
14757TIP3    H265687   4.564   0.559   0.955  0.3168  0.1859  0.2305
14758TIP3   OH265688   5.392   2.471   3.851  0.0988 -0.6557 -0.0180
14758TIP3    H165689   5.419   2.398   3.796  0.0398 -1.4707  1.0102
14758TIP3    H265690   5.426   2.448   3.938  0.2018  0.6083  0.2787
14759TIP3   OH265691   6.326   1.778   6.369  0.4298 -1.1907  0.7759
14759TIP3    H165692   6.261   1.733   6.314  1.9393 -1.4331 -0.8504
14759TIP3    H265693   6.341   1.718   6.442  0.4328 -2.1250  0.0166
14760TIP3   OH265694   2.665   1.907  12.993  0.0385 -0.1068  0.3844
14760TIP3    H165695   2.660   1.942  12.904 -1.3387  2.7355  1.5438
14760TIP3    H265696   2.577   1.875  13.012  0.7740 -2.4266  0.1082
14761TIP3   OH265697   0.102   0.883  11.511  0.2915  0.4631  0.5580
14761TIP3    H165698   0.124   0.930  11.431 -0.2312 -0.4265 -0.1128
14761TIP3    H265699   0.009   0.864  11.503  0.9377 -2.6538 -0.2428
14762TIP3   OH265700   6.058   3.577   5.976 -0.0084 -0.2981  0.0146
14762TIP3    H165701   6.077   3.484   5.982 -0.9647 -0.6342 -1.8470
14762TIP3    H265702   5.984   3.583   5.916  0.4249  1.7024 -0.3614
14763TIP3   OH265703   6.782   1.460  13.386  0.6051  0.3003 -0.0685
14763TIP3    H165704   6.753   1.369  13.393 -0.0167  0.4660 -0.4437
14763TIP3    H265705   6.789   1.490  13.477 -0.5307  0.2882  0.0339
14764TIP3   OH265706   0.990   3.331   4.940 -0.3358 -0.5166 -0.4468
14764TIP3    H165707   1.008   3.364   5.028 -1.8227 -0.7763 -0.0271
14764TIP3    H265708   1.022   3.399   4.881 -4.4317  2.3190  0.4156
14765TIP3   OH265709   4.661   3.928   4.163  0.2337 -0.1695  0.1686
14765TIP3    H165710   4.704   3.910   4.080  1.9818 -0.0833  1.0475
14765TIP3    H265711   4.677   3.849   4.215  0.2802  0.3261  0.9004
14766TIP3   OH265712   5.301   0.374   1.899  1.2003 -0.3899  0.5459
14766TIP3    H165713   5.364   0.348   1.832 -0.0884 -0.5297 -0.6389
14766TIP3    H265714   5.232   0.419   1.851  0.9536  0.8058  1.9651
14767TIP3   OH265715   6.059   3.478   3.987  0.3057 -0.9837 -0.1386
14767TIP3    H165716   5.972   3.495   4.023 -1.1102 -0.9527 -3.4413
14767TIP3    H265717   6.116   3.541   4.031 -1.6852  0.3092  0.6521
14768TIP3   OH265718   4.125   5.768  15.894 -0.4945  0.0732 -0.1499
14768TIP3    H165719   4.092   5.835  15.954  0.8648 -0.6025  1.4043
14768TIP3    H265720   4.132   5.689  15.948  0.5848 -0.5875 -1.2323
14769TIP3   OH265721   3.850   6.389  14.201  0.5893  0.2711  0.2750
14769TIP3    H165722   3.796   6.456  14.243  0.5280  0.4059 -0.0185
14769TIP3    H265723   3.844   6.313  14.259 -0.0358  0.2354  0.1605
14770TIP3   OH265724   3.375   5.496   6.072  0.7745 -0.2001 -0.5469
14770TIP3    H165725   3.448   5.491   6.011  0.2856 -0.4176 -1.1206
14770TIP3    H265726   3.325   5.572   6.043  1.3170  0.5442  0.4581
14771TIP3   OH265727   1.847   1.892  12.036 -0.4473 -0.2358 -0.8603
14771TIP3    H165728   1.776   1.837  12.003 -1.0311 -0.2168  0.3743
14771TIP3    H265729   1.905   1.831  12.082 -0.5106  0.0122 -0.4572
14772TIP3   OH265730   5.271   5.073  16.838  0.2639  0.3005  0.5776
14772TIP3    H165731   5.245   5.051  16.928  3.0319  0.2965  1.4082
14772TIP3    H265732   5.271   4.989  16.792  1.0750 -0.0296  1.1715
14773TIP3   OH265733   3.708   5.582   2.266  0.2142  0.0179 -0.4522
14773TIP3    H165734   3.768   5.601   2.194 -0.1877  0.5778 -0.6482
14773TIP3    H265735   3.621   5.595   2.228 -0.0413 -0.9834 -0.2296
14774TIP3   OH265736   1.623   0.318   2.278  0.0831  0.5017 -0.2300
14774TIP3    H165737   1.698   0.285   2.228  0.3085  0.4402  0.1445
14774TIP3    H265738   1.661   0.347   2.361 -0.3436  0.2340  0.0603
14775TIP3   OH265739   6.597   1.987   5.246 -0.0838 -0.0237 -0.1263
14775TIP3    H165740   6.506   2.017   5.240 -0.6766 -1.6137  0.5076
14775TIP3    H265741   6.619   1.956   5.159  0.5213  2.1443 -0.7787
14776TIP3   OH265742   3.174   1.739   0.055 -0.2338 -0.3343  0.4247
14776TIP3    H165743   3.082   1.732   0.030  0.1555  1.1885 -1.6088
14776TIP3    H265744   3.219   1.675  -0.000 -0.1710 -1.8217  2.1578
14777TIP3   OH265745   5.887   2.673  13.159 -0.1674 -0.3262 -0.3633
14777TIP3    H165746   5.826   2.746  13.149  1.1717  1.0447  1.1394
14777TIP3    H265747   5.969   2.714  13.187  0.9949 -2.2815 -0.8085
14778TIP3   OH265748   4.006   3.845   0.421  0.3072  0.4116 -0.2081
14778TIP3    H165749   4.044   3.762   0.394  1.4241  0.4899  1.0747
14778TIP3    H265750   3.912   3.828   0.426  0.2481 -0.0696 -2.3973
14779TIP3   OH265751   2.316   0.745  16.163  0.1831  0.6356  0.1217
14779TIP3    H165752   2.323   0.824  16.217 -0.9948  0.6858  0.1939
14779TIP3    H265753   2.272   0.681  16.218  0.9465 -0.0182 -0.0168
14780TIP3   OH265754   4.749   5.608   6.526 -0.3205 -0.0228  0.0300
14780TIP3    H165755   4.667   5.578   6.487  0.1441 -0.1567 -0.8569
14780TIP3    H265756   4.804   5.530   6.530 -0.5831 -0.1400  1.5362
14781TIP3   OH265757   1.333   0.569  12.032  0.4762  0.1797  0.0670
14781TIP3    H165758   1.312   0.534  11.945 -0.8348  2.6255 -0.6499
14781TIP3    H265759   1.416   0.615  12.020  0.0669  0.9022 -0.0000
14782TIP3   OH265760   6.230   1.829  13.930 -0.1511 -0.0082  0.0583
14782TIP3    H165761   6.159   1.848  13.991 -1.9727 -1.6437 -1.4531
14782TIP3    H265762   6.300   1.793  13.984 -1.1439 -0.0054  1.3686
14783TIP3   OH265763   6.275   4.632  11.372  0.4022  0.1101 -0.4249
14783TIP3    H165764   6.316   4.710  11.408  0.3590  0.5273 -1.2737
14783TIP3    H265765   6.328   4.559  11.407  0.1964  0.4844  0.6911
14784TIP3   OH265766   5.483   2.714  13.660  1.0596 -0.0724 -0.1617
14784TIP3    H165767   5.457   2.752  13.575  2.5389  1.1152 -0.1137
14784TIP3    H265768   5.461   2.621  13.653 -0.5362  0.3557 -1.1525
14785TIP3   OH265769   2.154   1.315  13.347 -0.6936 -0.2605 -0.0958
14785TIP3    H165770   2.114   1.352  13.426 -1.1483 -0.3963 -0.2611
14785TIP3    H265771   2.191   1.391  13.301  1.7164 -0.4524  1.4472
14786TIP3   OH265772   6.709   2.287  13.646 -0.1047 -0.7055 -0.2364
14786TIP3    H165773   6.778   2.226  13.671  2.7180  1.5476 -2.2883
14786TIP3    H265774   6.695   2.270  13.552  0.3418  1.4054 -0.7087
14787TIP3   OH265775   2.008   2.153   2.375  0.1175 -0.4664 -0.3609
14787TIP3    H165776   1.948   2.165   2.449 -2.3013 -2.0986 -1.9704
14787TIP3    H265777   2.017   2.240   2.336  0.5814  0.2012  1.2221
14788TIP3   OH265778   3.411   4.518   4.172 -0.0269  0.0575  0.3599
14788TIP3    H165779   3.354   4.484   4.241  1.3524  2.2469  2.6628
14788TIP3    H265780   3.351   4.548   4.103 -1.4682 -1.0118  1.1293
14789TIP3   OH265781   4.668   4.595  16.058  0.1945  0.0009  0.3884
14789TIP3    H165782   4.677   4.599  16.153 -0.1401 -0.0904  0.4251
14789TIP3    H265783   4.605   4.525  16.043  0.3204 -0.0509  0.0950
14790TIP3   OH265784   0.188   5.951  16.189  0.2525  0.4472 -0.3545
14790TIP3    H165785   0.261   6.000  16.227  1.5279 -1.0602 -0.7931
14790TIP3    H265786   0.185   5.869  16.239 -1.6895  0.8484  0.2058
14791TIP3   OH265787   3.902   2.717  15.163  0.4912  0.3499 -0.0507
14791TIP3    H165788   3.981   2.719  15.110  0.1543  0.7245 -0.5517
14791TIP3    H265789   3.913   2.789  15.226  1.5009 -0.9671  1.2992
14792TIP3   OH265790   6.144   3.957   1.027  0.5879  0.9299 -0.2987
14792TIP3    H165791   6.165   4.000   0.944  1.8722  0.1588 -0.3877
14792TIP3    H265792   6.133   3.864   1.003 -0.6319  0.9514  0.1411
14793TIP3   OH265793   2.046   4.473   3.479  0.1823 -0.1563 -0.3339
14793TIP3    H165794   2.072   4.400   3.423  0.4934 -0.0405 -0.3452
14793TIP3    H265795   1.960   4.499   3.447  0.3646 -0.0866 -0.7623
14794TIP3   OH265796   1.015   0.707   3.395 -0.6873  0.0900 -0.5025
14794TIP3    H165797   1.004   0.785   3.340 -0.5814  1.3168  1.1773
14794TIP3    H265798   0.926   0.685   3.423 -0.8507 -1.0906 -1.8696
14795TIP3   OH265799   3.590   1.842  14.862 -0.0665 -0.0198 -0.1463
14795TIP3    H165800   3.604   1.779  14.792  1.4105 -0.2256  0.3258
14795TIP3    H265801   3.576   1.789  14.940  2.4643  0.2060  0.5011
14796TIP3   OH265802   6.625   1.276   1.679  0.3848 -0.3035  0.8105
14796TIP3    H165803   6.688   1.205   1.688  1.1962  0.1179 -1.1641
14796TIP3    H265804   6.540   1.237   1.699  0.9324 -1.6021  0.5981
14797TIP3   OH265805   6.646   2.843   6.024  0.8996  0.3698  0.5949
14797TIP3    H165806   6.601   2.920   5.990  2.1429  0.1852 -1.5977
14797TIP3    H265807   6.577   2.778   6.037 -0.0846  1.6561  1.9737
14798TIP3   OH265808   1.476   1.365   2.576 -0.2701 -0.2393  0.6577
14798TIP3    H165809   1.500   1.397   2.489 -0.2190 -0.5310  0.5635
14798TIP3    H265810   1.423   1.435   2.614  0.9248  0.5119  0.9663
14799TIP3   OH265811   2.986   0.823   0.746  0.8933 -0.0406  0.4186
14799TIP3    H165812   3.002   0.845   0.837  2.0180 -0.3999  0.3166
14799TIP3    H265813   2.928   0.746   0.749 -0.7455  1.1771  0.7904
14800TIP3   OH265814   3.264   2.514  13.963 -0.5720 -0.7021  0.1829
14800TIP3    H165815   3.194   2.565  13.923 -1.4077 -1.6286  0.4465
14800TIP3    H265816   3.344   2.544  13.920 -1.5483 -2.5517 -3.0860
14801TIP3   OH265817   2.076   4.155  16.753 -0.3141  0.0711 -0.4644
14801TIP3    H165818   2.143   4.100  16.714  0.6230  1.4036 -0.7939
14801TIP3    H265819   2.058   4.222  16.687  0.5319  1.7237  0.9317
14802TIP3   OH265820   5.853   6.659  11.652  0.4497 -0.7811 -0.0819
14802TIP3    H165821   5.859   6.731  11.715 -0.9337 -0.1476 -0.6607
14802TIP3    H265822   5.897   6.693  11.573 -0.4966 -0.4373 -0.4666
14803TIP3   OH265823   6.720   4.440   4.181  0.5985 -0.1230  0.2150
14803TIP3    H165824   6.787   4.388   4.226  1.2742  0.3753 -0.2240
14803TIP3    H265825   6.713   4.401   4.094 -0.4536 -0.8556  0.6105
14804TIP3   OH265826   0.608   0.185   5.273 -0.0206 -0.8688 -0.1639
14804TIP3    H165827   0.678   0.248   5.253 -0.9864  0.2682 -0.0304
14804TIP3    H265828   0.626   0.157   5.363 -0.5965  0.5935  0.4233
14805TIP3   OH265829   3.081   0.310   2.186 -0.3149 -0.3029 -0.8752
14805TIP3    H165830   3.082   0.256   2.106  0.4668  1.0226 -1.7844
14805TIP3    H265831   3.046   0.395   2.157 -0.4249  0.0581  0.2945
14806TIP3   OH265832   0.969   2.548   3.209  0.1523 -0.1885 -0.1166
14806TIP3    H165833   0.992   2.463   3.248  3.2447  0.8604  0.4312
14806TIP3    H265834   1.019   2.552   3.128  0.0730  1.1492 -0.1038
14807TIP3   OH265835   5.813   6.266   0.775  0.0709 -0.0347  0.2276
14807TIP3    H165836   5.770   6.352   0.779  0.6951  0.2525  1.0304
14807TIP3    H265837   5.758   6.214   0.717 -1.9343  0.0235  1.9885
14808TIP3   OH265838   6.460   2.281  14.629 -0.1808 -0.1847  0.2416
14808TIP3    H165839   6.518   2.221  14.675 -1.0891 -0.6281  0.8106
14808TIP3    H265840   6.421   2.334  14.698 -0.7968 -0.1869 -0.1025
14809TIP3   OH265841   0.819   4.971  14.120 -0.0350 -0.0460 -0.4213
14809TIP3    H165842   0.879   4.902  14.147 -0.0755  0.2478  0.4571
14809TIP3    H265843   0.765   4.932  14.052 -1.1279 -1.3778  1.1949
14810TIP3   OH265844   3.722   4.999  11.743  0.2905 -0.3713 -0.0443
14810TIP3    H165845   3.711   4.905  11.728  0.4557 -0.5407  0.8964
14810TIP3    H265846   3.686   5.040  11.664  1.6739 -1.2767 -1.1781
14811TIP3   OH265847   6.590   4.576  17.128  0.4204  0.4391 -0.5684
14811TIP3    H165848   6.668   4.548  17.080 -0.3571  2.3384 -3.0377
14811TIP3    H265849   6.532   4.610  17.061 -2.3419 -0.4390  1.3085
14812TIP3   OH265850   3.892   0.778  15.505 -0.3860 -0.3870 -1.0084
14812TIP3    H165851   3.840   0.705  15.539  3.0848 -3.0596 -1.1900
14812TIP3    H265852   3.895   0.763  15.410  1.4658 -0.7975 -0.8922
14813TIP3   OH265853   1.043   0.156  17.026 -0.0248  0.1898 -0.6183
14813TIP3    H165854   0.967   0.183  16.975 -0.4329 -0.2289 -0.2249
14813TIP3    H265855   1.010   0.142  17.115  0.6872  0.9269 -0.2291
14814TIP3   OH265856   0.457   6.321   4.423 -0.4798  0.1166  0.6014
14814TIP3    H165857   0.370   6.285   4.404  0.2746 -0.8299 -1.1490
14814TIP3    H265858   0.515   6.280   4.358  1.1752  1.1703  1.3832
14815TIP3   OH265859   3.067   0.304   0.392  0.1410 -0.2367  0.2783
14815TIP3    H165860   3.144   0.248   0.387  0.8886  0.6178  1.7424
14815TIP3    H265861   3.102   0.392   0.404 -1.0470  0.3231 -0.3100
14816TIP3   OH265862   4.916   1.153  13.286  0.0971  0.4952 -0.4603
14816TIP3    H165863   4.825   1.171  13.263 -0.0097  0.9138  0.2660
14816TIP3    H265864   4.950   1.101  13.213 -1.4183 -1.7222  0.3593
14817TIP3   OH265865   5.967   0.221  13.203  0.4657 -0.9426 -0.1212
14817TIP3    H165866   6.051   0.253  13.238 -1.2598  2.0132  1.5132
14817TIP3    H265867   5.979   0.222  13.108  2.4344 -1.0772  0.0878
14818TIP3   OH265868   1.258   3.984  13.700  0.0020  0.6027 -0.3439
14818TIP3    H165869   1.287   3.980  13.790 -1.1814 -1.6793 -0.0126
14818TIP3    H265870   1.321   4.040  13.656  1.6363  0.2535  1.5050
14819TIP3   OH265871   0.378   0.223   2.454  0.1965  0.7765  0.6139
14819TIP3    H165872   0.463   0.193   2.424 -0.2234 -0.1603  0.3554
14819TIP3    H265873   0.324   0.225   2.375  0.2794  2.4768  0.5658
14820TIP3   OH265874   1.368   2.690   0.149  0.1899  0.3566 -0.2250
14820TIP3    H165875   1.408   2.761   0.200 -0.2327  1.0102 -0.7974
14820TIP3    H265876   1.311   2.645   0.211 -0.1532  1.0143 -0.0541
14821TIP3   OH265877   1.051   3.396   0.873  0.0938  0.2357  0.1387
14821TIP3    H165878   1.125   3.415   0.815  1.4524 -0.3781  1.6423
14821TIP3    H265879   0.988   3.466   0.854  0.7346  0.3537 -1.6819
14822TIP3   OH265880   6.130   6.362  11.561 -0.2809  0.4640  0.3125
14822TIP3    H165881   6.169   6.276  11.546 -0.1802  0.3911  0.9814
14822TIP3    H265882   6.205   6.421  11.572 -0.3047  1.0946 -2.5520
14823TIP3   OH265883   4.073   2.492  16.865 -0.3579 -0.0556 -0.0013
14823TIP3    H165884   4.052   2.443  16.945 -0.1865 -0.2391 -0.0674
14823TIP3    H265885   4.162   2.464  16.843  0.9005  2.5453  1.6282
14824TIP3   OH265886   5.657   5.263  12.455 -0.0149 -0.2701  0.3494
14824TIP3    H165887   5.698   5.330  12.510  0.4277 -0.6804  0.5279
14824TIP3    H265888   5.586   5.228  12.508 -0.6386  0.4860  0.0149
14825TIP3   OH265889   6.026   3.106  12.167 -0.6587 -0.0543 -0.0355
14825TIP3    H165890   5.937   3.076  12.151 -0.2392 -1.2876 -0.0452
14825TIP3    H265891   6.057   3.137  12.082 -1.7965  2.3648  0.3685
14826TIP3   OH265892   2.970   0.224   0.867 -0.6672 -0.6765 -0.6426
14826TIP3    H165893   3.019   0.295   0.825 -2.3225 -0.8643 -2.9858
14826TIP3    H265894   2.880   0.256   0.871 -0.6072 -0.8063  2.5444
14827TIP3   OH265895   4.652   2.310   4.856 -0.1747 -0.2854  0.6487
14827TIP3    H165896   4.559   2.310   4.878 -0.0576  2.0638  1.2840
14827TIP3    H265897   4.697   2.316   4.940  0.4756  0.8164  0.2381
14828TIP3   OH265898   1.994   2.775   5.002 -0.1345  0.5067  0.2049
14828TIP3    H165899   2.055   2.779   5.076  1.3331 -0.6810 -0.9043
14828TIP3    H265900   1.989   2.866   4.971  0.9658  0.6389  0.3986
14829TIP3   OH265901   6.391   0.103   0.975  0.5453  0.2723 -0.2599
14829TIP3    H165902   6.375   0.014   1.005 -0.2703  0.7790  0.8660
14829TIP3    H265903   6.481   0.102   0.942 -0.1284 -1.4340 -2.0995
14830TIP3   OH265904   3.759   5.237   0.851  0.0753  0.3082  0.0250
14830TIP3    H165905   3.838   5.289   0.871  0.2838 -0.2110  0.5366
14830TIP3    H265906   3.710   5.235   0.933  0.5937 -1.2205  0.3059
14831TIP3   OH265907   4.955   4.708  11.849  0.5367 -0.3073 -0.3159
14831TIP3    H165908   4.978   4.615  11.853 -0.0262 -0.4343 -0.0238
14831TIP3    H265909   4.985   4.743  11.933  0.0744 -0.3771 -0.1233
14832TIP3   OH265910   1.133   2.017  17.012 -0.6678  0.0140 -0.8005
14832TIP3    H165911   1.073   2.011  17.086  0.0966  1.0995 -0.0920
14832TIP3    H265912   1.077   2.040  16.938 -1.5381 -1.7825 -0.7167
14833TIP3   OH265913   4.382   1.855  11.614 -0.2048  0.6999 -0.4890
14833TIP3    H165914   4.331   1.877  11.692 -0.5462 -0.0522 -0.5009
14833TIP3    H265915   4.445   1.926  11.606 -1.1637  1.5628 -0.4052
14834TIP3   OH265916   3.339   0.224   1.918  0.1680  0.4560  0.0286
14834TIP3    H165917   3.389   0.164   1.974 -0.5626  1.1653  1.4796
14834TIP3    H265918   3.401   0.295   1.900  0.4503  0.1624 -0.1716
14835TIP3   OH265919   3.416   4.025   5.516  1.0589 -0.7273 -0.3261
14835TIP3    H165920   3.392   3.946   5.466 -1.3358 -0.1552 -0.1619
14835TIP3    H265921   3.458   4.082   5.452  1.6563 -1.6195 -0.7390
14836TIP3   OH265922   3.458   2.428  13.660 -0.0960  0.7414 -0.3646
14836TIP3    H165923   3.427   2.338  13.672  2.1088  0.1763  1.3815
14836TIP3    H265924   3.382   2.475  13.624 -1.6978 -1.4745  0.0153
14837TIP3   OH265925   2.162   2.036  10.272 -0.2739  0.0449 -0.5867
14837TIP3    H165926   2.148   2.122  10.232  0.3961  1.2966  1.7495
14837TIP3    H265927   2.251   2.011  10.247 -0.1015  0.5098 -0.4400
14838TIP3   OH265928   4.138   2.567  12.120 -0.4089 -0.2052  0.1707
14838TIP3    H165929   4.086   2.641  12.089 -0.4752  0.3984  1.6855
14838TIP3    H265930   4.215   2.607  12.159 -0.9010 -0.8788  1.8585
14839TIP3   OH265931   0.054   5.939   4.805  0.1631 -0.0194 -0.3140
14839TIP3    H165932   0.073   5.846   4.802  0.1435 -0.1798  2.9813
14839TIP3    H265933  -0.042   5.944   4.803  0.1711 -0.0249 -0.9046
14840TIP3   OH265934   5.535   1.086  16.508 -0.4495  0.2780 -0.3039
14840TIP3    H165935   5.476   1.157  16.535 -1.5307 -0.5087 -0.5607
14840TIP3    H265936   5.533   1.087  16.412  0.8474  0.9660 -0.3372
14841TIP3   OH265937   4.095   4.127  13.780  0.6152 -0.2584  0.1417
14841TIP3    H165938   4.020   4.186  13.770 -0.4824 -1.5348  0.6393
14841TIP3    H265939   4.168   4.174  13.741 -0.8203  0.3030 -1.9935
14842TIP3   OH265940   2.139   5.924  10.969 -0.3396  0.8926 -0.4802
14842TIP3    H165941   2.177   5.836  10.969 -0.2503  0.8965 -2.3874
14842TIP3    H265942   2.210   5.980  10.940  0.1059  1.8743  2.3851
14843TIP3   OH265943   2.316   2.916   1.594  0.2138 -0.6154  0.3177
14843TIP3    H165944   2.321   2.821   1.589  1.0136 -0.6522  1.4722
14843TIP3    H265945   2.398   2.947   1.557  0.7577 -0.4587  1.6139
14844TIP3   OH265946   0.737   5.589   3.476  0.2666  0.3731 -0.2492
14844TIP3    H165947   0.679   5.530   3.428  0.3102  0.0695  0.0712
14844TIP3    H265948   0.785   5.533   3.537  2.1721  0.3516 -1.7133
14845TIP3   OH265949   2.645   3.662   3.148 -0.3070  1.2384  0.0975
14845TIP3    H165950   2.592   3.706   3.213  0.4712  1.0296  0.8895
14845TIP3    H265951   2.600   3.579   3.132  0.1369  0.7604  1.2714
14846TIP3   OH265952   4.687   3.102   2.841 -0.4411 -0.2075  0.0557
14846TIP3    H165953   4.705   3.045   2.766 -0.5551 -0.3117  0.1078
14846TIP3    H265954   4.740   3.066   2.912 -0.8184 -0.4871  0.1969
14847TIP3   OH265955   2.516   3.759   3.374  0.7223  0.2345 -0.1081
14847TIP3    H165956   2.484   3.850   3.376  2.1029  0.7072  1.3132
14847TIP3    H265957   2.562   3.748   3.457  0.7139 -1.7357 -0.3372
14848TIP3   OH265958   1.891   4.145   0.575  0.6458 -0.2528 -0.0127
14848TIP3    H165959   1.929   4.215   0.522 -0.8565  0.1859 -0.5535
14848TIP3    H265960   1.805   4.180   0.602  0.2604 -1.5347  0.4458
14849TIP3   OH265961   5.158   2.379   3.458  0.1058  0.3143  0.5594
14849TIP3    H165962   5.078   2.383   3.406 -0.4718  0.5206  1.4519
14849TIP3    H265963   5.149   2.299   3.510 -0.8378  1.7914  2.7452
14850TIP3   OH265964   6.045   1.355   5.608 -0.2242  0.1446  0.4925
14850TIP3    H165965   6.093   1.354   5.691  0.5363 -0.2138  0.0500
14850TIP3    H265966   6.104   1.312   5.546  0.0840  2.2166 -0.7119
14851TIP3   OH265967   3.236   2.118   1.923  0.1351 -0.2053  0.3477
14851TIP3    H165968   3.282   2.189   1.967 -1.1101  1.5573 -1.0919
14851TIP3    H265969   3.295   2.091   1.853  0.3617 -0.1577  0.5212
14852TIP3   OH265970   6.758   0.649  10.893 -0.3712 -0.0592 -1.3165
14852TIP3    H165971   6.663   0.650  10.885 -0.6605 -0.9316  1.3675
14852TIP3    H265972   6.781   0.740  10.913 -0.9233 -0.2737  0.3845
14853TIP3   OH265973   2.697   0.249   0.898 -0.0340  0.1603  0.0154
14853TIP3    H165974   2.617   0.197   0.908  0.3742 -0.4776 -0.0636
14853TIP3    H265975   2.665   0.337   0.880 -0.7331  0.0216  0.5170
14854TIP3   OH265976   5.059   5.970   1.364 -0.9382 -0.0369 -0.2498
14854TIP3    H165977   5.004   5.893   1.374 -0.3957 -0.5996 -1.5672
14854TIP3    H265978   4.997   6.043   1.358 -1.4401 -0.3046  1.3624
14855TIP3   OH265979   5.257   2.652   5.618  0.6435  0.2397  0.5780
14855TIP3    H165980   5.232   2.723   5.677 -0.5777  0.7577 -0.5211
14855TIP3    H265981   5.182   2.593   5.618  2.3394 -1.9813  2.8094
14856TIP3   OH265982   2.745   0.052   3.635 -0.3824  0.4290  0.0196
14856TIP3    H165983   2.760   0.147   3.626  0.4527  0.4381  1.3329
14856TIP3    H265984   2.816   0.012   3.586  0.8994  0.4949  1.7605
14857TIP3   OH265985   3.627   2.099  15.014 -0.2229  0.0911 -0.6689
14857TIP3    H165986   3.581   2.172  14.972 -0.8140 -0.0828 -0.3325
14857TIP3    H265987   3.585   2.020  14.979  1.4769 -0.1437 -2.2577
14858TIP3   OH265988   5.566   3.633   4.703  0.3674 -0.0988 -0.1523
14858TIP3    H165989   5.657   3.613   4.722  0.4698 -1.3642 -1.8460
14858TIP3    H265990   5.522   3.548   4.706 -0.7310  0.4733  0.4253
14859TIP3   OH265991   0.812   5.223  11.879 -0.9302 -0.5487 -0.2822
14859TIP3    H165992   0.860   5.180  11.808 -1.0501  1.3161 -1.5305
14859TIP3    H265993   0.747   5.159  11.907 -0.0823 -1.7572 -1.0235
14860TIP3   OH265994   1.128   2.325   3.269 -0.4842 -0.2375 -0.3049
14860TIP3    H165995   1.148   2.349   3.179 -2.0695 -0.1782 -0.6568
14860TIP3    H265996   1.162   2.236   3.279  0.9231  0.2647 -0.5292
14861TIP3   OH265997   5.228   3.501  11.258  0.5777 -0.0219  0.1651
14861TIP3    H165998   5.133   3.490  11.252  0.3591  1.2608  1.0308
14861TIP3    H265999   5.246   3.584  11.213  1.1904  0.0775  0.5785
14862TIP3   OH266000   2.881   6.460  16.543  0.8767  0.7763 -0.0533
14862TIP3    H166001   2.875   6.506  16.627  0.8524  1.6024 -0.5003
14862TIP3    H266002   2.872   6.529  16.478  0.4938  0.0749 -0.7375
14863TIP3   OH266003   1.589   5.624   4.590  0.2758 -0.0687 -0.5101
14863TIP3    H166004   1.625   5.536   4.578  2.7340  0.8647 -0.3129
14863TIP3    H266005   1.598   5.641   4.684 -1.1491  0.0183 -0.3731
14864TIP3   OH266006   5.395   1.722   0.534 -0.5881  0.7132 -0.1463
14864TIP3    H166007   5.335   1.680   0.595 -0.4818 -0.9700 -1.1638
14864TIP3    H266008   5.380   1.816   0.546  1.4166  0.5264  4.4081
14865TIP3   OH266009   0.816   5.701   2.158  0.3955  0.7320  0.0834
14865TIP3    H166010   0.826   5.741   2.244  0.5729  2.6606 -0.8046
14865TIP3    H266011   0.764   5.763   2.108 -0.6754 -0.8865 -0.8806
14866TIP3   OH266012   4.444   0.811   2.553 -0.1152  0.3102  0.0476
14866TIP3    H166013   4.472   0.894   2.592 -0.3586  0.0074  0.8830
14866TIP3    H266014   4.511   0.792   2.487  1.1317  0.0914  1.3403
14867TIP3   OH266015   3.541   4.250   2.409 -0.4678  0.0200 -0.0977
14867TIP3    H166016   3.470   4.308   2.382  0.1809  0.9137  0.1125
14867TIP3    H266017   3.617   4.279   2.359  0.2583  0.4070  1.2078
14868TIP3   OH266018   5.826   1.210   6.421  0.1078 -0.5346 -0.6883
14868TIP3    H166019   5.825   1.178   6.511 -1.2189 -1.0591 -0.8665
14868TIP3    H266020   5.907   1.177   6.384  1.8294  1.6381  0.9844
14869TIP3   OH266021   0.344   2.594   4.300  0.1281 -0.3077 -0.4762
14869TIP3    H166022   0.439   2.611   4.302  0.4342 -1.8974 -0.9407
14869TIP3    H266023   0.309   2.663   4.244  0.7781  1.3365  1.0752
14870TIP3   OH266024   2.622   4.607   4.932  0.8455  0.0354 -0.1966
14870TIP3    H166025   2.581   4.578   5.014  0.6294 -0.7726 -0.5810
14870TIP3    H266026   2.598   4.699   4.924 -0.1083 -0.1803  0.0710
14871TIP3   OH266027   4.830   6.065  16.676 -0.4027  0.1977  0.1005
14871TIP3    H166028   4.780   6.134  16.633 -0.8670 -0.3484 -0.2315
14871TIP3    H266029   4.799   5.984  16.636  1.2059 -0.0953 -0.5602
14872TIP3   OH266030   3.144   6.592   4.091  0.0598 -0.4224 -0.1387
14872TIP3    H166031   3.201   6.663   4.122 -0.5030 -0.5856  1.3383
14872TIP3    H266032   3.150   6.596   3.996  1.2074  0.6523 -0.0379
14873TIP3   OH266033   1.528   3.826  12.264 -0.0924 -0.0460  0.3956
14873TIP3    H166034   1.588   3.822  12.189 -1.4895  0.7498 -0.7955
14873TIP3    H266035   1.548   3.910  12.307 -0.1014  0.0545  0.2044
14874TIP3   OH266036   3.813   1.331   2.981  0.2199 -0.4891 -0.2955
14874TIP3    H166037   3.789   1.401   2.921  0.5771 -0.5408 -0.5059
14874TIP3    H266038   3.901   1.355   3.011 -0.6696  0.4664  1.6101
14875TIP3   OH266039   3.703   2.248  11.689  0.5529  0.2764  0.2413
14875TIP3    H166040   3.633   2.307  11.661  1.5383  0.9678 -0.8142
14875TIP3    H266041   3.782   2.302  11.686  1.4237 -1.0153 -0.4645
14876TIP3   OH266042   1.814   3.741   0.009 -0.5586  0.0311  0.0496
14876TIP3    H166043   1.822   3.714   0.100 -1.0146 -2.3207 -0.5868
14876TIP3    H266044   1.903   3.735  -0.027 -0.5147  0.2278  0.1230
14877TIP3   OH266045   2.616   0.281  11.905  0.1664  0.0198 -0.4185
14877TIP3    H166046   2.632   0.287  11.999 -1.6157  0.5302 -0.1392
14877TIP3    H266047   2.655   0.361  11.869 -0.2176  0.4087  0.0288
14878TIP3   OH266048   6.647   5.378  14.660  0.2731 -0.6577 -0.4129
14878TIP3    H166049   6.668   5.317  14.730 -0.0954 -1.4637 -0.9910
14878TIP3    H266050   6.711   5.360  14.592  0.8961  0.4171 -0.1151
14879TIP3   OH266051   5.813   1.363  13.336 -0.3050  0.0205  0.7461
14879TIP3    H166052   5.751   1.348  13.265  1.2634 -0.3405 -0.5891
14879TIP3    H266053   5.784   1.445  13.376 -1.1103  0.3334 -0.4433
14880TIP3   OH266054   0.026   0.405  15.761 -0.1524  0.2401 -0.3444
14880TIP3    H166055   0.073   0.325  15.785  0.4609  0.6667 -0.1055
14880TIP3    H266056   0.066   0.433  15.679  0.9269  1.3308  0.5376
14881TIP3   OH266057   6.011   0.479  16.552 -0.2158  0.4375  0.4941
14881TIP3    H166058   6.067   0.402  16.565 -1.4127 -0.6814 -0.7966
14881TIP3    H266059   5.951   0.477  16.627  0.2221  0.5553  0.8570
14882TIP3   OH266060   5.293   0.500  13.502 -0.2801 -0.4867 -0.3604
14882TIP3    H166061   5.297   0.421  13.448  1.8959 -0.9564  0.4354
14882TIP3    H266062   5.289   0.468  13.592  1.5141  0.3126  0.0131
14883TIP3   OH266063   4.439   2.273  16.415  0.3566 -0.0510  0.0808
14883TIP3    H166064   4.456   2.192  16.463 -0.1622 -0.4666 -0.4287
14883TIP3    H266065   4.494   2.339  16.458 -0.5832 -0.2693  1.6608
14884TIP3   OH266066   1.600   0.904   0.022 -0.1155  0.0865 -0.6320
14884TIP3    H166067   1.585   0.817   0.060 -0.4382  0.1354 -0.6423
14884TIP3    H266068   1.520   0.953   0.042  0.4994  0.7163  0.3009
14885TIP3   OH266069   3.029   3.441   3.921 -0.2813 -0.8628 -0.1879
14885TIP3    H166070   3.114   3.480   3.944 -0.6833  0.8615 -1.4955
14885TIP3    H266071   2.985   3.430   4.005  0.0792  1.0295  0.2963
14886TIP3   OH266072   5.146   5.167  16.151 -0.4124 -0.3963  0.0154
14886TIP3    H166073   5.085   5.129  16.088 -0.0934 -0.4226 -0.2784
14886TIP3    H266074   5.113   5.256  16.165 -0.0474 -0.1264 -0.7782
14887TIP3   OH266075   0.613   1.482   1.092 -0.1432 -0.0683 -0.0298
14887TIP3    H166076   0.553   1.504   1.163  1.5027 -2.9037  2.3616
14887TIP3    H266077   0.693   1.529   1.113 -0.2614  0.6319 -1.1074
14888TIP3   OH266078   3.571   6.036   4.514  0.4496  0.1707  0.6607
14888TIP3    H166079   3.601   6.125   4.534  1.8463 -0.3122  0.7264
14888TIP3    H266080   3.649   5.990   4.485 -0.3566 -0.9274  0.2110
14889TIP3   OH266081   3.739   4.512   0.833 -0.0028  0.2575  0.2862
14889TIP3    H166082   3.711   4.603   0.830  0.3033  0.3637  0.5190
14889TIP3    H266083   3.823   4.511   0.786  1.2615  0.5889  2.4411
14890TIP3   OH266084   5.277   0.828   3.743 -0.2339 -0.0114  0.9829
14890TIP3    H166085   5.338   0.815   3.669  1.0229 -0.7555  2.1231
14890TIP3    H266086   5.334   0.830   3.820 -1.5841  0.2845  1.9788
14891TIP3   OH266087   4.468   4.825   3.247 -0.1756 -0.3837  0.4508
14891TIP3    H166088   4.555   4.864   3.244 -0.4367  0.0946 -1.5445
14891TIP3    H266089   4.421   4.863   3.173 -1.4110 -2.2119  0.2393
14892TIP3   OH266090   5.654   4.731  16.021 -0.0130  0.0254 -0.0459
14892TIP3    H166091   5.641   4.812  16.071 -0.2383 -0.1182  0.1274
14892TIP3    H266092   5.700   4.760  15.942 -0.5619  0.4011 -0.2302
14893TIP3   OH266093   0.946   4.296  11.615  0.5587  0.0248 -0.1064
14893TIP3    H166094   0.934   4.312  11.709  2.5342  0.7932  0.0441
14893TIP3    H266095   0.982   4.378  11.581 -1.4641  0.2461 -1.8272
14894TIP3   OH266096   5.381   2.156  13.176  0.0909 -0.5280  0.8024
14894TIP3    H166097   5.426   2.111  13.104 -0.7718 -0.5907  0.3001
14894TIP3    H266098   5.436   2.140  13.252  1.7781  0.7004 -0.1074
14895TIP3   OH266099   3.590   2.068  16.519  0.2217  0.7690 -0.0459
14895TIP3    H166100   3.539   2.022  16.586  0.5119  0.7135  0.1363
14895TIP3    H266101   3.612   2.152  16.560  0.5375  0.6689 -0.0126
14896TIP3   OH266102   3.158   4.428  11.055 -0.0839 -0.5485 -0.4816
14896TIP3    H166103   3.237   4.395  11.097  1.0432  0.4953 -1.7177
14896TIP3    H266104   3.154   4.382  10.972  0.8984  1.5167 -1.7321
14897TIP3   OH266105   3.885   5.154   4.171 -0.0228  0.2201  0.8772
14897TIP3    H166106   3.857   5.226   4.114  2.9268  0.5803 -0.2173
14897TIP3    H266107   3.856   5.075   4.127  0.7571  0.5758 -0.2940
14898TIP3   OH266108   5.681   6.436  17.040 -0.2115  0.5532 -0.0386
14898TIP3    H166109   5.730   6.366  17.085 -0.9589  1.5014  2.3442
14898TIP3    H266110   5.590   6.408  17.044 -0.6508  2.1495  1.9389
14899TIP3   OH266111   4.760   4.145  17.003  0.2981  0.2008 -0.3454
14899TIP3    H166112   4.717   4.083  16.945 -2.2787  0.1844  1.5185
14899TIP3    H266113   4.753   4.106  17.090  5.2737 -0.4301 -0.0806
14900TIP3   OH266114   3.290   0.748  13.545  0.0022 -0.3375  0.1082
14900TIP3    H166115   3.241   0.822  13.580 -0.2321 -1.0326  1.2914
14900TIP3    H266116   3.352   0.725  13.615  0.7109 -0.6707 -0.6143
14901TIP3   OH266117   6.319   4.838   3.301 -0.4087 -0.6759  0.0245
14901TIP3    H166118   6.334   4.899   3.373  1.5973  0.8356 -1.6217
14901TIP3    H266119   6.290   4.757   3.343 -1.1904  0.7900  2.3743
14902TIP3   OH266120   1.840   0.593  17.162 -0.2757 -0.0292 -0.1665
14902TIP3    H166121   1.927   0.607  17.124  0.4325 -2.4775  0.4669
14902TIP3    H266122   1.849   0.620  17.254  0.3557 -1.9288  0.3652
14903TIP3   OH266123   3.483   2.386   4.667  0.2444 -0.9298  0.3804
14903TIP3    H166124   3.451   2.347   4.585  0.2056  1.0465 -0.5756
14903TIP3    H266125   3.565   2.340   4.685  0.9352 -0.5004 -1.5029
14904TIP3   OH266126   0.697   2.312   1.619  0.7571  0.2614  0.2438
14904TIP3    H166127   0.715   2.366   1.696  1.1992 -2.2519  1.9616
14904TIP3    H266128   0.783   2.301   1.578  0.8622 -0.0572  0.5407
14905TIP3   OH266129   6.182   0.250   5.507  0.5233 -0.4589  0.1796
14905TIP3    H166130   6.120   0.257   5.580  1.5890 -2.0017  1.2539
14905TIP3    H266131   6.149   0.312   5.442 -0.4814  0.8845  1.9376
14906TIP3   OH266132   5.757   4.414  13.379 -0.2409  0.2138  0.4993
14906TIP3    H166133   5.764   4.332  13.427 -1.6710 -0.5638 -0.6126
14906TIP3    H266134   5.672   4.450  13.404 -0.8957 -0.0796 -1.2491
14907TIP3   OH266135   4.979   4.990   3.750  0.1702  0.3578 -0.2259
14907TIP3    H166136   4.960   4.943   3.831 -1.9983 -0.5608 -1.2086
14907TIP3    H266137   5.024   5.070   3.777 -2.6154  1.2175  2.0932
14908TIP3   OH266138   6.033   1.136   2.267  0.1734 -0.0457  0.5383
14908TIP3    H166139   5.981   1.152   2.346 -0.8468 -0.9976  0.0652
14908TIP3    H266140   5.975   1.086   2.210  1.0194  0.3742 -0.6922
14909TIP3   OH266141   4.319   5.992   5.072  0.0875 -0.4414 -0.4209
14909TIP3    H166142   4.281   6.051   5.137  0.4782 -2.1598  1.4042
14909TIP3    H266143   4.295   5.905   5.101  2.8801 -1.4209 -0.8311
14910TIP3   OH266144   5.135   1.364   4.421  0.0375  1.1351  0.3941
14910TIP3    H166145   5.172   1.380   4.508 -1.5127  1.0245  1.0872
14910TIP3    H266146   5.179   1.284   4.391 -0.6829  0.1826  1.8142
14911TIP3   OH266147   5.562   4.043  16.521 -0.4531 -0.2910  0.4795
14911TIP3    H166148   5.612   3.992  16.585 -1.9772 -0.1623  1.8221
14911TIP3    H266149   5.482   3.992  16.509  0.7932 -1.4929 -3.1067
14912TIP3   OH266150   4.905   4.891  12.627 -0.5370 -0.1691 -0.0762
14912TIP3    H166151   4.859   4.885  12.710 -2.2351 -1.2628 -1.0711
14912TIP3    H266152   4.965   4.817  12.627 -0.4465 -0.0944  0.2267
14913TIP3   OH266153   4.144   1.422   3.424 -0.1626 -0.3018  0.1154
14913TIP3    H166154   4.239   1.414   3.436  0.1243 -1.7517 -2.7316
14913TIP3    H266155   4.134   1.449   3.333 -2.4766  0.2863  0.5367
14914TIP3   OH266156   0.700   2.300  15.198  0.0232  0.4055  0.8545
14914TIP3    H166157   0.750   2.305  15.279 -0.0473  0.1854  0.9119
14914TIP3    H266158   0.761   2.330  15.130  0.8965 -1.7904  0.6357
14915TIP3   OH266159   1.815   0.890  11.912  0.0134  0.3059 -0.0553
14915TIP3    H166160   1.835   0.887  12.005 -2.4557  1.2818  0.5179
14915TIP3    H266161   1.886   0.943  11.874  0.4106  0.8366  1.4074
14916TIP3   OH266162   2.379   2.264  12.250 -0.5971  0.2247 -0.3550
14916TIP3    H166163   2.400   2.269  12.344  1.4240  0.0596 -0.7712
14916TIP3    H266164   2.383   2.356  12.221 -1.7245  0.3291 -0.1719
14917TIP3   OH266165   1.307   6.392  13.484  0.6083 -0.0167  0.0573
14917TIP3    H166166   1.310   6.306  13.442 -0.0048 -1.1573  2.2987
14917TIP3    H266167   1.396   6.426  13.475  1.8998 -2.5899  2.6033
14918TIP3   OH266168   1.329   5.695   4.968 -0.0205  0.4629  0.1338
14918TIP3    H166169   1.411   5.671   5.012 -0.5241  0.7179  1.2253
14918TIP3    H266170   1.357   5.751   4.895  0.6217  2.6385  1.9784
14919TIP3   OH266171   0.044   5.585  14.765  0.8039 -0.9236  0.3118
14919TIP3    H166172   0.030   5.526  14.691  0.1693 -1.8272  1.1356
14919TIP3    H266173  -0.043   5.604  14.798  1.0456  0.0397  0.4014
14920TIP3   OH266174   2.674   0.382  17.236  0.0680 -0.1316 -0.1341
14920TIP3    H166175   2.640   0.405  17.149  0.4262 -0.3031 -0.3229
14920TIP3    H266176   2.675   0.286  17.237  0.0813 -0.1296  0.0540
14921TIP3   OH266177   0.704   2.241  15.881  0.2285 -0.2467 -0.4761
14921TIP3    H166178   0.659   2.301  15.941  1.9217 -0.1400  0.7215
14921TIP3    H266179   0.647   2.165  15.877 -1.7161  1.2245 -1.6418
14922TIP3   OH266180   0.763   6.067  13.175 -0.2505  0.3520  0.0367
14922TIP3    H166181   0.794   6.027  13.256  1.3336  0.4887 -0.4796
14922TIP3    H266182   0.795   6.157  13.178 -3.0759  1.3782  0.7929
14923TIP3   OH266183   4.501   2.939   1.657  0.0752  0.6463 -0.6470
14923TIP3    H166184   4.517   2.881   1.732 -0.3200  2.3939  0.8400
14923TIP3    H266185   4.438   3.003   1.690 -0.7469  0.9408 -2.7573
14924TIP3   OH266186   0.619   5.394  14.963 -0.2657 -0.0153 -0.7365
14924TIP3    H166187   0.697   5.435  14.927 -1.0305  1.9944 -0.1985
14924TIP3    H266188   0.567   5.467  14.996 -0.0845 -1.6796  3.4735
14925TIP3   OH266189   5.362   2.340  15.038  0.7044 -0.5942  0.4115
14925TIP3    H166190   5.358   2.407  15.107  0.5995 -0.5882  0.3994
14925TIP3    H266191   5.320   2.263  15.078 -0.2912 -0.2794 -0.0064
14926TIP3   OH266192   4.265   3.474   4.443  0.7602  0.0448  0.2798
14926TIP3    H166193   4.228   3.420   4.372  1.4962  2.2058 -1.8125
14926TIP3    H266194   4.214   3.555   4.440  2.0208  0.8687  1.0249
14927TIP3   OH266195   5.205   0.480  13.103  0.2905  0.8330  0.5594
14927TIP3    H166196   5.200   0.475  13.007 -0.2361  0.0846  0.6176
14927TIP3    H266197   5.297   0.460  13.122  0.1839  0.0063  0.2533
14928TIP3   OH266198   6.684   0.302  16.763  0.1288 -0.0885  0.3634
14928TIP3    H166199   6.725   0.388  16.752  0.8340 -0.7191 -1.9502
14928TIP3    H266200   6.645   0.282  16.678  0.3686 -2.2939  0.7463
14929TIP3   OH266201   6.133   6.783  13.013  0.5540 -0.4221  0.5945
14929TIP3    H166202   6.100   6.734  13.088 -1.9072 -0.5858 -0.5443
14929TIP3    H266203   6.140   6.873  13.044 -0.9034 -0.4089  0.8925
14930TIP3   OH266204   5.208   2.756   0.612  0.7718  0.0555  0.1303
14930TIP3    H166205   5.262   2.814   0.559  2.0050 -0.7936  0.4403
14930TIP3    H266206   5.183   2.685   0.552  1.1882 -0.2976  0.3783
14931TIP3   OH266207   0.000   0.532   0.434 -0.4191 -0.4551  0.3488
14931TIP3    H166208   0.018   0.471   0.362  0.3664  0.1421  0.0329
14931TIP3    H266209  -0.095   0.542   0.434 -0.4959 -1.1093 -0.0607
14932TIP3   OH266210   1.838   1.550  16.194  0.3419 -0.6122  0.3960
14932TIP3    H166211   1.899   1.513  16.257  0.9547 -0.8392 -0.3346
14932TIP3    H266212   1.795   1.621  16.242  1.7706  0.0906  0.6434
14933TIP3   OH266213   2.703   4.660   0.457  0.1117  0.0740 -0.1626
14933TIP3    H166214   2.694   4.686   0.365 -1.9079  0.4868  0.1277
14933TIP3    H266215   2.636   4.710   0.502  0.6231 -0.6709  1.4411
14934TIP3   OH266216   1.298   1.635  13.083  0.2128  0.2962 -0.3816
14934TIP3    H166217   1.246   1.556  13.094 -0.8608  1.0078 -0.2541
14934TIP3    H266218   1.370   1.625  13.145 -1.0060  0.3102  1.0705
14935TIP3   OH266219   0.966   2.197   6.437 -0.2767  0.2163  0.2798
14935TIP3    H166220   1.029   2.264   6.410 -0.3029  1.1160  2.3456
14935TIP3    H266221   1.020   2.131   6.481 -0.6943  0.7360  1.5901
14936TIP3   OH266222   0.384   2.328  15.549 -0.1801 -0.6010 -0.0461
14936TIP3    H166223   0.466   2.360  15.588 -0.0560 -0.4573 -0.4247
14936TIP3    H266224   0.405   2.315  15.457 -1.3824  2.3106 -0.7928
14937TIP3   OH266225   6.286   4.829   5.664 -0.3249 -0.3090 -0.2940
14937TIP3    H166226   6.211   4.852   5.609 -0.9064  1.0480  1.0177
14937TIP3    H266227   6.248   4.782   5.738  0.2284 -0.5174 -0.1405
14938TIP3   OH266228   6.506   5.251  16.668  0.2411  0.0396 -0.2127
14938TIP3    H166229   6.540   5.163  16.649  0.1963 -0.0406  0.0807
14938TIP3    H266230   6.561   5.284  16.739  1.0263  0.7255 -1.1286
14939TIP3   OH266231   2.534   5.033   6.677 -0.2508 -0.0921 -0.1524
14939TIP3    H166232   2.615   5.084   6.676  0.7490 -1.6471 -0.5479
14939TIP3    H266233   2.540   4.980   6.756 -1.1323  0.1837  0.0971
14940TIP3   OH266234   4.112   5.182  14.328 -0.5749  0.1297 -0.6221
14940TIP3    H166235   4.039   5.127  14.358 -0.2361  0.3464  0.6583
14940TIP3    H266236   4.110   5.257  14.387  1.2394 -0.2959  0.0096
14941TIP3   OH266237   1.539   2.240  12.684  0.0069 -0.2470 -0.0088
14941TIP3    H166238   1.464   2.241  12.625 -0.3576 -1.5474  0.4215
14941TIP3    H266239   1.509   2.286  12.762  0.3370  1.0577 -0.6316
14942TIP3   OH266240   2.016   6.778   1.389  0.1658 -0.3883 -0.3989
14942TIP3    H166241   1.993   6.782   1.482  0.5471  1.7549 -0.3669
14942TIP3    H266242   1.934   6.755   1.345 -0.6694  1.2421  0.2511
14943TIP3   OH266243   2.513   0.177  17.130 -0.2695 -0.2135 -0.4049
14943TIP3    H166244   2.553   0.106  17.080 -0.1898  0.9341 -2.0203
14943TIP3    H266245   2.460   0.225  17.066 -1.3989  0.3887  0.9490
14944TIP3   OH266246   4.891   2.854   4.211  0.2100 -0.3594 -0.0100
14944TIP3    H166247   4.801   2.833   4.184 -0.4889  2.0344  0.3142
14944TIP3    H266248   4.885   2.871   4.305  0.6314  1.5182 -0.2919
14945TIP3   OH266249   1.061   4.645  12.859 -0.2939 -0.4846  0.6233
14945TIP3    H166250   1.136   4.593  12.885 -1.0507 -1.3234  1.1558
14945TIP3    H266251   1.026   4.600  12.782  0.6548  0.7747 -0.5738
14946TIP3   OH266252   1.729   3.210   2.613 -0.2127  0.1373 -0.6582
14946TIP3    H166253   1.809   3.161   2.596 -0.5433 -1.1092  1.1858
14946TIP3    H266254   1.746   3.255   2.696 -1.1772  0.4083 -0.5980
14947TIP3   OH266255   3.618   3.614   1.779 -0.3728 -0.2033  0.1615
14947TIP3    H166256   3.698   3.603   1.727 -1.7235  0.7597 -2.1567
14947TIP3    H266257   3.593   3.524   1.803  1.1413 -0.5394  0.5586
14948TIP3   OH266258   6.384   6.002  15.986 -0.5749  0.0196  0.0566
14948TIP3    H166259   6.479   6.003  15.976 -0.7525  2.0774 -2.1379
14948TIP3    H266260   6.363   5.914  16.015  2.0068 -0.4346  0.6617
14949TIP3   OH266261   5.528   4.842  10.612  0.1009  0.1380  0.1146
14949TIP3    H166262   5.489   4.896  10.681 -1.9523  0.4662 -1.2532
14949TIP3    H266263   5.490   4.877  10.531 -0.0207 -2.3351 -0.9140
14950TIP3   OH266264   0.740   5.275   0.486 -0.2456  0.3235  0.4656
14950TIP3    H166265   0.792   5.194   0.485 -1.5446 -0.5423 -2.4153
14950TIP3    H266266   0.790   5.336   0.431  0.0489  1.0747  1.5389
14951TIP3   OH266267   6.065   6.135  15.147  0.4627 -0.2161  0.4739
14951TIP3    H166268   6.128   6.170  15.210  1.2783  0.8058 -0.8879
14951TIP3    H266269   5.997   6.202  15.142  0.2016 -0.4740  0.5487
14952TIP3   OH266270   5.499   1.255  15.181 -0.1565  0.2825 -0.2451
14952TIP3    H166271   5.481   1.348  15.197 -0.3386 -0.0131  1.2425
14952TIP3    H266272   5.582   1.256  15.132  0.9749  1.1317  1.6282
14953TIP3   OH266273   2.612   4.327   4.202 -0.7492 -0.0793  0.5362
14953TIP3    H166274   2.550   4.385   4.248 -1.7601 -2.2972  2.0519
14953TIP3    H266275   2.567   4.303   4.121 -1.4046 -0.7972  1.1114
14954TIP3   OH266276   0.032   1.836   3.885  0.3561 -1.0715 -0.8719
14954TIP3    H166277   0.029   1.771   3.815  1.8123 -1.1345 -0.8777
14954TIP3    H266278   0.123   1.866   3.887  0.5528 -1.7003  1.5511
14955TIP3   OH266279   1.736   5.285   4.303  0.1516 -0.3858 -0.1636
14955TIP3    H166280   1.822   5.325   4.310 -0.3944  1.2327 -1.9884
14955TIP3    H266281   1.675   5.354   4.332 -0.5301 -1.5483  1.2123
14956TIP3   OH266282   3.059   4.811  11.741  0.1997  0.4156 -0.2961
14956TIP3    H166283   3.113   4.786  11.666  0.8538  1.8674 -0.3294
14956TIP3    H266284   3.064   4.736  11.800  1.1055 -0.0298 -0.9246
14957TIP3   OH266285   0.037   0.069   5.815 -0.1637 -0.1595 -0.2954
14957TIP3    H166286   0.027   0.137   5.882  1.0861  2.0017 -2.2218
14957TIP3    H266287  -0.046   0.070   5.767 -0.8061 -1.2362  0.7859
14958TIP3   OH266288   4.469   2.520   6.672  0.2795  0.0414  0.0073
14958TIP3    H166289   4.494   2.462   6.744  2.1828  0.4759 -0.2867
14958TIP3    H266290   4.480   2.466   6.594  0.6333  0.3457 -0.1540
14959TIP3   OH266291   0.148   1.265   6.298  0.3646  0.4314 -0.2677
14959TIP3    H166292   0.070   1.230   6.255  0.0994  2.4790 -1.5198
14959TIP3    H266293   0.201   1.301   6.226  2.0253 -0.1107  0.6681
14960TIP3   OH266294   2.030   4.714   4.652 -0.3582  0.4099 -0.2194
14960TIP3    H166295   2.101   4.687   4.710 -0.9661 -1.0803 -0.1575
14960TIP3    H266296   2.041   4.809   4.644  0.4510  0.4724  1.3767
14961TIP3   OH266297   2.185   1.925   1.864 -0.0664 -0.3417 -0.0164
14961TIP3    H166298   2.199   2.000   1.922  0.1223 -1.9950  2.1125
14961TIP3    H266299   2.091   1.910   1.867 -0.0403 -0.5089 -0.0458
14962TIP3   OH266300   1.718   5.422   3.047 -0.2923 -0.2851 -0.3943
14962TIP3    H166301   1.632   5.463   3.055  0.4388  1.6170 -1.9149
14962TIP3    H266302   1.727   5.404   2.953  1.1729 -0.0104 -0.3136
14963TIP3   OH266303   5.630   6.315   5.934 -0.3996  0.7491 -0.8224
14963TIP3    H166304   5.560   6.258   5.967 -0.2195  1.0214  0.0296
14963TIP3    H266305   5.618   6.397   5.982  1.3011  0.3724  0.2651
14964TIP3   OH266306   3.330   3.305  15.498  0.1336 -0.2528  0.6682
14964TIP3    H166307   3.297   3.302  15.588  1.3051 -0.4256  1.0941
14964TIP3    H266308   3.254   3.332  15.446 -1.0140 -1.7856  1.4785
14965TIP3   OH266309   5.838   0.633  12.431 -0.3098 -0.1859  0.1494
14965TIP3    H166310   5.910   0.627  12.494 -0.3097  0.9280  0.2765
14965TIP3    H266311   5.857   0.714  12.382 -2.3302  1.0235  1.2938
14966TIP3   OH266312   5.028   2.672   2.629 -0.1922 -0.7415  0.4722
14966TIP3    H166313   4.974   2.636   2.558 -0.7832  1.1416 -0.0600
14966TIP3    H266314   5.110   2.623   2.625 -0.5309 -1.1944 -0.9988
14967TIP3   OH266315   6.169   6.219   0.174  0.2038 -0.1470  0.0726
14967TIP3    H166316   6.180   6.202   0.268 -2.2166  1.3643  0.6960
14967TIP3    H266317   6.220   6.298   0.158 -0.2658  0.2257  0.3823
14968TIP3   OH266318   0.655   0.411   3.127 -0.2836 -0.7695 -0.2076
14968TIP3    H166319   0.710   0.484   3.155 -0.3247 -0.3267 -1.2483
14968TIP3    H266320   0.570   0.428   3.166 -0.8233  0.7639 -1.9979
14969TIP3   OH266321   6.184   6.397  13.650  0.2694  0.2967 -0.3730
14969TIP3    H166322   6.130   6.328  13.688  2.5463 -1.7042 -0.6273
14969TIP3    H266323   6.256   6.408  13.712  0.8442  1.2065 -1.1861
14970TIP3   OH266324   1.145   5.124  11.955  0.2166 -0.1776 -0.1446
14970TIP3    H166325   1.094   5.095  12.032  1.1868 -2.0637 -0.1725
14970TIP3    H266326   1.235   5.127  11.986  0.4165  0.5697 -0.8028
14971TIP3   OH266327   0.138   1.031   5.373  0.0290 -0.6686 -0.1300
14971TIP3    H166328   0.207   1.095   5.358  0.6785 -0.8970  1.7357
14971TIP3    H266329   0.094   1.023   5.288  0.5228  1.5297 -0.6382
14972TIP3   OH266330   4.843   4.908  15.115 -0.2520 -0.1792 -0.0484
14972TIP3    H166331   4.795   4.987  15.140  1.4254  0.9788 -0.4106
14972TIP3    H266332   4.913   4.902  15.179  1.3159  0.2107 -1.6993
14973TIP3   OH266333   4.145   2.877   4.232  0.4646 -0.4071 -0.4517
14973TIP3    H166334   4.058   2.905   4.203  0.6378  0.5768 -0.0371
14973TIP3    H266335   4.201   2.954   4.220  0.8700 -0.4562  1.0465
14974TIP3   OH266336   4.961   3.278   1.101 -0.0762 -0.3109  0.3248
14974TIP3    H166337   5.023   3.282   1.174 -0.0969 -0.7387  0.3681
14974TIP3    H266338   4.878   3.306   1.139  0.0113 -0.0864  0.3534
14975TIP3   OH266339   2.057   0.880   0.960  0.6735  0.0122 -0.0418
14975TIP3    H166340   2.122   0.831   1.011  0.2172  0.2669  0.7840
14975TIP3    H266341   1.973   0.842   0.986  0.3001  1.3576  0.7344
14976TIP3   OH266342   4.782   3.042  16.309  0.5159 -0.3996 -0.3529
14976TIP3    H166343   4.836   3.100  16.362 -0.4231 -0.8821  1.1741
14976TIP3    H266344   4.840   3.013  16.239  2.9043 -2.4676  2.3243
14977TIP3   OH266345   5.729   4.126  15.840  0.0349  0.6715 -0.3429
14977TIP3    H166346   5.644   4.131  15.884 -0.0415 -1.8270 -0.1110
14977TIP3    H266347   5.707   4.121  15.747  0.0214  1.8166 -0.4081
14978TIP3   OH266348   0.221   3.063   4.892  0.1934  0.8082 -0.0104
14978TIP3    H166349   0.183   3.012   4.820 -0.7347 -0.6370  1.4505
14978TIP3    H266350   0.306   3.022   4.908 -1.3569 -1.6494  2.4441
14979TIP3   OH266351   3.250   3.484  11.822  0.5281 -0.1717 -0.4497
14979TIP3    H166352   3.318   3.468  11.756 -0.2839 -1.4573 -0.9876
14979TIP3    H266353   3.193   3.549  11.783  0.2314 -0.6930 -0.8860
14980TIP3   OH266354   1.718   4.436   3.436  0.6710  0.0726  0.2290
14980TIP3    H166355   1.706   4.341   3.438 -0.1363  0.1276 -1.4510
14980TIP3    H266356   1.634   4.471   3.465  0.0714  0.3088 -1.7735
14981TIP3   OH266357   1.038   1.260  13.533 -0.2289  0.3701  0.1269
14981TIP3    H166358   0.943   1.273  13.524 -0.2279  1.0428  1.0027
14981TIP3    H266359   1.057   1.183  13.479 -1.1229  0.7816 -0.7994
14982TIP3   OH266360   3.103   3.693  12.254 -0.0145 -0.2493 -0.6402
14982TIP3    H166361   3.177   3.666  12.200 -0.1190  0.5804 -1.2087
14982TIP3    H266362   3.042   3.619  12.249  0.4976 -0.6752 -0.6750
14983TIP3   OH266363   0.996   4.371   2.196 -0.3539  0.6073  0.1525
14983TIP3    H166364   0.981   4.304   2.262  1.6299  1.5806  1.6679
14983TIP3    H266365   1.081   4.347   2.157 -0.1973  1.5742 -0.1097
14984TIP3   OH266366   5.674   5.299   1.949 -0.0359  0.2674  0.1645
14984TIP3    H166367   5.742   5.328   1.888 -0.3093  0.6312  0.0328
14984TIP3    H266368   5.594   5.299   1.897 -0.4552  1.5642  0.7872
14985TIP3   OH266369   0.310   1.870  15.823 -0.3993  0.1885 -0.5560
14985TIP3    H166370   0.305   1.874  15.919 -0.7530  0.5101 -0.5884
14985TIP3    H266371   0.303   1.776  15.803 -0.7295  0.1561 -0.2898
14986TIP3   OH266372   4.539   1.768  10.455 -0.2106  0.2132  0.2851
14986TIP3    H166373   4.600   1.832  10.419  1.0616  1.1395  3.8483
14986TIP3    H266374   4.594   1.705  10.501 -1.8368  0.2565  2.3693
14987TIP3   OH266375   6.757   0.604   0.701 -0.0836 -0.0097 -0.2009
14987TIP3    H166376   6.730   0.586   0.611  0.7206  0.7525 -0.5982
14987TIP3    H266377   6.835   0.549   0.714  0.8443  1.1985 -0.5616
14988TIP3   OH266378   1.872   5.100  17.190  0.6475  0.1742 -0.0506
14988TIP3    H166379   1.801   5.126  17.249  0.2671  1.1413 -0.9259
14988TIP3    H266380   1.946   5.084  17.249 -0.1333 -0.3131  0.8164
14989TIP3   OH266381   5.656   0.908  15.670 -0.1229  0.6588 -0.0191
14989TIP3    H166382   5.700   0.992  15.678  0.2122  0.5439 -0.6092
14989TIP3    H266383   5.640   0.880  15.760  0.1819  1.1343  0.1836
14990TIP3   OH266384   4.139   0.017   0.577  0.2812 -0.0149 -0.2659
14990TIP3    H166385   4.138   0.076   0.652  2.1261 -1.6393  1.0816
14990TIP3    H266386   4.109  -0.067   0.612 -1.7711 -0.0661 -2.0253
14991TIP3   OH266387   1.040   2.853  12.396  0.4176 -0.3152 -0.4565
14991TIP3    H166388   1.099   2.779  12.413 -0.3235 -0.9337 -0.5563
14991TIP3    H266389   1.033   2.899  12.480  1.1104 -0.1839 -0.4668
14992TIP3   OH266390   5.489   3.480   3.825 -0.3472 -0.1568 -0.1000
14992TIP3    H166391   5.396   3.456   3.825 -0.3415 -0.1784  0.0221
14992TIP3    H266392   5.531   3.414   3.879 -0.5204  0.8270  1.2932
14993TIP3   OH266393   3.620   6.710  13.536  0.3711  0.5439 -0.4431
14993TIP3    H166394   3.617   6.633  13.594 -0.4152  0.9698  0.0885
14993TIP3    H266395   3.713   6.720  13.515  0.5003 -0.4529 -0.3805
14994TIP3   OH266396   5.585   2.636  16.001 -0.1411 -0.1778 -0.2587
14994TIP3    H166397   5.588   2.648  15.906  0.0116  2.4599  0.0342
14994TIP3    H266398   5.635   2.710  16.035 -3.0106  0.7697  2.0054
14995TIP3   OH266399   3.921   2.275  16.463 -0.5547 -0.4894  0.2998
14995TIP3    H166400   3.922   2.353  16.519  0.4235 -0.9351  0.9179
14995TIP3    H266401   3.854   2.293  16.398 -1.3782  0.2485  1.3368
14996TIP3   OH266402   4.634   1.701  11.402  0.1386  0.3820 -0.0956
14996TIP3    H166403   4.590   1.649  11.469 -1.2521  0.0691 -1.2068
14996TIP3    H266404   4.563   1.729  11.343  1.5929 -1.7084 -2.9926
14997TIP3   OH266405   2.343   4.215  14.822 -0.1674  0.0549 -0.0337
14997TIP3    H166406   2.410   4.277  14.796  1.2940 -1.5758 -0.2528
14997TIP3    H266407   2.295   4.259  14.892 -0.4880  2.2150 -1.5804
14998TIP3   OH266408   3.594   1.815   1.119  0.4145 -0.0414 -0.2394
14998TIP3    H166409   3.644   1.753   1.066  0.9162  0.9605 -0.9314
14998TIP3    H266410   3.610   1.787   1.210 -0.2090 -1.5709 -0.5909
14999TIP3   OH266411   6.421   5.760   4.585 -0.1662 -0.0264 -0.9350
14999TIP3    H166412   6.338   5.806   4.571 -0.5252  0.0243  1.2973
14999TIP3    H266413   6.398   5.667   4.580 -0.9196 -0.0715  2.5653
15000TIP3   OH266414   6.356   6.335  15.845  0.0189 -0.2060  0.1446
15000TIP3    H166415   6.295   6.264  15.860  0.8028 -1.1395 -0.9848
15000TIP3    H266416   6.327   6.375  15.763 -0.9248  1.3331  1.1980
15001TIP3   OH266417   6.756   5.113  12.165 -0.1058 -0.0367 -0.1007
15001TIP3    H166418   6.687   5.052  12.137  1.4147 -0.6250 -2.7413
15001TIP3    H266419   6.802   5.067  12.235  0.5565 -1.6454 -1.5692
15002TIP3   OH266420   1.745   4.575  17.215  0.5622 -0.2554  1.0454
15002TIP3    H166421   1.719   4.540  17.129  0.9108  0.7912  0.5074
15002TIP3    H266422   1.664   4.577  17.265  0.4821 -1.5559  0.9824
15003TIP3   OH266423   0.007   2.132   6.383  0.0016  0.0557  0.1212
15003TIP3    H166424   0.007   2.216   6.338 -0.0135  0.6483  1.1973
15003TIP3    H266425   0.052   2.150   6.466 -0.4940 -0.8689  0.5945
15004TIP3   OH266426   4.265   3.256   0.213 -0.1599 -0.2715  0.3289
15004TIP3    H166427   4.350   3.224   0.244  0.8610  0.0553 -1.9885
15004TIP3    H266428   4.282   3.347   0.188 -1.1930 -0.2060 -0.1474
15005TIP3   OH266429   1.627   4.687   1.948 -0.6158 -0.0333 -0.1783
15005TIP3    H166430   1.575   4.613   1.980 -2.1421  0.1243 -2.2039
15005TIP3    H266431   1.594   4.763   1.998  0.3314 -0.5529  1.2570
15006TIP3   OH266432   5.290   4.721   3.009  0.1055 -0.1767 -0.3131
15006TIP3    H166433   5.304   4.684   2.922 -0.6192 -1.0806 -0.0572
15006TIP3    H266434   5.244   4.652   3.058 -0.8472  0.8801  0.3190
15007TIP3   OH266435   5.138   2.617   3.176 -0.5476  0.1390  0.2425
15007TIP3    H166436   5.053   2.595   3.214 -0.7517  0.1339 -0.2100
15007TIP3    H266437   5.199   2.612   3.249 -1.0107  0.5795  0.6656
15008TIP3   OH266438   4.384   5.780  16.716  0.2077 -0.4744 -0.6192
15008TIP3    H166439   4.476   5.764  16.737  0.7531 -0.0998 -2.5911
15008TIP3    H266440   4.383   5.867  16.677 -1.4058  0.6430  1.7863
15009TIP3   OH266441   6.279   1.549  11.884 -0.0682  0.0604  0.0764
15009TIP3    H166442   6.200   1.568  11.833 -0.6057 -0.5684  0.6555
15009TIP3    H266443   6.254   1.475  11.940  1.4082 -1.1877 -0.8552
15010TIP3   OH266444   2.360   5.497   3.614 -0.1866  0.6542  0.0603
15010TIP3    H166445   2.373   5.403   3.604 -0.4035  0.7462 -1.0876
15010TIP3    H266446   2.441   5.528   3.655  0.2468  0.1073 -0.3809
15011TIP3   OH266447   5.309   3.758   5.192  0.0835 -0.3842 -0.4847
15011TIP3    H166448   5.299   3.760   5.288 -1.9252 -0.1883 -0.6721
15011TIP3    H266449   5.226   3.793   5.159  1.1551  0.5272 -2.2913
15012TIP3   OH266450   5.925   0.414   1.306  0.1262  0.3743 -0.1595
15012TIP3    H166451   5.902   0.484   1.368 -0.8600  1.2581 -1.4993
15012TIP3    H266452   5.870   0.340   1.333 -0.0781  0.6532  0.2084
15013TIP3   OH266453   5.516   4.362  11.542 -0.2493 -0.6245  0.2312
15013TIP3    H166454   5.510   4.308  11.463 -0.4287 -1.2432  0.6674
15013TIP3    H266455   5.609   4.384  11.550 -0.4307  0.6717 -0.9754
15014TIP3   OH266456   1.253   2.020  15.396  0.3093 -0.2299  0.0476
15014TIP3    H166457   1.264   1.925  15.395  3.6094  0.0175  2.4083
15014TIP3    H266458   1.176   2.037  15.341  0.5807 -4.1097 -1.6585
15015TIP3   OH266459   0.052   3.206  16.788  0.2244  0.6857  0.0724
15015TIP3    H166460   0.095   3.124  16.762 -2.3441 -0.8346  0.4208
15015TIP3    H266461   0.086   3.272  16.728  1.1346 -0.9698 -1.2649
15016TIP3   OH266462   4.624   2.938  16.842  0.1208 -0.0648 -0.5198
15016TIP3    H166463   4.580   2.853  16.849  0.3642 -0.0753  1.0149
15016TIP3    H266464   4.559   2.994  16.799 -1.2531 -0.2011  1.3227
15017TIP3   OH266465   2.367   6.731  13.076 -0.3999  0.0463 -0.0501
15017TIP3    H166466   2.384   6.779  13.157  0.8862  0.1777 -0.3795
15017TIP3    H266467   2.286   6.683  13.092 -0.8780  1.1392  0.8265
15018TIP3   OH266468   6.698   6.666  11.688 -0.4067 -0.0044  0.2123
15018TIP3    H166469   6.652   6.584  11.672  0.3828  0.0355 -2.5489
15018TIP3    H266470   6.770   6.643  11.747  0.4740 -1.5470 -1.4272
15019TIP3   OH266471   1.875   6.331  12.038  0.2028 -0.4157 -0.1858
15019TIP3    H166472   1.828   6.314  12.119  1.6062 -0.7622  0.5880
15019TIP3    H266473   1.892   6.425  12.039 -0.1460 -0.3521 -0.2800
15020TIP3   OH266474   1.111   2.801   4.836 -0.6360 -0.3755 -0.1861
15020TIP3    H166475   1.055   2.728   4.861 -1.0093  0.4818  1.5315
15020TIP3    H266476   1.051   2.872   4.814 -0.2453  0.2427  0.7164
15021TIP3   OH266477   0.198   4.179  14.227 -0.2647 -0.1172 -0.1476
15021TIP3    H166478   0.217   4.251  14.168  0.4209 -0.3884 -0.2716
15021TIP3    H266479   0.267   4.114  14.208  0.0772 -0.1249  1.0717
15022TIP3   OH266480   5.628   4.622  12.318  0.0465 -0.0163 -0.5924
15022TIP3    H166481   5.615   4.711  12.351  0.4944  0.2220 -1.0501
15022TIP3    H266482   5.555   4.572  12.355  0.8543  0.1154  1.2591
15023TIP3   OH266483   2.058   0.708  17.056  0.2058  0.5201  0.0602
15023TIP3    H166484   2.131   0.683  17.000  0.5795 -0.5755  1.0067
15023TIP3    H266485   2.005   0.766  17.002  1.7279  1.2664 -0.6619
15024TIP3   OH266486   4.912   5.864   5.005 -0.4134 -0.2506  0.1350
15024TIP3    H166487   4.982   5.844   4.942 -1.4690 -3.3203 -0.1771
15024TIP3    H266488   4.833   5.872   4.951 -0.8001  0.2292  0.7711
15025TIP3   OH266489   5.456   5.271   1.780 -0.7630 -0.1448  0.1037
15025TIP3    H166490   5.394   5.281   1.708 -0.0728  1.3044 -0.2987
15025TIP3    H266491   5.498   5.186   1.763 -1.9328 -0.6898 -0.1444
15026TIP3   OH266492   3.934   5.515   2.089 -0.1407 -0.5660 -0.4435
15026TIP3    H166493   4.005   5.458   2.121  0.4592  0.1810 -0.4280
15026TIP3    H266494   3.941   5.511   1.994 -1.1715 -1.8436 -0.4837
15027TIP3   OH266495   5.358   5.264  15.434 -0.5354  0.0321 -0.5985
15027TIP3    H166496   5.371   5.346  15.482 -0.5088  1.0991 -2.3951
15027TIP3    H266497   5.446   5.227  15.427 -0.1834  1.1073 -1.9709
15028TIP3   OH266498   0.173   0.352  11.652 -0.0946 -0.3461 -0.3683
15028TIP3    H166499   0.190   0.331  11.561 -0.1412 -0.8304 -0.2631
15028TIP3    H266500   0.100   0.296  11.677 -0.1116 -0.1819 -0.0473
15029TIP3   OH266501   4.237   4.070   0.813 -0.5867  0.4017  0.1903
15029TIP3    H166502   4.278   4.110   0.737  0.1202 -2.4116 -0.9844
15029TIP3    H266503   4.201   4.144   0.863  2.4126  2.6102 -0.7853
15030TIP3   OH266504   2.149   1.692  16.879 -0.2671 -0.6066  0.1432
15030TIP3    H166505   2.179   1.766  16.827  0.2191 -1.2602 -0.5191
15030TIP3    H266506   2.091   1.643  16.821 -2.1372  0.2963  1.2164
15031TIP3   OH266507   1.908   0.934   0.017 -0.1333  0.5833  0.5007
15031TIP3    H166508   1.816   0.914   0.036 -0.0477 -0.0777  0.2311
15031TIP3    H266509   1.951   0.849   0.010  1.1027  0.9232  3.4186
15032TIP3   OH266510   5.825   4.747   4.935 -0.8107  0.1334  0.4514
15032TIP3    H166511   5.886   4.806   4.891 -0.8825  0.5867  0.9462
15032TIP3    H266512   5.868   4.662   4.934  0.1942  0.6233  1.5219
15033TIP3   OH266513   5.480   1.360  10.327  0.4310 -0.7697 -0.6303
15033TIP3    H166514   5.456   1.271  10.352 -1.4127 -0.1273 -0.0355
15033TIP3    H266515   5.565   1.375  10.368  0.1850 -1.8273  0.2766
15034TIP3   OH266516   6.352   2.501  13.607  0.5829  0.2000  0.4870
15034TIP3    H166517   6.370   2.545  13.525 -1.0604 -2.7727 -1.5578
15034TIP3    H266518   6.335   2.410  13.583  0.6322 -0.9010  4.1788
15035TIP3   OH266519   6.410   3.256  15.099  0.1281  0.1135  0.5330
15035TIP3    H166520   6.327   3.289  15.132  0.9564  2.8887 -0.0564
15035TIP3    H266521   6.441   3.196  15.167 -1.6680  0.1465  1.3982
15036TIP3   OH266522   3.911   5.529   1.282 -0.1067 -0.4452  0.6837
15036TIP3    H166523   3.954   5.581   1.350 -0.3415 -0.7401  1.0654
15036TIP3    H266524   3.982   5.478   1.242  0.3085  1.0213 -0.4850
15037TIP3   OH266525   2.751   4.099  12.878  0.0648  0.0427  0.7626
15037TIP3    H166526   2.813   4.085  12.950 -1.0938 -1.0091  1.5737
15037TIP3    H266527   2.759   4.192  12.857  0.4731  0.3474  2.1985
15038TIP3   OH266528   2.391   1.121  15.000 -0.2601 -0.3651  0.4599
15038TIP3    H166529   2.454   1.175  15.047 -0.4858 -0.5241  0.9479
15038TIP3    H266530   2.309   1.134  15.047 -0.5640 -0.2516 -0.1022
15039TIP3   OH266531   6.231   0.473   3.155 -0.5207 -0.0522  0.3332
15039TIP3    H166532   6.260   0.564   3.150  0.6625 -0.4136  0.5146
15039TIP3    H266533   6.232   0.452   3.248 -3.1219  0.4724  0.5184
15040TIP3   OH266534   4.432   6.238   5.268 -0.2659 -0.1580  0.0532
15040TIP3    H166535   4.398   6.160   5.311 -0.2222  0.1677  0.6988
15040TIP3    H266536   4.526   6.222   5.261 -0.1421  0.1634  0.9007
15041TIP3   OH266537   0.483   3.486   5.457  0.0811  0.5912 -0.8740
15041TIP3    H166538   0.577   3.504   5.447  0.1708  1.3129  0.9766
15041TIP3    H266539   0.477   3.433   5.536 -1.0326  0.0827 -1.2887
15042TIP3   OH266540   0.597   1.834  11.318 -0.0437  0.0085  0.2006
15042TIP3    H166541   0.548   1.758  11.286 -1.2696  0.0822  1.8152
15042TIP3    H266542   0.689   1.810  11.307 -0.4163 -1.3937  0.0088
15043TIP3   OH266543   2.586   2.043  11.818  0.2398  0.8719 -0.3719
15043TIP3    H166544   2.557   1.992  11.893 -1.0740  2.7961  0.4449
15043TIP3    H266545   2.674   2.073  11.842  1.6578 -2.1633 -1.4729
15044TIP3   OH266546   1.317   6.778   1.300  0.1726  0.2966  0.0658
15044TIP3    H166547   1.251   6.714   1.326 -1.7376  2.0547 -0.3296
15044TIP3    H266548   1.347   6.748   1.214 -0.6185 -0.1409 -0.0661
15045TIP3   OH266549   1.809   6.236   1.840  0.0423  0.5709  0.5302
15045TIP3    H166550   1.848   6.163   1.792  0.3072  0.5056  0.8428
15045TIP3    H266551   1.813   6.309   1.778 -2.9096 -0.3743 -0.8444
15046TIP3   OH266552   6.123   1.255   3.391 -0.5072 -0.4288 -1.2414
15046TIP3    H166553   6.206   1.213   3.371  1.1877  1.9957  0.3896
15046TIP3    H266554   6.062   1.220   3.326  1.7568 -2.2830 -2.4431
15047TIP3   OH266555   4.071   1.756   3.707  0.2851 -0.6150  0.1461
15047TIP3    H166556   3.996   1.697   3.706 -0.3370  0.1597 -0.0539
15047TIP3    H266557   4.044   1.829   3.652  2.2836 -1.6431 -2.2862
15048TIP3   OH266558   2.696   3.871  12.764 -0.4400  0.0209 -0.0279
15048TIP3    H166559   2.718   3.945  12.821 -0.8983 -0.8332  1.2791
15048TIP3    H266560   2.612   3.894  12.725 -1.5701 -0.7195  1.9631
15049TIP3   OH266561   0.210   5.285  14.011 -0.2052  0.0674  0.6654
15049TIP3    H166562   0.171   5.286  14.098  0.7900 -1.5923  1.1387
15049TIP3    H266563   0.244   5.197  14.000  1.0709  0.7076 -0.7860
15050TIP3   OH266564   1.818   3.904  16.247 -0.1008  0.1300  0.0722
15050TIP3    H166565   1.858   3.851  16.317  0.0392  1.4706  1.0094
15050TIP3    H266566   1.820   3.993  16.281 -0.7785  0.6702 -1.3226
15051TIP3   OH266567   1.724   4.225  11.026  0.0151  0.9859  0.5964
15051TIP3    H166568   1.673   4.180  10.959 -0.6422  0.1200  1.6696
15051TIP3    H266569   1.745   4.310  10.987  1.9389 -0.5225 -1.7607
15052TIP3   OH266570   2.097   3.041   2.191 -0.3039  0.3231 -0.3664
15052TIP3    H166571   2.161   3.065   2.259 -0.5204  0.8038 -0.3266
15052TIP3    H266572   2.125   2.955   2.160  0.3711  0.5404 -0.3606
15053TIP3   OH266573   1.038   5.874  11.277  0.4126  0.8284 -0.1155
15053TIP3    H166574   1.067   5.794  11.232 -0.1229  0.5375  0.0485
15053TIP3    H266575   0.996   5.842  11.357 -1.0560  1.1841 -0.7182
15054TIP3   OH266576   3.088   4.773   5.054 -0.2927 -0.1648  0.5460
15054TIP3    H166577   3.067   4.788   5.146 -0.6189  0.6374  0.3428
15054TIP3    H266578   3.019   4.713   5.024 -0.9925  0.6591  0.4758
15055TIP3   OH266579   3.422   3.558   1.145 -0.5502 -0.3861 -0.0798
15055TIP3    H166580   3.341   3.555   1.197 -1.7548 -1.2709 -1.9713
15055TIP3    H266581   3.460   3.471   1.155  1.8360  0.9803  3.3462
15056TIP3   OH266582   4.791   0.106   1.313 -0.3043 -0.1117  0.2742
15056TIP3    H166583   4.759   0.081   1.399  0.2872 -2.2814 -0.1053
15056TIP3    H266584   4.866   0.048   1.297 -0.6112  0.0120 -1.8406
15057TIP3   OH266585   3.665   5.420  14.002 -0.1530 -0.0233  0.1137
15057TIP3    H166586   3.737   5.378  13.955 -0.3394 -0.5968  0.3315
15057TIP3    H266587   3.616   5.466  13.935  0.0622 -0.1465 -0.1287
15058TIP3   OH266588   0.211   6.309   4.134  0.7409  0.2896 -0.0137
15058TIP3    H166589   0.118   6.325   4.120  1.0405  0.9705 -1.3173
15058TIP3    H266590   0.225   6.220   4.103  0.8214  0.7437 -1.3018
15059TIP3   OH266591   1.660   4.028  12.392  0.0111 -0.4227  0.8950
15059TIP3    H166592   1.715   3.992  12.462  0.9605 -0.9325 -0.0947
15059TIP3    H266593   1.655   4.122  12.411 -0.5237 -0.7015  2.1742
15060TIP3   OH266594   6.166   0.539  14.781 -0.1298 -0.3148  0.3927
15060TIP3    H166595   6.139   0.601  14.849  1.0227  0.9362 -0.2736
15060TIP3    H266596   6.085   0.521  14.732 -0.2445  1.5572 -0.1195
15061TIP3   OH266597   5.047   4.378   4.433 -0.2924 -0.0201 -0.4509
15061TIP3    H166598   4.998   4.305   4.471  0.3773 -0.1652  0.1450
15061TIP3    H266599   5.008   4.456   4.472  0.1400 -0.1501  0.2398
15062TIP3   OH266600   0.725   1.885  16.450 -0.1466  0.1482  0.0188
15062TIP3    H166601   0.655   1.948  16.431 -0.0361  0.3183  0.1748
15062TIP3    H266602   0.685   1.823  16.510 -0.6053 -0.5907 -1.0284
15063TIP3   OH266603   4.660   3.385   3.004  0.5298  0.0462 -0.3174
15063TIP3    H166604   4.744   3.365   3.045  1.8796  0.4621 -2.7630
15063TIP3    H266605   4.663   3.480   2.989  1.3053 -0.4552 -3.8334
15064TIP3   OH266606   2.658   2.405  16.487  0.3858 -0.2690 -0.2865
15064TIP3    H166607   2.692   2.341  16.549 -0.7949 -0.8364 -0.1963
15064TIP3    H266608   2.677   2.367  16.401  0.8040 -0.1430 -0.2454
15065TIP3   OH266609   3.164   3.220   5.970 -0.8661  1.0147  0.7795
15065TIP3    H166610   3.109   3.296   5.952 -0.4654  0.9919 -0.5606
15065TIP3    H266611   3.174   3.219   6.065 -2.1705  1.7234  0.9260
15066TIP3   OH266612   4.733   1.037   5.462 -1.0004  0.5651 -0.3821
15066TIP3    H166613   4.655   1.073   5.422 -1.0849  0.6148 -0.1716
15066TIP3    H266614   4.793   1.111   5.471 -0.8455  0.4859 -0.7422
15067TIP3   OH266615   5.818   5.411   6.065  0.2989  0.0528  0.0702
15067TIP3    H166616   5.865   5.327   6.068 -0.5234 -0.4369 -0.5481
15067TIP3    H266617   5.871   5.470   6.119  0.4469 -1.0944  1.1988
15068TIP3   OH266618   4.086   5.790   2.056 -0.3307 -0.0322  0.0283
15068TIP3    H166619   4.105   5.715   2.112 -0.3450 -0.4287 -0.4965
15068TIP3    H266620   4.151   5.856   2.082  0.1870 -0.5070 -0.0518
15069TIP3   OH266621   6.626   1.189   0.236  0.3373  0.0856  0.2128
15069TIP3    H166622   6.534   1.182   0.262  0.7347 -1.6663  1.2404
15069TIP3    H266623   6.630   1.143   0.153  0.3649 -0.2073  0.3757
15070TIP3   OH266624   5.933   5.008  13.686 -0.1205  0.1472 -0.0883
15070TIP3    H166625   6.012   5.007  13.740  0.9069  0.2469 -1.5465
15070TIP3    H266626   5.884   4.931  13.713 -0.1619  0.8020  1.7420
15071TIP3   OH266627   1.330   1.440  12.213  0.0928 -0.0178  0.6658
15071TIP3    H166628   1.324   1.452  12.308 -2.8739 -3.3406  1.0329
15071TIP3    H266629   1.249   1.480  12.179  0.4297 -0.1226 -0.2775
15072TIP3   OH266630   3.133   0.388  15.744  0.2432 -0.6962 -0.0309
15072TIP3    H166631   3.160   0.309  15.698  1.8960 -0.3413  0.2760
15072TIP3    H266632   3.148   0.459  15.680 -0.0315 -0.5041  0.1181
15073TIP3   OH266633   6.627   3.485  13.766  0.4387 -0.3752 -0.0333
15073TIP3    H166634   6.647   3.412  13.709 -0.1558 -1.5408  1.2095
15073TIP3    H266635   6.711   3.529  13.780  0.8576 -1.0057 -0.5322
15074TIP3   OH266636   6.383   4.220  12.985 -1.0663 -0.2623  0.6171
15074TIP3    H166637   6.302   4.271  12.975 -1.1066 -0.2764  0.8581
15074TIP3    H266638   6.374   4.179  13.071 -0.0250  1.0933  1.3788
15075TIP3   OH266639   0.071   1.532   4.535  0.1145 -0.5550  0.3703
15075TIP3    H166640  -0.015   1.524   4.574 -0.4250  1.4959 -0.3549
15075TIP3    H266641   0.121   1.587   4.595 -0.3819  1.6957 -1.2380
15076TIP3   OH266642   0.104   4.822  14.149 -0.0954 -0.6116  0.0794
15076TIP3    H166643   0.016   4.787  14.155  0.7319 -2.7796  0.0629
15076TIP3    H266644   0.126   4.848  14.238 -1.8228  2.7629 -0.4060
15077TIP3   OH266645   1.744   3.629  14.237  0.3962 -0.2455  0.5197
15077TIP3    H166646   1.822   3.672  14.202  0.4832 -0.6840  0.1756
15077TIP3    H266647   1.769   3.600  14.324  0.5857 -0.2872  0.4513
15078TIP3   OH266648   6.115   2.760   4.050  0.0127  0.3651 -0.0280
15078TIP3    H166649   6.055   2.732   3.980 -0.5992  2.5015 -0.4123
15078TIP3    H266650   6.064   2.752   4.130  0.1085 -0.3784 -0.0429
15079TIP3   OH266651   5.378   3.764  11.648 -0.1729  0.3259  0.6232
15079TIP3    H166652   5.339   3.787  11.564  1.2965 -2.9157 -1.0393
15079TIP3    H266653   5.303   3.755  11.707 -1.4957 -0.5664 -1.1437
15080TIP3   OH266654   6.363   0.174  17.013  0.2506  0.3774 -0.9407
15080TIP3    H166655   6.360   0.250  17.071 -0.3408  0.8278 -1.5518
15080TIP3    H266656   6.455   0.162  16.993  0.0893  2.9330 -3.4364
15081TIP3   OH266657   2.961   4.015  11.792  0.1250  0.2403  0.1623
15081TIP3    H166658   2.960   4.046  11.701 -0.6007  1.2303  0.5004
15081TIP3    H266659   2.931   3.925  11.787  1.9880 -0.3693 -0.8085
15082TIP3   OH266660   1.231   3.760   1.917  0.2216  0.3809 -0.4698
15082TIP3    H166661   1.158   3.816   1.889 -1.4808 -1.7161 -0.3062
15082TIP3    H266662   1.234   3.690   1.852  0.2333 -1.1313  1.1267
15083TIP3   OH266663   5.318   1.830   4.901 -0.3608  0.1255 -0.2700
15083TIP3    H166664   5.317   1.910   4.954  1.0152 -0.4268  0.6113
15083TIP3    H266665   5.337   1.760   4.964  3.4348 -0.3070 -1.7752
15084TIP3   OH266666   5.467   5.699  13.788 -0.4622  0.2676  0.6293
15084TIP3    H166667   5.477   5.621  13.843  1.3257 -0.3593 -0.5471
15084TIP3    H266668   5.483   5.668  13.699  0.1797  1.9521  0.1370
15085TIP3   OH266669   1.848   3.919   1.226 -0.1226  0.3614 -0.2005
15085TIP3    H166670   1.861   3.958   1.140  0.2133  0.8100  0.0531
15085TIP3    H266671   1.875   3.828   1.215 -0.0386  0.4281 -0.5554
15086TIP3   OH266672   5.945   0.225   2.803 -0.0335  1.6575 -0.0992
15086TIP3    H166673   5.869   0.268   2.764 -0.8872 -0.6705 -1.1226
15086TIP3    H266674   5.911   0.183   2.882  0.9640  3.4621  1.3452
15087TIP3   OH266675   6.219   4.026   5.296 -0.5544 -0.3640 -0.4167
15087TIP3    H166676   6.254   3.963   5.358  0.8438  0.0086 -0.8066
15087TIP3    H266677   6.237   4.111   5.336 -2.8463 -0.1937  0.3278
15088TIP3   OH266678   4.980   6.762   4.014  0.0471  0.3134  0.3327
15088TIP3    H166679   4.902   6.720   4.051 -1.2110  2.0491 -0.2972
15088TIP3    H266680   5.045   6.757   4.084 -1.7804  2.0752  2.2491
15089TIP3   OH266681   1.288   3.257   3.325  0.2724 -0.4525 -0.5998
15089TIP3    H166682   1.211   3.204   3.341 -1.0635  1.2233 -1.3408
15089TIP3    H266683   1.320   3.229   3.239 -0.2576 -0.2744 -0.8585
15090TIP3   OH266684   4.171   4.081  11.167 -0.4204  0.0366  0.3536
15090TIP3    H166685   4.206   4.023  11.100  0.9299  0.4725  0.6537
15090TIP3    H266686   4.193   4.038  11.250 -1.0445  0.0717  0.5383
15091TIP3   OH266687   0.378   5.017   2.765 -0.5665  0.4727  0.0342
15091TIP3    H166688   0.391   5.046   2.855 -3.4567  0.3595  0.5187
15091TIP3    H266689   0.379   5.097   2.713  1.2927  0.5209  0.1013
15092TIP3   OH266690   3.496   4.675   5.434  0.3289  0.6363 -0.2006
15092TIP3    H166691   3.490   4.759   5.388  2.1969  2.3229  2.4331
15092TIP3    H266692   3.419   4.673   5.490  0.6355  0.9391  0.2379
15093TIP3   OH266693   3.917   4.824   3.596  0.9245  0.2322 -0.0310
15093TIP3    H166694   3.843   4.778   3.555  0.3146 -0.6627  2.0040
15093TIP3    H266695   3.880   4.908   3.624  1.1745  0.5685 -0.6916
15094TIP3   OH266696   0.848   6.786  16.525 -0.3938  0.2817  0.0106
15094TIP3    H166697   0.755   6.769  16.536 -0.1820 -2.0212 -1.1813
15094TIP3    H266698   0.854   6.838  16.445 -0.6755  0.6576  0.2352
15095TIP3   OH266699   6.058   2.927   0.937  0.0545 -0.4554 -0.0211
15095TIP3    H166700   6.138   2.882   0.909  0.8873  0.6834  0.4587
15095TIP3    H266701   6.017   2.956   0.855  1.0055  0.4022 -0.2045
15096TIP3   OH266702   4.847   0.387  14.712  0.3823 -0.3228 -0.0035
15096TIP3    H166703   4.777   0.404  14.775  0.6930 -0.7723  0.4731
15096TIP3    H266704   4.880   0.473  14.689  0.1036 -0.1413  0.2619
15097TIP3   OH266705   5.549   5.648   0.263 -0.3349 -0.4347 -0.1062
15097TIP3    H166706   5.596   5.594   0.328  1.1969 -0.4705 -1.2106
15097TIP3    H266707   5.475   5.595   0.236 -1.6506  0.0347  2.4533
15098TIP3   OH266708   5.349   2.104   6.647  0.0003 -0.1244 -0.0736
15098TIP3    H166709   5.383   2.037   6.706  1.0538  1.2310  0.9028
15098TIP3    H266710   5.292   2.157   6.702 -2.5847 -1.4839 -1.3555
15099TIP3   OH266711   5.706   6.192  15.107 -0.5938  0.2360 -0.3758
15099TIP3    H166712   5.676   6.272  15.150 -1.1813  1.3391 -2.7485
15099TIP3    H266713   5.782   6.219  15.055 -0.5600 -0.8135 -0.9053
15100TIP3   OH266714   2.608   6.478  13.237  0.2089  0.7752  0.4389
15100TIP3    H166715   2.703   6.486  13.247  0.6998 -2.2241 -0.9909
15100TIP3    H266716   2.588   6.528  13.158  1.2167 -1.4520 -1.3010
15101TIP3   OH266717   0.014   2.059  16.794  0.4678  0.0987  0.7709
15101TIP3    H166718   0.033   2.071  16.887 -0.9698 -1.4193  1.2801
15101TIP3    H266719   0.094   2.022  16.758  1.0181  0.6542  1.3999
15102TIP3   OH266720   5.941   2.664   6.426 -0.1517 -0.8707 -0.2641
15102TIP3    H166721   5.984   2.618   6.498  1.2280 -0.3699 -0.7668
15102TIP3    H266722   5.962   2.612   6.348 -1.3876 -1.2407 -0.3720
15103TIP3   OH266723   1.079   5.454   2.127 -0.0047  0.0212 -0.0016
15103TIP3    H166724   1.038   5.540   2.132  0.4772  0.2074  0.9585
15103TIP3    H266725   1.054   5.411   2.209  0.8984 -0.2264  0.1536
15104TIP3   OH266726   2.617   4.079  11.438 -0.2815  0.1711  0.6128
15104TIP3    H166727   2.660   4.067  11.353  0.4076 -1.8809  1.2128
15104TIP3    H266728   2.597   4.172  11.442 -1.8381  0.0126 -2.5053
15105TIP3   OH266729   5.887   0.645   0.823  0.0883 -0.1007  0.0122
15105TIP3    H166730   5.888   0.705   0.897  0.3310  0.1798 -0.2154
15105TIP3    H266731   5.957   0.583   0.841 -0.3620 -0.5027  0.3974
15106TIP3   OH266732   4.360   0.804  14.386  0.1711 -0.1111 -0.2070
15106TIP3    H166733   4.435   0.762  14.344  0.7578  1.1397 -0.4263
15106TIP3    H266734   4.314   0.849  14.316 -1.0207 -1.2124 -0.1366
15107TIP3   OH266735   2.725   0.772   3.409  0.5644 -0.3338  0.4050
15107TIP3    H166736   2.685   0.781   3.323  0.7591 -1.5474  0.1837
15107TIP3    H266737   2.654   0.791   3.471  0.1452 -0.5360 -0.0134
15108TIP3   OH266738   4.944   0.260  13.794 -0.1194 -0.4326 -0.1713
15108TIP3    H166739   4.868   0.212  13.829 -0.6279 -0.9660 -1.9577
15108TIP3    H266740   5.017   0.234  13.850 -1.1614 -0.2960  1.2661
15109TIP3   OH266741   5.244   5.878  14.591 -0.2652 -0.6108 -0.1554
15109TIP3    H166742   5.311   5.834  14.538 -0.6685 -0.0667 -1.1341
15109TIP3    H266743   5.205   5.942  14.532 -0.7069  0.0330  0.8209
15110TIP3   OH266744   6.361   5.066   0.817  0.3016  0.5431 -0.1074
15110TIP3    H166745   6.269   5.080   0.839  0.2033 -0.9096  0.4108
15110TIP3    H266746   6.365   4.977   0.783  1.6844  0.2713  0.7463
15111TIP3   OH266747   3.363   1.366   0.905 -0.0107  0.1168 -0.4359
15111TIP3    H166748   3.377   1.285   0.856 -0.9700  1.1283 -2.4358
15111TIP3    H266749   3.368   1.339   0.997 -1.7975 -2.4959 -1.0413
15112TIP3   OH266750   5.174   1.400   1.732  0.1043  0.0350  0.4090
15112TIP3    H166751   5.133   1.477   1.772  1.3590  0.9875 -0.0882
15112TIP3    H266752   5.207   1.431   1.648  0.9293 -0.9538  0.3536
15113TIP3   OH266753   2.822   4.612  15.781 -0.1403 -0.0814  0.2701
15113TIP3    H166754   2.896   4.640  15.835  0.0463 -0.8473  0.4153
15113TIP3    H266755   2.847   4.635  15.692 -0.1287  0.5110  0.4256
15114TIP3   OH266756   1.919   5.264   5.046  0.0469 -0.4574 -0.0149
15114TIP3    H166757   1.975   5.304   4.979  0.0897 -0.5761 -0.0517
15114TIP3    H266758   1.870   5.337   5.083  0.3137 -0.3350  0.0984
15115TIP3   OH266759   3.505   5.413   2.823  0.2963  0.2010 -0.1683
15115TIP3    H166760   3.575   5.469   2.789  0.8352  0.9733  2.1580
15115TIP3    H266761   3.550   5.343   2.871 -0.5078  1.2552  2.1934
15116TIP3   OH266762   4.882   5.424   6.177  0.6369  0.0100 -0.3353
15116TIP3    H166763   4.826   5.487   6.131  0.7094 -0.9023 -1.7229
15116TIP3    H266764   4.897   5.354   6.112  1.6026 -0.8015  0.7450
15117TIP3   OH266765   1.832   4.710   1.739  0.2799 -0.0421 -0.2083
15117TIP3    H166766   1.787   4.761   1.807 -0.6812  0.3858 -1.1536
15117TIP3    H266767   1.828   4.619   1.770  1.8174  0.4144  1.3844
15118TIP3   OH266768   4.976   3.625   1.213  0.0231  0.7251  0.1836
15118TIP3    H166769   5.050   3.575   1.178 -0.8854 -0.1759 -0.5053
15118TIP3    H266770   4.994   3.634   1.306  1.4493  1.3212 -0.1471
15119TIP3   OH266771   5.687   1.344  15.941  0.1190 -0.1686  0.0937
15119TIP3    H166772   5.672   1.301  16.025 -0.3817  0.1617  0.1762
15119TIP3    H266773   5.638   1.426  15.947 -1.5182 -1.0151 -1.2360
15120TIP3   OH266774   3.567   3.898  12.795 -0.6603  0.0700  0.1757
15120TIP3    H166775   3.639   3.958  12.774 -2.2046  1.4170 -1.3222
15120TIP3    H266776   3.611   3.820  12.828  1.4234  1.6366  1.2192
15121TIP3   OH266777   0.151   4.644  13.235  0.0243 -0.2999  0.1108
15121TIP3    H166778   0.063   4.626  13.267 -1.1227  0.6228 -2.4007
15121TIP3    H266779   0.183   4.715  13.291 -0.8517 -0.5668  0.9625
15122TIP3   OH266780   4.424   5.603  12.382 -0.3409 -0.6458 -0.3276
15122TIP3    H166781   4.509   5.589  12.422 -0.9427  1.5074  1.8563
15122TIP3    H266782   4.441   5.663  12.309  0.0147 -0.0389  0.2426
15123TIP3   OH266783   1.604   5.812   0.267 -0.1981  0.1173 -0.2690
15123TIP3    H166784   1.552   5.845   0.194 -0.7382 -2.0874 -0.8979
15123TIP3    H266785   1.542   5.766   0.323  0.8859 -1.6407 -0.4913
15124TIP3   OH266786   2.813   1.689  14.239 -0.2943  0.0588 -0.1377
15124TIP3    H166787   2.902   1.652  14.244 -0.9542 -1.3926  1.3417
15124TIP3    H266788   2.765   1.627  14.185 -0.4501  0.7758 -0.8256
15125TIP3   OH266789   2.829   4.929   0.319  0.0044  0.4286 -0.3168
15125TIP3    H166790   2.866   4.885   0.243  1.2167  2.2663 -0.8330
15125TIP3    H266791   2.748   4.882   0.337 -0.0258 -0.3814 -2.4036
15126TIP3   OH266792   4.422   3.190   1.239  0.3606 -0.0126 -0.0134
15126TIP3    H166793   4.483   3.136   1.289 -1.9669 -5.0430 -2.2879
15126TIP3    H266794   4.475   3.224   1.166  1.1435 -1.9570 -0.3845
15127TIP3   OH266795   5.258   5.081   5.970  0.3666 -0.1890 -0.1215
15127TIP3    H166796   5.330   5.033   5.929  0.9341  0.8972 -0.4194
15127TIP3    H266797   5.276   5.173   5.950 -0.7114  0.1493  0.4262
15128TIP3   OH266798   4.737   5.088   4.960  0.0273 -0.4930 -0.3091
15128TIP3    H166799   4.745   5.000   4.996  1.7248 -0.2084  0.0509
15128TIP3    H266800   4.645   5.112   4.975 -0.7240 -2.5844 -1.3492
15129TIP3   OH266801   1.430   5.278   0.065 -0.5958  0.2875 -0.0429
15129TIP3    H166802   1.426   5.326   0.147  0.7664 -1.5301  1.1452
15129TIP3    H266803   1.438   5.186   0.092  0.4199 -0.2852 -2.1896
15130TIP3   OH266804   4.138   0.171   0.785  0.0468 -0.2689  0.1736
15130TIP3    H166805   4.171   0.260   0.798 -0.6018  0.0142 -0.0972
15130TIP3    H266806   4.172   0.122   0.860  0.3054  0.2378  0.3903
15131TIP3   OH266807   6.179   5.917   4.588  0.1842  0.9352 -1.2192
15131TIP3    H166808   6.138   5.851   4.644  0.9712 -0.0776 -1.8298
15131TIP3    H266809   6.110   5.981   4.573  0.0369  1.3934  1.1543
15132TIP3   OH266810   1.333   1.742   3.281  0.7946  0.4886  0.7696
15132TIP3    H166811   1.429   1.746   3.274  0.7014 -0.3137 -1.4660
15132TIP3    H266812   1.302   1.802   3.214 -0.2598 -0.8130  0.0630
15133TIP3   OH266813   2.771   2.785  15.380  0.6501  0.3093 -0.3256
15133TIP3    H166814   2.758   2.854  15.444 -1.9319  0.1401 -0.5863
15133TIP3    H266815   2.755   2.704  15.428 -0.5791  0.1438 -0.9712
15134TIP3   OH266816   5.392   1.988   1.968  0.0438 -0.2142 -0.0461
15134TIP3    H166817   5.307   1.984   2.010  0.2442  0.3870  0.4175
15134TIP3    H266818   5.455   1.983   2.040  0.4010 -0.9316 -0.4073
15135TIP3   OH266819   3.500   0.583   2.281 -0.4139  0.2730  0.4016
15135TIP3    H166820   3.516   0.606   2.372 -4.0583 -1.3962  1.5303
15135TIP3    H266821   3.453   0.659   2.245  0.2626  0.5653  0.1182
15136TIP3   OH266822   1.654   5.191  13.246  0.5860  0.1457 -0.4098
15136TIP3    H166823   1.572   5.144  13.229  1.2089 -1.4270  0.8645
15136TIP3    H266824   1.639   5.278  13.209 -1.9732  0.1494  0.4959
15137TIP3   OH266825   5.603   2.227  12.413  0.0619 -0.1551 -0.5562
15137TIP3    H166826   5.649   2.237  12.496 -0.2887  0.8187 -0.4715
15137TIP3    H266827   5.521   2.274  12.425  0.9114  1.8279 -2.1521
15138TIP3   OH266828   5.277   2.369   1.442 -0.0592  0.2860 -0.2514
15138TIP3    H166829   5.184   2.378   1.462 -0.4275  0.9052 -2.0796
15138TIP3    H266830   5.278   2.332   1.354  1.4267 -0.0012 -0.1174
15139TIP3   OH266831   2.916   2.479   3.788 -0.5188 -0.0170  0.5852
15139TIP3    H166832   2.925   2.428   3.868 -1.8814 -2.4359 -0.7789
15139TIP3    H266833   2.843   2.538   3.805 -0.8797 -0.6061  1.0839
15140TIP3   OH266834   0.759   6.157   4.667 -0.7098  0.4961 -0.6575
15140TIP3    H166835   0.848   6.167   4.635  0.0778 -2.4437  0.4400
15140TIP3    H266836   0.725   6.081   4.621 -1.8483  0.2009  0.6236
15141TIP3   OH266837   2.453   6.606   0.715  0.1768 -0.2630 -0.2379
15141TIP3    H166838   2.418   6.694   0.703  0.9609 -0.0127 -0.7000
15141TIP3    H266839   2.518   6.615   0.784  0.6203 -0.3826 -0.6408
15142TIP3   OH266840   5.968   0.070  12.707  0.0993  0.3368 -0.4948
15142TIP3    H166841   6.020  -0.005  12.736 -0.9310  0.0050  0.5487
15142TIP3    H266842   5.933   0.044  12.622  1.3709  0.4352 -1.0558
15143TIP3   OH266843   5.719   4.414   2.924 -0.3715  0.4423 -0.4670
15143TIP3    H166844   5.665   4.361   2.865  0.8158 -0.9297 -0.3137
15143TIP3    H266845   5.655   4.463   2.976 -1.5078 -1.7200  0.2211
15144TIP3   OH266846   0.833   4.252  16.555 -0.7201 -0.0356 -0.4289
15144TIP3    H166847   0.841   4.343  16.527  2.2177 -0.3126 -0.6145
15144TIP3    H266848   0.882   4.248  16.637 -3.3465 -0.8145  1.1693
15145TIP3   OH266849   2.368   1.000  15.434 -0.3037 -0.0939  0.4252
15145TIP3    H166850   2.307   1.072  15.450  0.6551  0.5204  1.3670
15145TIP3    H266851   2.316   0.921  15.448 -1.1943  0.4186  0.0413
15146TIP3   OH266852   3.181   4.913   2.745  0.5054  0.1363  0.2247
15146TIP3    H166853   3.276   4.896   2.746  0.4130 -0.3291  1.0669
15146TIP3    H266854   3.147   4.851   2.681  0.7845  0.3850 -0.1684
15147TIP3   OH266855   6.573   2.153   0.268 -0.8969 -0.2179  0.2321
15147TIP3    H166856   6.494   2.206   0.278  0.2542  2.0750 -2.0492
15147TIP3    H266857   6.549   2.084   0.207 -1.3968 -0.0442  0.2305
15148TIP3   OH266858   4.820   0.224  16.944  0.0452 -0.0523 -0.5405
15148TIP3    H166859   4.896   0.211  16.888 -0.4884 -0.6787 -1.1297
15148TIP3    H266860   4.846   0.294  17.004  1.1606 -0.4122 -0.5861
15149TIP3   OH266861   5.746   0.667  10.719  0.1817  0.2543  0.0346
15149TIP3    H166862   5.796   0.749  10.718  0.2165  0.2301 -0.9588
15149TIP3    H266863   5.776   0.621  10.640 -0.6948 -0.1891 -0.0355
15150TIP3   OH266864   4.637   3.444   5.208 -0.3586  0.2675  0.1635
15150TIP3    H166865   4.698   3.517   5.213 -1.0693  0.9082 -0.3165
15150TIP3    H266866   4.563   3.470   5.263  0.5260 -1.2480  2.1530
15151TIP3   OH266867   1.299   4.450  12.749 -0.6661  0.5806  0.0296
15151TIP3    H166868   1.362   4.515  12.719  0.4359 -0.1343  0.7900
15151TIP3    H266869   1.325   4.369  12.704 -0.9207  0.2375  0.5015
15152TIP3   OH266870   1.169   0.987   1.111  0.2831 -0.0320  0.9440
15152TIP3    H166871   1.102   0.923   1.137  1.2284 -1.1351  0.7280
15152TIP3    H266872   1.133   1.072   1.137 -1.8051 -0.4657 -0.3862
15153TIP3   OH266873   5.831   1.886  17.015 -0.4049  0.4349  0.1172
15153TIP3    H166874   5.750   1.930  17.040  0.4694  2.6147 -0.8075
15153TIP3    H266875   5.893   1.957  16.997  1.7814 -1.1723  0.9808
15154TIP3   OH266876   5.740   0.679   4.932 -0.1423 -0.2103  0.2708
15154TIP3    H166877   5.649   0.666   4.906  0.3128 -0.5210 -1.2405
15154TIP3    H266878   5.768   0.594   4.964 -0.5649  0.0495  1.3509
15155TIP3   OH266879   3.297   4.189  12.601 -0.0737  0.8143  0.3397
15155TIP3    H166880   3.379   4.204  12.649  1.1743 -0.0676 -1.4249
15155TIP3    H266881   3.251   4.273  12.605  0.4126  1.0013  2.2973
15156TIP3   OH266882   1.296   5.447  10.981  0.0303  0.4208  0.4126
15156TIP3    H166883   1.386   5.415  10.978 -0.9114 -2.3198 -0.4092
15156TIP3    H266884   1.255   5.412  10.902 -1.0953  3.8428 -0.6354
15157TIP3   OH266885   0.727   1.281   2.514  0.0564  0.0348 -0.0749
15157TIP3    H166886   0.659   1.312   2.454  0.7274  0.6671 -0.5105
15157TIP3    H266887   0.806   1.280   2.461  0.4908 -0.2094  0.5782
15158TIP3   OH266888   2.304   0.274   4.451 -0.0172  0.0379  0.9655
15158TIP3    H166889   2.385   0.263   4.500 -0.7196 -0.2458  2.0645
15158TIP3    H266890   2.320   0.349   4.394  0.9610  0.0784  1.2923
15159TIP3   OH266891   0.458   3.794  11.726  0.3654  0.9485 -0.1498
15159TIP3    H166892   0.422   3.767  11.641 -1.4818  3.4900 -0.2616
15159TIP3    H266893   0.455   3.715  11.780 -0.7735 -0.1189 -1.7252
15160TIP3   OH266894   5.308   5.532  15.580 -0.0600  0.4557  0.1982
15160TIP3    H166895   5.395   5.551  15.616  2.1748 -3.3555 -2.8380
15160TIP3    H266896   5.286   5.610  15.529  1.8781  1.2069  0.4594
15161TIP3   OH266897   5.929   0.763  12.910 -0.1219  0.1928 -0.3470
15161TIP3    H166898   5.879   0.711  12.847  0.5463  0.0970 -0.8112
15161TIP3    H266899   5.865   0.824  12.947 -0.4778  0.3944 -1.2779
15162TIP3   OH266900   4.770   1.896   2.495  0.2106 -0.0218 -0.2643
15162TIP3    H166901   4.800   1.813   2.531 -1.1949 -0.9829 -1.2760
15162TIP3    H266902   4.677   1.900   2.518 -0.3558  0.0409 -2.4521
15163TIP3   OH266903   4.386   3.755  15.476 -0.1239 -0.0218 -0.9373
15163TIP3    H166904   4.318   3.740  15.541 -0.6074  0.4070 -1.3431
15163TIP3    H266905   4.464   3.713  15.512 -0.2083  0.8272  0.2574
15164TIP3   OH266906   1.890   5.785   1.141  0.3267 -0.0783  0.1287
15164TIP3    H166907   1.838   5.720   1.189 -0.5662  0.8154  0.3869
15164TIP3    H266908   1.826   5.832   1.088  1.0862  0.0550 -0.6714
15165TIP3   OH266909   2.044   4.665   5.406  0.7466 -0.0912  0.0823
15165TIP3    H166910   2.051   4.672   5.311  0.5454 -1.4264 -0.0498
15165TIP3    H266911   2.088   4.743   5.440 -4.0382  3.3899 -1.1945
15166TIP3   OH266912   5.222   5.060   5.483 -0.0102 -0.9233 -0.1408
15166TIP3    H166913   5.247   5.076   5.392 -1.1221  0.6071 -0.1944
15166TIP3    H266914   5.297   5.091   5.534 -1.0009  1.9812 -0.3745
15167TIP3   OH266915   3.152   3.878   0.758 -0.3714  0.2473  0.1983
15167TIP3    H166916   3.157   3.788   0.726  0.0976 -0.3101  1.7950
15167TIP3    H266917   3.068   3.910   0.726 -1.1224 -1.1882  0.7207
15168TIP3   OH266918   2.615   0.746  16.648  0.1285 -0.0015  0.0665
15168TIP3    H166919   2.704   0.711  16.657  0.0779 -1.3880 -3.9166
15168TIP3    H266920   2.625   0.841  16.649  1.1888 -0.1013  3.1824
15169TIP3   OH266921   2.475   2.626   2.740  0.2581 -0.1143 -0.0437
15169TIP3    H166922   2.566   2.619   2.771  0.5517 -0.4154 -0.9501
15169TIP3    H266923   2.462   2.547   2.688 -0.6359 -0.2289  0.3409
15170TIP3   OH266924   4.475   3.241   0.777 -0.5038 -0.4264  0.0271
15170TIP3    H166925   4.408   3.269   0.838  0.3417 -1.0709  1.2768
15170TIP3    H266926   4.553   3.227   0.831  0.3526 -0.6671 -1.2407
15171TIP3   OH266927   2.927   4.501  14.563 -0.0963  0.5577  0.1694
15171TIP3    H166928   2.879   4.474  14.641 -2.2436  0.1266 -1.2621
15171TIP3    H266929   2.919   4.427  14.503 -1.6204  2.2964 -1.8393
15172TIP3   OH266930   1.075   2.735   5.495  0.5854 -0.0318  0.0398
15172TIP3    H166931   1.069   2.657   5.441 -1.8256  0.5215 -0.5362
15172TIP3    H266932   0.999   2.730   5.554  0.1464  2.0685 -0.2979
15173TIP3   OH266933   0.380   4.866  17.180  0.3995 -0.1617  0.3723
15173TIP3    H166934   0.419   4.815  17.109  1.5689 -0.3436  1.1213
15173TIP3    H266935   0.379   4.956  17.148  0.9335 -0.2404  0.1256
15174TIP3   OH266936   3.431   5.794  16.565 -0.2392 -0.1594 -0.0857
15174TIP3    H166937   3.429   5.864  16.630  0.8567  1.2828 -1.5699
15174TIP3    H266938   3.376   5.827  16.493 -0.5222 -1.2529 -0.3832
15175TIP3   OH266939   1.026   1.388   5.900 -0.0967  0.3201  0.4036
15175TIP3    H166940   0.995   1.424   5.983  0.7484  0.5965  0.5989
15175TIP3    H266941   1.116   1.418   5.892 -0.8764  2.2758 -1.7265
15176TIP3   OH266942   6.259   5.306  13.840  0.3439  0.0930 -0.5247
15176TIP3    H166943   6.304   5.279  13.761  0.2261 -1.5635 -0.0338
15176TIP3    H266944   6.329   5.341  13.896  0.3687  1.6633 -1.4907
15177TIP3   OH266945   6.333   3.239  12.154  0.1777 -0.3806 -0.0073
15177TIP3    H166946   6.247   3.199  12.144 -1.8943  4.1157 -0.9971
15177TIP3    H266947   6.353   3.275  12.067  1.1086  2.3235  1.2859
15178TIP3   OH266948   2.784   5.412  15.318  0.4494 -0.3664 -0.0856
15178TIP3    H166949   2.834   5.368  15.249  0.7574  1.0899 -0.8242
15178TIP3    H266950   2.837   5.489  15.340 -0.3073 -0.1039  0.8388
15179TIP3   OH266951   2.086   0.125  11.898  0.1295  0.2512 -0.1663
15179TIP3    H166952   2.043   0.062  11.841 -0.6576  0.2126  0.4680
15179TIP3    H266953   2.035   0.206  11.888  1.1254  0.8046 -0.9698
15180TIP3   OH266954   3.554   4.556   0.230  0.2412 -0.9337 -0.3852
15180TIP3    H166955   3.466   4.537   0.197 -0.3840  2.3006 -0.7478
15180TIP3    H266956   3.611   4.541   0.155  0.0372 -3.1670 -0.1154
15181TIP3   OH266957   5.072   2.772   4.807  0.4880 -0.5762  0.1392
15181TIP3    H166958   5.126   2.814   4.873  1.3643 -0.4312 -0.6500
15181TIP3    H266959   5.088   2.678   4.818 -1.4232 -0.7143  1.8617
15182TIP3   OH266960   1.329   4.183  17.191  0.1625 -0.1473  0.5702
15182TIP3    H166961   1.326   4.105  17.136 -0.7914  1.4128 -1.7216
15182TIP3    H266962   1.422   4.201  17.203  0.3977 -0.5609 -0.5474
15183TIP3   OH266963   4.838   5.555   0.473 -0.4908  1.1621  0.0857
15183TIP3    H166964   4.932   5.551   0.459 -0.3614  0.4981  1.0790
15183TIP3    H266965   4.800   5.547   0.385  0.3773  1.5883 -0.3271
15184TIP3   OH266966   6.112   3.665  13.006 -0.0162 -0.5062 -0.1165
15184TIP3    H166967   6.050   3.726  12.966  1.0773  0.0589 -0.9852
15184TIP3    H266968   6.098   3.583  12.958 -1.0279 -0.7553  0.6041
15185TIP3   OH266969   5.559   1.557   2.794 -0.0604  0.6842  0.0665
15185TIP3    H166970   5.512   1.585   2.716  0.4293 -1.0317 -0.8684
15185TIP3    H266971   5.528   1.468   2.810  0.2344  0.8309  1.5356
15186TIP3   OH266972   1.014   1.909   2.149 -0.2901 -0.0497 -0.4903
15186TIP3    H166973   1.091   1.912   2.205 -0.1964  0.1620 -0.6315
15186TIP3    H266974   1.044   1.938   2.063 -0.6324  0.5135 -0.4211
15187TIP3   OH266975   1.256   0.895   0.845 -0.1540  0.0477  0.0061
15187TIP3    H166976   1.270   0.980   0.802 -0.1532  0.5843  1.0668
15187TIP3    H266977   1.226   0.917   0.933 -1.9266 -1.0553 -0.2972
15188TIP3   OH266978   6.402   5.790  16.731 -0.0380 -0.1950 -0.6016
15188TIP3    H166979   6.384   5.771  16.639  0.9467  0.5504 -0.9551
15188TIP3    H266980   6.467   5.724  16.756  1.4264  1.0376 -1.1007
15189TIP3   OH266981   6.389   3.379   5.097  0.2521  0.3288 -0.1593
15189TIP3    H166982   6.357   3.290   5.079 -0.3016  0.6775 -0.9250
15189TIP3    H266983   6.313   3.435   5.082  0.2171  0.7937  1.7259
15190TIP3   OH266984   1.631   4.127  14.034  0.1074 -0.3227 -1.1070
15190TIP3    H166985   1.689   4.053  14.048  0.0184 -0.2128 -0.0839
15190TIP3    H266986   1.677   4.182  13.970  0.8946 -0.4878 -0.6879
15191TIP3   OH266987   2.362   1.205  11.110 -0.5424  0.3215 -0.2893
15191TIP3    H166988   2.331   1.114  11.111  1.0371 -0.2195 -0.0739
15191TIP3    H266989   2.397   1.218  11.022 -1.1585  0.8605 -0.4580
15192TIP3   OH266990   5.535   4.124  13.905  0.8761  0.0355  0.0821
15192TIP3    H166991   5.489   4.201  13.871 -0.4730 -0.5952  0.4441
15192TIP3    H266992   5.492   4.106  13.989 -0.3998 -2.4921 -1.0498
15193TIP3   OH266993   6.410   0.245   4.306  0.1811  0.3950  1.1792
15193TIP3    H166994   6.420   0.263   4.212 -0.2263  2.0166  1.4329
15193TIP3    H266995   6.499   0.246   4.340  0.3320 -0.2224  0.8092
15194TIP3   OH266996   1.119   0.839   1.938 -0.1309 -0.2954 -0.5756
15194TIP3    H166997   1.082   0.926   1.922  0.8274 -0.0328 -1.4042
15194TIP3    H266998   1.135   0.837   2.032  1.1048  0.9482 -0.7416
15195TIP3   OH266999   0.442   3.338  14.616 -0.2367 -0.0686 -0.4271
15195TIP3    H167000   0.496   3.410  14.647  0.5861 -0.6498 -0.4988
15195TIP3    H267001   0.427   3.357  14.523 -0.7274  0.4446 -0.2443
15196TIP3   OH267002   1.450   1.860  14.779  0.1369  0.8924  0.0402
15196TIP3    H167003   1.464   1.774  14.740 -2.5552  0.0177  0.8948
15196TIP3    H267004   1.514   1.865  14.851  0.1073 -0.4980  0.1658
15197TIP3   OH267005   0.233   4.374   3.893 -0.5396  0.8169  0.1998
15197TIP3    H167006   0.258   4.283   3.881  0.5515  1.4793 -3.1654
15197TIP3    H267007   0.177   4.394   3.817 -0.8875  2.8880  0.9558
15198TIP3   OH267008   4.410   4.890   4.604 -0.3067 -0.5795 -0.2864
15198TIP3    H167009   4.347   4.962   4.612 -0.2478 -0.7206  1.6293
15198TIP3    H267010   4.496   4.932   4.602 -0.4419 -0.3730 -3.1218
15199TIP3   OH267011   4.742   1.961   3.491  0.4308 -0.2729 -0.1198
15199TIP3    H167012   4.693   2.033   3.451 -0.6566 -0.6365  0.5338
15199TIP3    H267013   4.819   2.002   3.529 -0.1093  0.5334  0.1146
15200TIP3   OH267014   1.025   6.581  15.252  0.0041  0.2890  0.7634
15200TIP3    H167015   0.983   6.589  15.166  0.0539 -0.9767  0.6075
15200TIP3    H267016   0.981   6.506  15.293  0.6246  0.3052  1.4700
15201TIP3   OH267017   4.697   2.725   1.607  0.3234 -0.1601  0.0937
15201TIP3    H167018   4.731   2.812   1.585 -0.8015  0.0591 -0.8162
15201TIP3    H267019   4.662   2.735   1.695 -1.7550  0.8942 -0.8280
15202TIP3   OH267020   2.782   2.118   4.147  0.3849  0.0012 -0.0943
15202TIP3    H167021   2.764   2.036   4.101 -1.2100 -0.6607  1.6154
15202TIP3    H267022   2.821   2.090   4.230 -2.7068  0.7558  1.6898
15203TIP3   OH267023   6.437   5.754  15.497 -0.1375 -0.0601 -0.3979
15203TIP3    H167024   6.371   5.685  15.507 -1.3192  1.0351 -0.4788
15203TIP3    H267025   6.442   5.796  15.583 -0.8692  1.0070 -0.8580
15204TIP3   OH267026   2.258   4.615   4.799  0.9552 -0.4923  0.0701
15204TIP3    H167027   2.258   4.521   4.815  0.2427 -0.3460  0.9766
15204TIP3    H267028   2.348   4.635   4.773  1.0393 -1.4641 -0.4247
15205TIP3   OH267029   3.297   6.677  15.906  0.5663  0.6654  0.4443
15205TIP3    H167030   3.291   6.658  16.000 -0.6943  1.8561  0.6198
15205TIP3    H267031   3.241   6.611  15.866  0.2523  0.8176  0.6248
15206TIP3   OH267032   0.184   4.103  13.708  0.0477 -0.3761 -0.2887
15206TIP3    H167033   0.105   4.080  13.757  0.4623  0.7176  0.9302
15206TIP3    H267034   0.163   4.083  13.617 -0.9223 -1.9515  0.2729
15207TIP3   OH267035   1.943   3.184  14.166 -0.1205  0.3982 -0.5884
15207TIP3    H167036   1.892   3.265  14.167 -0.2791  0.3024 -0.9957
15207TIP3    H267037   2.022   3.204  14.216  1.2011  1.6481 -3.1573
15208TIP3   OH267038   4.355   0.548   3.965 -0.2980 -0.2303 -0.1892
15208TIP3    H167039   4.409   0.580   4.037 -1.3941 -0.1477  0.6110
15208TIP3    H267040   4.378   0.456   3.957  1.9949  0.4262 -1.7122
15209TIP3   OH267041   3.921   5.379  16.038 -0.3681 -0.4740 -0.3041
15209TIP3    H167042   3.872   5.459  16.017 -0.6768 -1.2224 -2.4638
15209TIP3    H267043   4.012   5.401  16.017 -0.4683 -0.7337 -0.9980
15210TIP3   OH267044   5.990   2.971  15.683  0.0105  0.1041 -0.0266
15210TIP3    H167045   5.897   2.993  15.677  0.2965  1.0639 -1.3316
15210TIP3    H267046   5.999   2.892  15.630 -0.2440 -0.5930  0.9699
15211TIP3   OH267047   0.958   1.727  14.685  0.3966  0.2104  0.5107
15211TIP3    H167048   1.041   1.739  14.732  0.6738 -1.0724  0.3883
15211TIP3    H267049   0.898   1.692  14.751  0.4619 -0.5233  0.1888
15212TIP3   OH267050   4.631   4.256  12.242  0.2320  0.2341 -0.3860
15212TIP3    H167051   4.650   4.331  12.186 -1.1937  0.2263 -0.9011
15212TIP3    H267052   4.590   4.294  12.320  1.8552  0.2112  0.5003
15213TIP3   OH267053   1.157   5.479   0.321  0.0432  0.3282 -0.6407
15213TIP3    H167054   1.188   5.390   0.335 -0.3099  0.3172  0.0725
15213TIP3    H267055   1.181   5.498   0.230  2.4845  0.4727  0.0092
15214TIP3   OH267056   4.373   3.989  15.327 -0.0738 -0.8008 -0.3435
15214TIP3    H167057   4.354   4.035  15.409 -1.3279 -0.8200 -0.6195
15214TIP3    H267058   4.407   3.904  15.355  2.2667  0.2604  0.1711
15215TIP3   OH267059   5.201   2.117   0.122 -0.3269  0.1091 -0.2787
15215TIP3    H167060   5.227   2.115   0.214 -1.4546  0.9755  0.0617
15215TIP3    H267061   5.196   2.210   0.100  0.2968 -0.0937 -1.3247
15216TIP3   OH267062   2.903   6.457   1.078  0.4561 -0.0040 -0.0355
15216TIP3    H167063   2.903   6.382   1.138  2.4228  0.5469  0.6755
15216TIP3    H267064   2.948   6.527   1.126  0.3883  1.0235 -1.4348
15217TIP3   OH267065   2.612   1.110  10.949  0.0306 -0.4179 -0.8841
15217TIP3    H167066   2.668   1.081  10.876  1.4210  1.4826 -0.6035
15217TIP3    H267067   2.564   1.185  10.914  0.3053  0.1680 -0.0130
15218TIP3   OH267068   4.237   2.845  13.506  0.8636 -0.0881 -0.2420
15218TIP3    H167069   4.194   2.818  13.425  1.0872 -0.9601 -0.0795
15218TIP3    H267070   4.330   2.848  13.484  0.8194  0.7937 -0.3205
15219TIP3   OH267071   4.235   3.086  13.776 -0.4152  0.7240 -0.1128
15219TIP3    H167072   4.253   3.067  13.684 -0.5449 -0.3018  0.0649
15219TIP3    H267073   4.283   3.166  13.794  1.9395 -0.6039 -0.3260
15220TIP3   OH267074   3.338   1.701   0.652  1.3917  0.1978 -0.5727
15220TIP3    H167075   3.362   1.696   0.744 -0.4750 -0.2437 -0.1081
15220TIP3    H267076   3.377   1.623   0.613  0.4705 -0.6918  0.2485
15221TIP3   OH267077   2.841   0.678   2.672 -0.4026 -0.1264 -0.6879
15221TIP3    H167078   2.911   0.615   2.685  1.3320  1.7402 -0.7651
15221TIP3    H267079   2.790   0.643   2.599 -0.1008 -1.9396 -0.0602
15222TIP3   OH267080   2.741   6.107   4.406 -0.1728 -0.2902  0.0889
15222TIP3    H167081   2.795   6.177   4.369  0.7862 -0.3909  1.2474
15222TIP3    H267082   2.700   6.147   4.483 -0.7700 -0.5782 -0.0806
15223TIP3   OH267083   4.033   4.851  14.070 -0.0616 -0.0706 -0.2330
15223TIP3    H167084   3.960   4.902  14.105  0.2511  0.9422 -1.0435
15223TIP3    H267085   4.100   4.856  14.138 -0.3041  0.0004  0.0008
15224TIP3   OH267086   5.459   1.814  15.983 -0.0197  0.4077 -0.1118
15224TIP3    H167087   5.513   1.810  15.904 -0.3582  2.6384 -0.4757
15224TIP3    H267088   5.480   1.899  16.022 -2.5741  0.9041  0.2420
15225TIP3   OH267089   1.681   2.897   5.936 -0.5698 -0.3810  0.0974
15225TIP3    H167090   1.764   2.856   5.957  0.2371  1.3751  0.4589
15225TIP3    H267091   1.682   2.908   5.841  0.1469  0.7055  0.2202
15226TIP3   OH267092   5.287   6.374   3.634 -0.6233 -0.4466 -0.2491
15226TIP3    H167093   5.354   6.361   3.567 -1.4536  0.8343 -1.3699
15226TIP3    H267094   5.204   6.359   3.589 -1.0843 -2.7584  1.3113
15227TIP3   OH267095   2.336   2.530   3.688 -0.0743 -0.0618 -1.0005
15227TIP3    H167096   2.320   2.504   3.598  0.6207  1.4606 -1.5784
15227TIP3    H267097   2.278   2.605   3.703  1.1224  0.8377 -0.7785
15228TIP3   OH267098   5.684   0.335   2.657 -0.1926  0.0026 -0.3579
15228TIP3    H167099   5.715   0.387   2.583 -1.8210  0.9600 -0.3888
15228TIP3    H267100   5.603   0.295   2.625 -0.4049 -0.3353  0.6004
15229TIP3   OH267101   4.205   1.908  15.686 -0.5598  0.2239  0.2800
15229TIP3    H167102   4.160   1.905  15.770 -2.0603 -2.0985 -0.5584
15229TIP3    H267103   4.287   1.861  15.700 -0.8742 -0.2854  0.4248
15230TIP3   OH267104   3.552   3.812   4.937 -0.0994  0.2699  0.4329
15230TIP3    H167105   3.504   3.802   5.019  2.3502 -1.0471  1.7441
15230TIP3    H267106   3.512   3.748   4.878 -1.3444  0.6808  0.8130
15231TIP3   OH267107   1.631   5.879   3.434  0.2974 -0.2773 -0.2234
15231TIP3    H167108   1.568   5.820   3.474  0.5974 -0.0147  0.6330
15231TIP3    H267109   1.653   5.837   3.350  0.2377 -1.1940  0.2125
15232TIP3   OH267110   3.596   2.718   3.815 -0.6872 -0.3189  0.1105
15232TIP3    H167111   3.538   2.793   3.802 -0.1712  0.0696  0.0313
15232TIP3    H267112   3.676   2.756   3.853 -0.9758 -1.0062  1.4574
15233TIP3   OH267113   1.842   3.154   2.204 -0.5527 -0.6479 -0.2304
15233TIP3    H167114   1.926   3.108   2.205 -0.0986  0.1933  1.1983
15233TIP3    H267115   1.861   3.239   2.164 -0.5523 -0.1510  0.8093
15234TIP3   OH267116   6.730   3.060   3.940 -0.0647 -0.4242  0.0349
15234TIP3    H167117   6.765   3.135   3.989  0.2775 -2.0282  2.3655
15234TIP3    H267118   6.729   3.089   3.849  2.0043  1.6729  0.6141
15235TIP3   OH267119   1.408   3.693   3.166  0.5875 -0.0379 -0.3293
15235TIP3    H167120   1.493   3.685   3.209  1.0431 -0.3975 -1.2837
15235TIP3    H267121   1.346   3.654   3.227  0.9484  1.2538  0.8704
15236TIP3   OH267122   5.653   2.801  11.974 -0.0438  0.7017 -0.3324
15236TIP3    H167123   5.706   2.724  11.993 -1.2743 -0.0869 -0.0174
15236TIP3    H267124   5.681   2.829  11.887 -0.1403 -0.5914 -0.7919
15237TIP3   OH267125   5.310   1.108  12.623  0.3676  0.2507  0.3049
15237TIP3    H167126   5.264   1.158  12.555  0.4460  1.5225  1.1618
15237TIP3    H267127   5.317   1.169  12.696  1.7337 -0.5682  0.8707
15238TIP3   OH267128   6.411   1.024   3.127  0.5353 -0.9159 -0.2163
15238TIP3    H167129   6.386   1.065   3.209  2.8746  1.9861 -0.8468
15238TIP3    H267130   6.346   1.055   3.063 -0.4925 -2.0924  0.2387
15239TIP3   OH267131   2.890   0.949   4.986  0.5045  0.0874  0.4373
15239TIP3    H167132   2.944   0.888   4.936  1.3638  2.1316 -1.2338
15239TIP3    H267133   2.803   0.942   4.947  1.0526  1.2969 -1.0808
15240TIP3   OH267134   2.918   3.428  15.647 -0.0033  0.3219  0.2455
15240TIP3    H167135   2.858   3.482  15.699  0.9043  1.3075  0.2835
15240TIP3    H267136   2.938   3.481  15.570 -0.5528 -0.7281 -0.6290
15241TIP3   OH267137   2.819   4.622  11.940 -0.2240  0.2693  0.3273
15241TIP3    H167138   2.759   4.620  12.015  1.2270 -0.2375  1.4986
15241TIP3    H267139   2.855   4.710  11.941 -0.3917  0.3401  0.0757
15242TIP3   OH267140   6.784   0.130   1.353  0.1345  0.0087 -0.3674
15242TIP3    H167141   6.872   0.167   1.346  0.9079 -1.3646  1.5787
15242TIP3    H267142   6.783   0.058   1.290  0.9097 -0.8790  0.6164
15243TIP3   OH267143   2.685   6.331   2.677 -0.1598 -0.0363  0.4027
15243TIP3    H167144   2.666   6.350   2.769 -0.2619  0.7734  0.2174
15243TIP3    H267145   2.776   6.301   2.678  0.0667  0.6401  0.6835
15244TIP3   OH267146   3.919   1.017   6.510  0.1641  0.2958  0.0992
15244TIP3    H167147   3.877   0.958   6.447  2.0515 -1.6796  0.6259
15244TIP3    H267148   3.979   1.070   6.456 -0.4086  0.6831 -0.1635
15245TIP3   OH267149   1.169   4.775   0.664 -0.4723  0.3422  0.4693
15245TIP3    H167150   1.184   4.682   0.683 -1.9313  0.0061  0.0873
15245TIP3    H267151   1.205   4.788   0.577  0.2235  0.2629  0.7468
15246TIP3   OH267152   5.622   2.373   3.050  0.0532  0.7569 -0.3279
15246TIP3    H167153   5.588   2.288   3.022  1.4660  0.3019 -0.6982
15246TIP3    H267154   5.606   2.375   3.144  0.8844 -0.3288 -0.1580
15247TIP3   OH267155   4.997   2.353   3.017 -0.0735 -0.7962 -0.4557
15247TIP3    H167156   4.909   2.390   3.027 -0.3215 -1.4509 -0.1788
15247TIP3    H267157   5.053   2.410   3.070 -0.6967 -1.6933  1.2026
15248TIP3   OH267158   2.526   1.230   5.745  0.3254 -0.1198  0.1573
15248TIP3    H167159   2.494   1.283   5.818  1.8475  0.2951  0.5455
15248TIP3    H267160   2.533   1.292   5.672 -1.1101 -0.5149 -0.3210
15249TIP3   OH267161   0.633   0.638   2.066 -0.3606 -0.4015 -0.4146
15249TIP3    H167162   0.610   0.565   2.123  2.6111 -0.1354  1.2520
15249TIP3    H267163   0.706   0.605   2.013  0.9225  1.2638  0.2589
15250TIP3   OH267164   5.000   2.538  14.617 -0.3922  0.1743  0.0465
15250TIP3    H167165   5.083   2.586  14.615  0.1468 -0.5364  3.0187
15250TIP3    H267166   4.973   2.534  14.525  0.5734  4.3064 -0.5094
15251TIP3   OH267167   5.370   1.370  16.865 -0.4440 -0.2765  0.6500
15251TIP3    H167168   5.346   1.463  16.866  0.7315  0.0638 -1.1024
15251TIP3    H267169   5.302   1.328  16.918 -2.2817  1.2845 -0.3965
15252TIP3   OH267170   4.975   5.933  13.874 -0.3318 -0.2692 -0.2502
15252TIP3    H167171   5.053   5.884  13.902  1.1712  1.3984 -1.3819
15252TIP3    H267172   4.932   5.958  13.955  0.2878 -1.2651  0.4013
15253TIP3   OH267173   2.260   0.579  15.659 -0.4407 -0.4837 -0.2598
15253TIP3    H167174   2.344   0.618  15.634 -0.2193 -2.2174 -2.4195
15253TIP3    H267175   2.250   0.601  15.751  2.5184 -0.4390  0.1018
15254TIP3   OH267176   2.154   5.095  16.060 -0.0483  0.5393 -0.0285
15254TIP3    H167177   2.140   5.107  16.154 -1.3696  0.7938 -0.2532
15254TIP3    H267178   2.075   5.050  16.029  0.9451 -0.7289 -0.7947
15255TIP3   OH267179   2.216   3.622  13.492 -0.6346 -0.1199  0.6558
15255TIP3    H167180   2.155   3.653  13.425 -0.5147 -0.3451  0.4445
15255TIP3    H267181   2.278   3.694  13.503  0.7597 -1.0119 -1.1828
15256TIP3   OH267182   4.243   5.746   2.455  0.2047 -0.1120  0.3120
15256TIP3    H167183   4.155   5.708   2.460 -0.0143  0.4400  0.7735
15256TIP3    H267184   4.299   5.683   2.500 -0.3242  0.5580  1.9746
15257TIP3   OH267185   4.388   4.725  16.549 -0.4031  0.0016  0.0185
15257TIP3    H167186   4.383   4.690  16.460 -0.8493  0.8985 -0.3108
15257TIP3    H267187   4.396   4.647  16.605  1.1220 -0.5137 -0.8872
15258TIP3   OH267188   3.740   0.797   2.793  0.2148 -0.2004 -0.2100
15258TIP3    H167189   3.795   0.875   2.792  0.1518 -0.1536  0.2644
15258TIP3    H267190   3.740   0.768   2.884 -2.7269  1.3231  0.3450
15259TIP3   OH267191   4.549   5.045  12.565  0.4042  0.2838  0.2832
15259TIP3    H167192   4.576   5.094  12.488  2.0967  0.9929  1.2964
15259TIP3    H267193   4.469   5.089  12.594  0.2977  0.6081 -0.4944
15260TIP3   OH267194   5.585   5.576  16.407  0.1396 -0.8024  0.2201
15260TIP3    H167195   5.573   5.585  16.313  1.0847  1.7217  0.3186
15260TIP3    H267196   5.658   5.514  16.416  0.4597 -0.5710 -0.7132
15261TIP3   OH267197   4.132   5.171   1.945  0.0755  0.0965 -0.4918
15261TIP3    H167198   4.160   5.216   1.866 -2.0823 -0.7123 -1.7411
15261TIP3    H267199   4.155   5.231   2.016 -0.2834  1.9752 -1.9280
15262TIP3   OH267200   5.429   5.277   2.236 -0.2645  0.0956 -0.3411
15262TIP3    H167201   5.431   5.186   2.266 -1.9778 -0.3436 -1.4554
15262TIP3    H267202   5.431   5.271   2.140  0.5603  1.2793 -0.4137
15263TIP3   OH267203   0.536   4.330   2.538  0.7098  0.4707  0.1494
15263TIP3    H167204   0.627   4.316   2.514  0.3427  0.2571 -1.1403
15263TIP3    H267205   0.495   4.367   2.460 -0.1398  1.2935  0.9679
15264TIP3   OH267206   6.328   2.572   3.248  0.2911  0.1696  0.2667
15264TIP3    H167207   6.340   2.500   3.186  0.2423  0.2977  0.1079
15264TIP3    H267208   6.251   2.548   3.299  0.0293  0.3111 -0.0651
15265TIP3   OH267209   0.338   6.410  14.918 -0.3655  0.7131 -0.1382
15265TIP3    H167210   0.342   6.458  14.835  1.4064  2.0665  0.7019
15265TIP3    H267211   0.255   6.436  14.956 -0.4016  1.4342 -0.6899
15266TIP3   OH267212   3.706   5.362  12.649 -0.4613  0.1582  0.0546
15266TIP3    H167213   3.682   5.373  12.557 -0.9375 -2.5351 -0.1897
15266TIP3    H267214   3.671   5.439  12.692 -1.4830  0.7716 -1.7969
15267TIP3   OH267215   3.246   0.356   1.216 -0.0356 -0.5841  0.2537
15267TIP3    H167216   3.257   0.272   1.172 -0.8195 -1.0316  0.8944
15267TIP3    H267217   3.173   0.398   1.171 -1.2204 -1.2896  1.4522
15268TIP3   OH267218   4.548   4.040  12.573  0.4998  0.0597  0.7503
15268TIP3    H167219   4.591   3.986  12.639  2.3065  0.4760 -0.0525
15268TIP3    H267220   4.548   4.128  12.610  0.9377  0.1807  0.4590
15269TIP3   OH267221   0.300   1.310   4.988  0.6406 -0.5920  0.0143
15269TIP3    H167222   0.278   1.228   5.032  0.1292 -1.0534 -1.0855
15269TIP3    H267223   0.216   1.346   4.959  0.9273 -0.0411 -0.1526
15270TIP3   OH267224   3.470   4.488  11.262  0.3179  0.0840  0.1355
15270TIP3    H167225   3.512   4.466  11.179 -0.5313  0.9055 -0.5264
15270TIP3    H267226   3.475   4.584  11.266  1.1194  0.0089  1.4528
15271TIP3   OH267227   0.745   2.526  14.482 -0.0860 -0.6486  0.0636
15271TIP3    H167228   0.757   2.531  14.577  0.2151  0.8348 -0.0287
15271TIP3    H267229   0.810   2.463  14.453  1.6757  0.8704  0.5738
15272TIP3   OH267230   4.313   5.024  14.091  0.4844 -0.0051 -0.4779
15272TIP3    H167231   4.285   4.966  14.161  0.2116 -0.7020 -1.1502
15272TIP3    H267232   4.343   5.104  14.135 -0.2541 -0.1991  0.3874
15273TIP3   OH267233   3.648   4.174  15.924 -0.2973 -0.1405 -0.7270
15273TIP3    H167234   3.699   4.131  15.992 -0.7003 -0.8247 -0.8520
15273TIP3    H267235   3.675   4.265  15.927  0.3969 -0.3605 -0.3040
15274TIP3   OH267236   5.989   6.377   4.279  0.2535  0.0918 -0.0077
15274TIP3    H167237   6.065   6.414   4.235 -0.2244 -0.1932 -1.0864
15274TIP3    H267238   6.022   6.345   4.363  1.2369  0.3268 -0.3092
15275TIP3   OH267239   1.016   3.419   1.164  0.2927 -0.0458  0.4089
15275TIP3    H167240   1.044   3.417   1.073  0.0371 -1.4017  0.3435
15275TIP3    H267241   1.053   3.339   1.202 -0.8403 -0.2576  1.1011
15276TIP3   OH267242   6.289   2.603  15.753  0.0012 -0.4448 -0.0250
15276TIP3    H167243   6.249   2.590  15.667  0.1885  0.6017 -0.2737
15276TIP3    H267244   6.383   2.604  15.737  0.0608 -0.8856  0.2829
15277TIP3   OH267245   4.235   0.008  15.593  0.1140  0.9191  0.4436
15277TIP3    H167246   4.204  -0.006  15.683  1.5490 -0.4862  0.7367
15277TIP3    H267247   4.256   0.101  15.590 -1.1400  1.2352  1.1876
15278TIP3   OH267248   6.705   1.199  11.272  0.1487  0.3098 -0.3322
15278TIP3    H167249   6.740   1.225  11.186  0.6871  0.9587  0.0681
15278TIP3    H267250   6.610   1.208  11.264  0.2133  0.5959 -0.7960
15279TIP3   OH267251   5.549   0.222  14.339  0.3974 -0.1097 -0.3273
15279TIP3    H167252   5.614   0.157  14.313  0.4174  0.0593 -0.7152
15279TIP3    H267253   5.465   0.178  14.332  0.4674 -0.3208  0.1493
15280TIP3   OH267254   2.328   1.085  13.325  0.3466  0.0924 -0.1510
15280TIP3    H167255   2.401   1.124  13.277 -0.4275  1.3179 -0.3615
15280TIP3    H267256   2.260   1.153  13.324 -1.4135 -1.6766 -1.4190
15281TIP3   OH267257   2.500   0.411  13.030  0.6449 -0.2473 -0.0368
15281TIP3    H167258   2.575   0.369  13.072  0.3711  0.7284  1.4849
15281TIP3    H267259   2.537   0.491  12.991  1.0507 -1.5522 -2.3888
15282TIP3   OH267260   0.414   1.875  15.546 -0.5941 -0.5777 -0.1891
15282TIP3    H167261   0.508   1.897  15.546 -0.9217  0.8971  0.1605
15282TIP3    H267262   0.399   1.835  15.632 -0.7377  1.3426  0.7237
15283TIP3   OH267263   0.199   0.509  10.786  0.2262 -1.1781  0.3046
15283TIP3    H167264   0.119   0.560  10.798  1.6948  1.1551  0.3401
15283TIP3    H267265   0.227   0.529  10.697  1.0026 -1.6860  0.4315
15284TIP3   OH267266   1.386   6.683  14.355 -0.6712  0.3746  0.1426
15284TIP3    H167267   1.301   6.671  14.395  0.5699  0.5654  2.9155
15284TIP3    H267268   1.442   6.617  14.396  0.4573  0.0442 -1.8500
15285TIP3   OH267269   6.664   3.044   5.166 -0.1681  0.0741 -0.5514
15285TIP3    H167270   6.696   3.085   5.085 -1.0830  0.5268 -0.6960
15285TIP3    H267271   6.629   2.960   5.137  3.0957 -1.5400 -0.0342
15286TIP3   OH267272   3.214   0.482  13.816 -0.6485  0.2109 -0.2914
15286TIP3    H167273   3.274   0.535  13.764 -0.6901  1.0357  0.5072
15286TIP3    H267274   3.234   0.392  13.790 -0.0947  0.5661 -1.1219
15287TIP3   OH267275   5.007   1.929  12.505  0.1517 -0.5221  0.0279
15287TIP3    H167276   4.919   1.902  12.531 -0.4669  0.6315 -0.8090
15287TIP3    H267277   4.992   1.993  12.435  1.6674 -0.6601 -0.4250
15288TIP3   OH267278   3.008   2.735   4.686  0.1725  0.1372 -0.4729
15288TIP3    H167279   3.027   2.817   4.639  0.0985  0.8891  0.7686
15288TIP3    H267280   3.004   2.762   4.778 -0.9385 -1.0766 -0.1644
15289TIP3   OH267281   4.328   1.364   0.520  1.2510 -0.4213 -0.2640
15289TIP3    H167282   4.386   1.302   0.564 -2.1129 -2.8216  0.9642
15289TIP3    H267283   4.290   1.415   0.591  1.6218  0.9625 -1.0401
15290TIP3   OH267284   1.571   2.134  16.916 -0.5274 -0.2994 -0.3321
15290TIP3    H167285   1.478   2.157  16.923  0.0394  1.3838  2.4343
15290TIP3    H267286   1.577   2.045  16.951 -0.9478  0.0001  0.5207
15291TIP3   OH267287   4.419   6.265  11.373 -0.6162 -0.3083 -0.1563
15291TIP3    H167288   4.488   6.311  11.325 -1.6289  0.7796 -0.6065
15291TIP3    H267289   4.413   6.179  11.331  0.4495 -0.4019 -0.1186
15292TIP3   OH267290   1.220   2.590   5.865 -0.8912 -0.0129 -0.1098
15292TIP3    H167291   1.127   2.602   5.846 -1.1046 -0.5392  0.5821
15292TIP3    H267292   1.262   2.593   5.779 -1.1871  3.1010 -0.2181
15293TIP3   OH267293   2.913   3.563  16.040  0.2326  0.1229  0.7231
15293TIP3    H167294   2.983   3.520  15.990  0.7559  0.2925  1.3048
15293TIP3    H267295   2.835   3.555  15.984  0.7412  0.0383  0.0203
15294TIP3   OH267296   1.146   5.653   1.545  0.0401 -0.1033 -0.0103
15294TIP3    H167297   1.196   5.686   1.470 -1.5338 -0.3713 -1.1964
15294TIP3    H267298   1.084   5.723   1.565 -2.0538 -1.5178 -1.3485
15295TIP3   OH267299   3.561   0.666   3.517 -0.6315  0.8450 -0.4854
15295TIP3    H167300   3.630   0.714   3.563 -2.3691  2.1767  0.7776
15295TIP3    H267301   3.587   0.574   3.525  1.6476  1.4096 -1.1305
15296TIP3   OH267302   5.900   1.252   5.853  0.3965  0.1794 -0.2274
15296TIP3    H167303   5.866   1.292   5.773 -2.3607  0.3454  0.9867
15296TIP3    H267304   5.886   1.319   5.920 -0.1909 -1.1412  0.9702
15297TIP3   OH267305   3.040   0.438   4.054  0.6353  0.1710 -0.2388
15297TIP3    H167306   3.018   0.418   4.145 -0.9548 -1.4907 -0.9576
15297TIP3    H267307   2.991   0.517   4.034  2.3932  1.5779  0.8639
15298TIP3   OH267308   2.636   2.934   3.245 -0.0930 -0.4703  0.3897
15298TIP3    H167309   2.582   2.859   3.272  0.5878 -1.7098 -1.6361
15298TIP3    H267310   2.716   2.895   3.211 -0.2388  1.1409 -1.8604
15299TIP3   OH267311   3.186   2.968   2.240 -0.2111 -0.4440  0.3459
15299TIP3    H167312   3.192   2.883   2.283  0.6119 -0.7430 -0.3382
15299TIP3    H267313   3.167   3.030   2.311 -0.6830 -1.1756  0.8618
15300TIP3   OH267314   5.031   0.943   1.696 -0.3245  0.2985  0.1765
15300TIP3    H167315   5.055   0.874   1.634 -0.3473 -0.5237  1.0855
15300TIP3    H267316   5.066   0.914   1.780 -0.2772  1.4255  0.5530
15301TIP3   OH267317   4.783   1.108  16.399 -0.1275  0.2800  0.1341
15301TIP3    H167318   4.772   1.024  16.443 -1.3923  0.2297 -0.2699
15301TIP3    H267319   4.779   1.087  16.306  0.6618  0.6475  0.0104
15302TIP3   OH267320   4.175   2.490   2.038 -0.4903  0.3680  0.7593
15302TIP3    H167321   4.152   2.581   2.054  1.1598  0.6922  1.3860
15302TIP3    H267322   4.130   2.441   2.107 -1.1882  0.7366  0.5649
15303TIP3   OH267323   5.799   3.527   0.105  0.0832 -0.1217 -0.4082
15303TIP3    H167324   5.716   3.498   0.068  0.3557 -0.5007 -0.7305
15303TIP3    H267325   5.779   3.610   0.148 -0.6834 -0.7282  0.4298
15304TIP3   OH267326   1.599   3.120   4.487 -0.4314  0.3363 -0.3866
15304TIP3    H167327   1.690   3.131   4.461  0.3892  0.7163  2.4979
15304TIP3    H267328   1.563   3.208   4.489 -0.6345  0.2617 -0.7476
15305TIP3   OH267329   4.230   1.436  14.545  0.5292 -0.4415  0.2862
15305TIP3    H167330   4.271   1.516  14.515  0.1933 -0.0951  0.7380
15305TIP3    H267331   4.246   1.434  14.640  0.5535 -0.9152  0.2777
15306TIP3   OH267332   3.558   6.671   2.554 -0.0280  0.7773 -0.4620
15306TIP3    H167333   3.603   6.590   2.578 -2.4439 -0.2768  0.6529
15306TIP3    H267334   3.582   6.733   2.623  1.7535  1.0220 -1.2668
15307TIP3   OH267335   2.714   1.474   3.279  0.7214 -0.9258 -0.5076
15307TIP3    H167336   2.747   1.463   3.368  0.2210 -0.8466 -0.3106
15307TIP3    H267337   2.751   1.557   3.249  0.3894 -0.6454 -0.1478
15308TIP3   OH267338   0.780   2.805   1.084 -0.7408 -0.5758 -0.2463
15308TIP3    H167339   0.714   2.774   1.022 -1.3128 -3.8654  1.8525
15308TIP3    H267340   0.745   2.887   1.117 -1.1249  0.4762 -3.1510
15309TIP3   OH267341   1.520   6.193  12.226 -0.4909 -0.2782  0.4100
15309TIP3    H167342   1.452   6.255  12.203  0.8390  0.5868 -1.3205
15309TIP3    H267343   1.553   6.161  12.142  2.1716  0.3775  1.1441
15310TIP3   OH267344   3.464   0.128   2.684 -0.0581  0.0648  0.3173
15310TIP3    H167345   3.484   0.202   2.626  1.4320 -1.5379 -1.2822
15310TIP3    H267346   3.414   0.067   2.629 -0.5433 -0.5099  1.3742
15311TIP3   OH267347   2.517   2.940  14.168  0.4594 -0.5731 -0.5480
15311TIP3    H167348   2.493   2.848  14.174  1.5264 -0.9150 -1.3293
15311TIP3    H267349   2.470   2.982  14.240 -1.5996 -1.3806 -1.3793
15312TIP3   OH267350   5.802   1.762  14.800 -0.0900  0.1473 -0.2904
15312TIP3    H167351   5.805   1.706  14.723 -0.7276  1.3301 -1.1928
15312TIP3    H267352   5.857   1.718  14.864  0.3338 -0.9175 -1.3728
15313TIP3   OH267353   0.478   2.396   2.539 -0.1580  0.0790  0.1485
15313TIP3    H167354   0.482   2.375   2.445  1.5173  0.6391  0.0795
15313TIP3    H267355   0.536   2.471   2.549  0.3904 -0.5435  1.7900
15314TIP3   OH267356   4.037   0.342   0.241  0.0871  0.1181 -0.0538
15314TIP3    H167357   4.100   0.361   0.171  0.3628 -1.5169 -0.2600
15314TIP3    H267358   4.071   0.264   0.283 -0.5639  0.5847  1.3574
15315TIP3   OH267359   4.191   4.330  14.587 -0.4438 -0.0604  0.1550
15315TIP3    H167360   4.233   4.387  14.523 -2.2888  0.7352 -0.3756
15315TIP3    H267361   4.193   4.243  14.547 -1.0700  0.3292 -0.7184
15316TIP3   OH267362   3.188   1.059  15.183  0.4201 -0.3383  0.3754
15316TIP3    H167363   3.251   1.020  15.243  0.1525 -0.5699  0.5100
15316TIP3    H267364   3.184   1.151  15.209 -0.2109 -0.5811  1.1733
15317TIP3   OH267365   3.753   2.128  14.457  0.0462  0.6640  0.5477
15317TIP3    H167366   3.834   2.106  14.503 -0.1069 -0.2459  0.3972
15317TIP3    H267367   3.684   2.105  14.519 -0.1152  0.7962  0.4153
15318TIP3   OH267368   3.919   0.933   0.982 -0.3895  0.0089  0.3498
15318TIP3    H167369   3.868   0.906   0.906  0.7531  1.0875 -0.8218
15318TIP3    H267370   3.861   0.990   1.032 -0.6137  0.5373 -0.5147
15319TIP3   OH267371   5.828   2.326   2.549 -0.1308 -0.4776  0.4847
15319TIP3    H167372   5.771   2.339   2.473 -1.0800  1.4883  1.5029
15319TIP3    H267373   5.892   2.397   2.543 -0.4856 -0.0331  1.7436
15320TIP3   OH267374   1.630   5.560  10.939 -0.0318 -0.2472 -0.2282
15320TIP3    H167375   1.564   5.547  10.870 -0.1708  0.1156 -0.1611
15320TIP3    H267376   1.635   5.654  10.950 -1.1536 -0.3589  1.3630
15321TIP3   OH267377   1.909   4.389  13.715 -0.3378 -0.3831 -0.1587
15321TIP3    H167378   1.860   4.308  13.700  0.7473 -1.1826  0.5778
15321TIP3    H267379   1.952   4.407  13.632 -0.0961 -0.8928 -0.1450
15322TIP3   OH267380   1.097   4.070   3.349  0.5445  0.3425  0.7674
15322TIP3    H167381   1.066   4.088   3.438  0.2054 -0.5616  0.8436
15322TIP3    H267382   1.085   4.152   3.302 -0.1916  0.5496  1.3052
15323TIP3   OH267383   5.656   3.142   0.236 -0.0859 -0.4249 -0.1314
15323TIP3    H167384   5.738   3.100   0.262 -0.9500 -0.6267  2.5199
15323TIP3    H267385   5.665   3.232   0.266 -1.0177 -0.5944  0.7108
15324TIP3   OH267386   5.180   0.696  16.055 -0.0109 -0.1911  0.2723
15324TIP3    H167387   5.138   0.628  16.003 -1.3882 -0.8206  2.1336
15324TIP3    H267388   5.197   0.767  15.993 -1.3327 -1.0297 -1.0864
15325TIP3   OH267389   6.787   2.073  12.085 -0.1192  0.4722  0.3692
15325TIP3    H167390   6.777   2.028  12.169 -2.3211  0.8592  0.3403
15325TIP3    H267391   6.796   2.165  12.107  1.5630  0.3344  0.2868
15326TIP3   OH267392   2.550   5.976  15.297  0.2480  0.2697 -0.1500
15326TIP3    H167393   2.511   6.016  15.375 -0.6141  0.7131 -0.7969
15326TIP3    H267394   2.554   5.883  15.316  1.8386  0.5941  1.1936
15327TIP3   OH267395   3.732   2.888   1.384  0.2208 -0.6486 -0.3307
15327TIP3    H167396   3.723   2.799   1.351 -0.2829 -0.9315  0.5512
15327TIP3    H267397   3.819   2.890   1.424 -0.0592 -0.9716  0.3070
15328TIP3   OH267398   1.765   1.069  13.539  0.4043 -0.2836 -0.0210
15328TIP3    H167399   1.819   1.132  13.587  0.7140  0.7248 -1.6459
15328TIP3    H267400   1.675   1.098  13.554  0.4497 -0.5037  0.6793
15329TIP3   OH267401   4.147   6.753   3.390  0.2656  0.8603 -0.0971
15329TIP3    H167402   4.137   6.717   3.302  1.3559  1.7584 -0.6026
15329TIP3    H267403   4.074   6.716   3.440 -0.8502  1.0238 -1.5984
15330TIP3   OH267404   6.484   6.290   5.742 -0.8216 -0.5319  0.2213
15330TIP3    H167405   6.573   6.304   5.708 -0.8757 -0.1550  0.2289
15330TIP3    H267406   6.479   6.347   5.819 -1.0140 -0.6791  0.3171
15331TIP3   OH267407   0.772   1.335  13.467  1.0624  0.3687 -0.6299
15331TIP3    H167408   0.772   1.288  13.383  2.0962 -0.1778 -0.3332
15331TIP3    H267409   0.691   1.307  13.510  0.3899  0.8678 -1.5621
15332TIP3   OH267410   1.669   3.846   0.938 -0.2832 -0.1436  0.1408
15332TIP3    H167411   1.659   3.814   1.028  1.2149  2.1374  1.1540
15332TIP3    H267412   1.732   3.787   0.898  2.3207  1.3622  1.9282
15333TIP3   OH267413   2.599   6.333  12.259  0.5484 -0.4673 -0.0494
15333TIP3    H167414   2.514   6.300  12.229 -0.3599  0.8158  1.0679
15333TIP3    H267415   2.599   6.425  12.233  1.8048 -0.5699 -0.4493
15334TIP3   OH267416   6.328   5.916  14.504  0.5696  0.2541 -0.0729
15334TIP3    H167417   6.294   5.867  14.429 -2.0861  0.4935  0.9070
15334TIP3    H267418   6.415   5.881  14.519  0.1276 -1.6028 -1.6564
15335TIP3   OH267419   4.063   2.518  10.662 -0.0788 -0.0414 -0.4970
15335TIP3    H167420   4.087   2.459  10.590 -1.0903 -0.2449 -0.6679
15335TIP3    H267421   4.092   2.473  10.741 -0.4537 -0.5724 -0.6608
15336TIP3   OH267422   1.848   6.373   1.094  0.0207  0.5996 -0.2013
15336TIP3    H167423   1.871   6.416   1.176 -1.4434  0.8045  0.1168
15336TIP3    H267424   1.901   6.293   1.094  1.2165  1.3721  0.1773
15337TIP3   OH267425   1.824   6.100  11.840 -0.0029  0.0945 -0.5501
15337TIP3    H167426   1.858   6.179  11.883  0.3985 -0.4223  0.0870
15337TIP3    H267427   1.888   6.032  11.861 -1.1159 -0.7496  0.1653
15338TIP3   OH267428   6.532   0.557   0.496  0.3548  0.0243 -0.2084
15338TIP3    H167429   6.472   0.493   0.533  0.8263 -1.8814 -2.5818
15338TIP3    H267430   6.477   0.630   0.468 -0.3604  0.0202  1.1776
15339TIP3   OH267431   0.436   5.151  13.503 -0.4295  0.0879 -0.0083
15339TIP3    H167432   0.498   5.079  13.516  0.1370  0.8206  1.3768
15339TIP3    H267433   0.482   5.213  13.446  0.1204  0.6351  1.0255
15340TIP3   OH267434   6.498   3.381  16.140 -0.0358 -0.0231  0.5961
15340TIP3    H167435   6.422   3.409  16.191  0.1846 -0.1581  0.9886
15340TIP3    H267436   6.468   3.302  16.094  0.2072 -0.6875  1.5758
15341TIP3   OH267437   3.621   3.257   0.872 -0.0916 -0.8789  0.3050
15341TIP3    H167438   3.653   3.332   0.820 -0.6968 -1.4287 -0.8918
15341TIP3    H267439   3.552   3.294   0.927 -0.6385 -0.6205 -0.5467
15342TIP3   OH267440   3.933   2.887   6.138 -0.5909 -0.8101  0.0831
15342TIP3    H167441   3.938   2.856   6.228  1.9128 -0.5508  0.0437
15342TIP3    H267442   4.009   2.849   6.095  0.3760  2.2120 -0.9611
15343TIP3   OH267443   0.611   1.191   2.741 -0.1682  0.6026 -0.0146
15343TIP3    H167444   0.521   1.220   2.722 -0.2889  0.7704  0.7630
15343TIP3    H267445   0.664   1.226   2.670 -0.8132 -0.0185 -0.8158
15344TIP3   OH267446   4.089   4.871  13.784 -0.2465 -0.3835  0.0900
15344TIP3    H167447   4.087   4.891  13.878  0.6322 -1.5303  0.3766
15344TIP3    H267448   4.039   4.941  13.743 -1.3810 -0.3361  1.5066
15345TIP3   OH267449   2.658   4.841  14.008 -0.5997 -0.6130  0.1308
15345TIP3    H167450   2.686   4.778  14.074 -0.1615 -0.3082  0.2374
15345TIP3    H267451   2.605   4.790  13.946  0.9164 -1.3794 -0.5588
15346TIP3   OH267452   5.816   0.929   5.012  1.0777  0.7550  0.3101
15346TIP3    H167453   5.790   0.860   4.951 -0.9150  2.4478 -0.8675
15346TIP3    H267454   5.751   0.924   5.082 -0.1138  2.4417 -0.6213
15347TIP3   OH267455   0.550   0.550   1.698 -0.3044  0.2438 -0.1441
15347TIP3    H167456   0.610   0.539   1.771  0.0621  0.9978 -0.3322
15347TIP3    H267457   0.488   0.477   1.706 -0.3038  0.3680  0.9425
15348TIP3   OH267458   3.596   4.110   3.494 -0.7944 -0.0260 -0.0510
15348TIP3    H167459   3.502   4.108   3.476 -0.8324  1.6108 -0.1380
15348TIP3    H267460   3.635   4.149   3.415 -0.1017 -0.1225  0.2364
15349TIP3   OH267461   3.872   3.331   5.641 -0.7361  0.1507  0.2848
15349TIP3    H167462   3.909   3.415   5.614  0.9977 -1.2983 -2.0078
15349TIP3    H267463   3.846   3.289   5.558 -1.2912 -1.6973  1.3725
15350TIP3   OH267464   1.471   1.700   2.214  0.0104  0.1197  0.3318
15350TIP3    H167465   1.441   1.671   2.127  0.1715 -0.1608  0.3691
15350TIP3    H267466   1.536   1.635   2.240  1.0318  1.0095  0.0340
15351TIP3   OH267467   3.914   0.700   1.193  0.0987 -0.5048 -0.3881
15351TIP3    H167468   3.857   0.671   1.263  0.8474 -1.3182 -0.1135
15351TIP3    H267469   3.906   0.795   1.193 -0.9586 -0.5960 -0.1043
15352TIP3   OH267470   2.181   2.552   5.466  0.1464  0.1923 -0.2951
15352TIP3    H167471   2.265   2.511   5.485  0.2882  0.7959  0.4105
15352TIP3    H267472   2.141   2.496   5.399 -0.2047 -1.7806  1.5342
15353TIP3   OH267473   4.931   0.864  11.617  0.0186  0.0407 -0.4638
15353TIP3    H167474   4.862   0.827  11.562  0.6500 -0.2355 -1.0745
15353TIP3    H267475   4.976   0.927  11.562  1.0340 -0.6695 -0.4721
15354TIP3   OH267476   4.338   5.658  14.896  0.2211 -0.0729 -0.5204
15354TIP3    H167477   4.342   5.730  14.959  1.4574 -0.9527  0.4243
15354TIP3    H267478   4.287   5.591  14.941  4.4953 -2.3033  1.2375
15355TIP3   OH267479   3.517   0.431   1.895  0.1886 -0.7013  0.3240
15355TIP3    H167480   3.550   0.373   1.826 -0.0671  0.9498 -1.2184
15355TIP3    H267481   3.569   0.511   1.886 -2.5924  1.0646 -0.6198
15356TIP3   OH267482   2.331   5.207   4.467  0.1882 -0.6489  0.3354
15356TIP3    H167483   2.402   5.150   4.495  1.0433  0.7081  1.0053
15356TIP3    H267484   2.346   5.290   4.513 -0.0075  0.7204 -1.9361
15357TIP3   OH267485   1.505   4.452  14.839 -0.1630  0.5500 -0.0862
15357TIP3    H167486   1.523   4.458  14.932 -1.7829  1.7462  0.1906
15357TIP3    H267487   1.559   4.379  14.808  1.8091  1.3437  1.4053
15358TIP3   OH267488   0.141   3.789   1.230 -0.1028 -0.0619 -0.0863
15358TIP3    H167489   0.179   3.872   1.259 -2.5653  1.0803 -0.0165
15358TIP3    H267490   0.118   3.804   1.139 -0.0530 -0.8580 -0.2290
15359TIP3   OH267491   2.505   4.007   3.521 -0.6591 -0.2393 -0.3202
15359TIP3    H167492   2.446   4.018   3.596 -0.0559 -0.7071  0.2325
15359TIP3    H267493   2.578   4.067   3.539 -0.7480  0.0090 -0.7776
15360TIP3   OH267494   0.989   4.850  13.790  0.5079 -0.7488  0.2856
15360TIP3    H167495   0.941   4.925  13.754 -0.8904 -1.4520  0.6504
15360TIP3    H267496   1.069   4.888  13.826  0.6875  0.3135 -1.1946
15361TIP3   OH267497   3.049   4.840   4.257  0.3743  0.5210  0.1404
15361TIP3    H167498   3.091   4.894   4.189 -0.9848 -1.0666 -1.9962
15361TIP3    H267499   2.958   4.833   4.230  0.3681 -2.2642  0.7832
15362TIP3   OH267500   1.622   2.778   0.344 -0.5874  0.8594 -0.0831
15362TIP3    H167501   1.638   2.872   0.348  1.4364  0.5160  0.4288
15362TIP3    H267502   1.708   2.738   0.357 -0.8201 -1.0307 -3.6900
15363TIP3   OH267503   6.178   5.398   0.348 -0.1165  0.0958  0.2130
15363TIP3    H167504   6.133   5.474   0.384 -0.8611  0.3815 -1.2661
15363TIP3    H267505   6.269   5.424   0.342 -0.0572  0.1976  1.4493
15364TIP3   OH267506   1.307   3.763   1.436  0.3322  0.1212 -0.8460
15364TIP3    H167507   1.273   3.782   1.349 -0.0509 -1.8645 -1.1488
15364TIP3    H267508   1.389   3.716   1.420  2.1118  2.7857 -0.1114
15365TIP3   OH267509   4.247   1.835  14.806  0.1979 -0.6469 -0.4079
15365TIP3    H167510   4.282   1.826  14.717  0.4380 -0.5773 -0.3217
15365TIP3    H267511   4.156   1.804  14.800 -0.0678  0.2030 -0.8830
15366TIP3   OH267512   1.209   3.084  16.309  0.3862  0.4226  0.2392
15366TIP3    H167513   1.226   3.098  16.402 -1.4779  0.7621  0.5368
15366TIP3    H267514   1.195   3.171  16.274  3.1784  0.5105 -0.8287
15367TIP3   OH267515   0.052   6.137   3.721 -0.3228 -0.3813 -0.3128
15367TIP3    H167516   0.005   6.085   3.787 -0.9482  0.1135 -0.3593
15367TIP3    H267517  -0.004   6.132   3.643  1.7471 -3.2648 -1.7253
15368TIP3   OH267518   0.264   6.736   1.723  0.4342 -0.6343  0.3251
15368TIP3    H167519   0.174   6.705   1.728  0.3697 -0.3634  0.9369
15368TIP3    H267520   0.302   6.689   1.649 -0.0298 -1.2150  0.4559
15369TIP3   OH267521   4.468   0.572   2.272  0.0767  0.0506 -0.5409
15369TIP3    H167522   4.442   0.488   2.233  0.5509 -0.1419 -0.4460
15369TIP3    H267523   4.423   0.574   2.357  1.5956 -0.9834  0.3016
15370TIP3   OH267524   5.132   2.865   3.062  0.4770  0.5915 -0.2101
15370TIP3    H167525   5.134   2.782   3.111  0.9966  0.4787 -0.4199
15370TIP3    H267526   5.080   2.846   2.984 -2.9818  1.5848  1.7498
15371TIP3   OH267527   3.823   0.067   4.819 -0.6570  0.3779 -0.4767
15371TIP3    H167528   3.737   0.026   4.819 -1.1764  1.4639 -1.4651
15371TIP3    H267529   3.826   0.118   4.900 -0.6230 -0.3099 -0.0423
15372TIP3   OH267530   1.564   5.140  11.436 -0.0992 -0.2101 -0.0823
15372TIP3    H167531   1.655   5.122  11.460  0.4360 -2.0678 -3.2402
15372TIP3    H267532   1.515   5.063  11.465 -0.0514 -0.7877 -1.4791
15373TIP3   OH267533   3.976   4.253  11.582 -0.0732 -0.5868  0.6155
15373TIP3    H167534   4.010   4.210  11.661 -1.7389  0.8749  2.1849
15373TIP3    H267535   3.887   4.281  11.606 -0.6427 -0.1768 -1.8164
15374TIP3   OH267536   5.598   3.573  12.809  0.0131  0.1334  0.2250
15374TIP3    H167537   5.572   3.520  12.734 -0.3797 -0.3227  0.6762
15374TIP3    H267538   5.564   3.525  12.885  3.1844 -1.1417  0.9290
15375TIP3   OH267539   4.530   5.286   4.945  0.3529 -0.5175  0.2098
15375TIP3    H167540   4.483   5.221   4.893  0.6901 -1.2070  0.7556
15375TIP3    H267541   4.532   5.364   4.889 -2.1804 -0.1955  0.5443
15376TIP3   OH267542   3.918   5.303  13.875 -0.3030  0.3143 -0.3883
15376TIP3    H167543   3.877   5.217  13.877  1.4842 -0.5667 -1.0694
15376TIP3    H267544   3.994   5.295  13.933  1.6355  0.4912 -2.8330
15377TIP3   OH267545   1.935   1.913  13.101  0.4735  0.1595  0.1871
15377TIP3    H167546   1.997   1.892  13.171 -1.5727 -1.7316  1.5039
15377TIP3    H267547   1.849   1.901  13.141 -0.7421  1.0093 -2.1044
15378TIP3   OH267548   5.783   1.955  13.186  0.8046 -0.2060 -0.1025
15378TIP3    H167549   5.702   1.985  13.226  1.4596 -1.9146  2.6669
15378TIP3    H267550   5.755   1.885  13.126  0.1039  0.1336 -0.1763
15379TIP3   OH267551   4.192   5.630   4.528  0.5515  0.4306  0.0443
15379TIP3    H167552   4.232   5.689   4.592  0.9489 -0.0129  0.2075
15379TIP3    H267553   4.129   5.685   4.481 -0.4665  0.5491  1.4756
15380TIP3   OH267554   4.469   2.845  14.674 -0.1649  0.5491 -0.3853
15380TIP3    H167555   4.562   2.842  14.653 -0.5881  0.1611 -2.3527
15380TIP3    H267556   4.431   2.773  14.623 -1.3560 -0.1119  1.3832
15381TIP3   OH267557   1.461   4.651   0.571  0.0196  0.4976 -0.3043
15381TIP3    H167558   1.453   4.560   0.599 -0.9634 -0.2583 -2.8899
15381TIP3    H267559   1.400   4.659   0.498 -0.1827  3.3449  0.1079
15382TIP3   OH267560   4.294   2.771   5.868  0.1096 -0.5748 -0.3629
15382TIP3    H167561   4.213   2.814   5.840 -0.1963 -0.9102 -0.0186
15382TIP3    H267562   4.268   2.723   5.947  0.0656 -2.5793 -1.5491
15383TIP3   OH267563   0.572   0.353   4.066  0.0427 -0.0057  0.2483
15383TIP3    H167564   0.572   0.325   4.158  0.1039  0.5020  0.4033
15383TIP3    H267565   0.499   0.414   4.059  0.5308  0.5646  0.1464
15384TIP3   OH267566   6.712   1.179  15.422 -0.0335  0.0301  0.2304
15384TIP3    H167567   6.802   1.210  15.422  0.0025 -0.0822  1.0274
15384TIP3    H267568   6.715   1.098  15.372  0.4424 -0.3687  0.8995
15385TIP3   OH267569   3.472   2.440   2.284  0.2073 -0.1544  0.5121
15385TIP3    H167570   3.523   2.420   2.363  1.5768 -1.1505 -0.5918
15385TIP3    H267571   3.529   2.498   2.233 -1.1914  1.5221  0.8086
15386TIP3   OH267572   4.137   3.705  13.455 -0.0805 -0.1727  0.6786
15386TIP3    H167573   4.230   3.681  13.453  0.6089  2.3184 -2.9967
15386TIP3    H267574   4.137   3.801  13.453 -2.7573 -0.1204  1.2922
15387TIP3   OH267575   2.260   6.136  17.142 -0.1896  0.2691 -0.3686
15387TIP3    H167576   2.198   6.078  17.098  0.9326 -1.4434  0.2408
15387TIP3    H267577   2.257   6.218  17.092 -1.3286 -0.5206 -1.6262
15388TIP3   OH267578   1.602   6.070  15.057  0.3861  0.6519 -0.0102
15388TIP3    H167579   1.606   6.121  14.976 -0.7682 -0.5991 -0.8633
15388TIP3    H267580   1.571   5.984  15.030  1.4960 -0.2695  1.5381
15389TIP3   OH267581   4.988   1.192   3.812  0.1043 -0.2233 -0.2107
15389TIP3    H167582   5.060   1.134   3.788 -0.6052 -1.7351  1.1711
15389TIP3    H267583   5.030   1.277   3.829  1.1332 -0.2436 -2.4215
15390TIP3   OH267584   1.197   1.547   2.599  0.0673 -0.0992 -0.9380
15390TIP3    H167585   1.102   1.536   2.596 -0.1690  1.6510 -0.6343
15390TIP3    H267586   1.233   1.461   2.578 -1.5835 -0.9795 -0.1876
15391TIP3   OH267587   0.801   4.473   0.958  0.0423  0.3220 -0.6329
15391TIP3    H167588   0.763   4.551   0.918  0.3301  0.0794 -1.4038
15391TIP3    H267589   0.783   4.482   1.051  0.2198  1.3902 -0.6958
15392TIP3   OH267590   6.369   5.910  14.019  0.0688  0.4582 -0.3454
15392TIP3    H167591   6.451   5.862  14.033 -0.4918 -0.3316  0.2742
15392TIP3    H267592   6.397   6.000  14.002  1.0773  0.1457 -0.4045
15393TIP3   OH267593   4.147   4.668  12.375 -0.0792  0.3031 -0.4587
15393TIP3    H167594   4.169   4.588  12.326 -0.0498  0.5643 -0.8705
15393TIP3    H267595   4.214   4.673  12.443 -1.5637 -1.4298  1.2021
15394TIP3   OH267596   0.141   0.854   2.414 -0.9516  0.5596  0.4778
15394TIP3    H167597   0.077   0.807   2.360 -1.0079  1.8066 -0.5681
15394TIP3    H267598   0.219   0.799   2.412 -1.6616 -0.5001  0.9756
15395TIP3   OH267599   2.963   0.037   4.659  0.3953  0.4168  0.8836
15395TIP3    H167600   2.991   0.045   4.750 -0.6564  0.4491  1.2139
15395TIP3    H267601   3.044   0.042   4.608  1.1876 -1.3335  1.9098
15396TIP3   OH267602   4.127   1.636   5.693 -0.0477  0.1179 -0.0118
15396TIP3    H167603   4.143   1.555   5.743 -0.9050  0.1329  0.2935
15396TIP3    H267604   4.081   1.693   5.754 -0.8524  0.2438 -0.7180
15397TIP3   OH267605   6.558   5.808   1.153  0.7640 -0.2607 -0.0917
15397TIP3    H167606   6.612   5.871   1.201 -1.8923  2.2147 -0.2188
15397TIP3    H267607   6.514   5.757   1.222 -1.1424  1.6224  0.1140
15398TIP3   OH267608   3.364   5.112  15.595 -0.6724  0.2956 -0.3678
15398TIP3    H167609   3.440   5.124  15.539 -0.5371  1.4041  0.0403
15398TIP3    H267610   3.310   5.048  15.549  0.4475 -0.4304 -0.7139
15399TIP3   OH267611   5.277   0.930  15.869  0.8753  0.2867  0.1869
15399TIP3    H167612   5.269   0.891  15.782  0.4152  1.6960 -0.4243
15399TIP3    H267613   5.371   0.934  15.886  0.9478 -0.4253 -0.0525
15400TIP3   OH267614   4.519   6.250  14.904  0.0363 -0.6836  0.3597
15400TIP3    H167615   4.561   6.207  14.829  0.7654  0.0390  0.3407
15400TIP3    H267616   4.573   6.225  14.979 -0.0600 -0.5348  0.4779
15401TIP3   OH267617   6.467   3.753  14.766 -0.3019  0.4300  0.0970
15401TIP3    H167618   6.530   3.757  14.838 -1.5235  0.9604  1.1647
15401TIP3    H267619   6.511   3.795  14.692  0.7265  0.4409  0.7038
15402TIP3   OH267620   0.481   5.478   2.002  0.3477  0.0051  0.1300
15402TIP3    H167621   0.411   5.419   2.031  2.6823 -3.9242 -1.8092
15402TIP3    H267622   0.548   5.469   2.070  0.7757  0.2904 -0.2580
15403TIP3   OH267623   3.382   1.969  16.936  0.1746 -0.0020 -0.4737
15403TIP3    H167624   3.392   1.987  16.843  0.8701 -0.8244 -0.5577
15403TIP3    H267625   3.347   1.880  16.941  1.9956 -0.7187  0.0832
15404TIP3   OH267626   0.219   4.579   4.550  0.3689  0.3896  0.3425
15404TIP3    H167627   0.129   4.586   4.580  1.2667 -0.5517  3.4096
15404TIP3    H267628   0.264   4.652   4.594  1.3013  0.2476 -0.3751
15405TIP3   OH267629   4.946   3.882  12.194  0.8043  0.2928 -0.2148
15405TIP3    H167630   4.891   3.941  12.245 -0.6307 -0.5702 -0.7538
15405TIP3    H267631   4.903   3.797  12.200  3.6796 -1.0941  1.8576
15406TIP3   OH267632   5.472   5.030  16.120  0.3476 -0.2807 -0.3877
15406TIP3    H167633   5.415   4.986  16.057  0.3716  0.3330 -0.8365
15406TIP3    H267634   5.425   5.026  16.203 -0.2845  0.1014 -0.7278
15407TIP3   OH267635   6.011   2.612  13.424 -0.4766 -0.8918  0.2840
15407TIP3    H167636   5.981   2.650  13.341  1.2148  2.0631  0.9792
15407TIP3    H267637   6.079   2.550  13.399 -0.1650 -0.2120 -0.5929
15408TIP3   OH267638   3.088   6.465   3.536  0.6934  0.4018  0.2123
15408TIP3    H167639   3.105   6.379   3.573 -1.5269 -0.6510 -1.0903
15408TIP3    H267640   3.143   6.469   3.458  1.1863  0.3749  0.5577
15409TIP3   OH267641   4.244   2.939   2.343  0.4836 -0.2752  0.0489
15409TIP3    H167642   4.170   2.948   2.283  0.3383  0.7688  0.3772
15409TIP3    H267643   4.307   2.883   2.296  0.8252  1.3701 -1.5083
15410TIP3   OH267644   4.537   6.346   0.273 -0.0773 -0.2113 -0.4758
15410TIP3    H167645   4.488   6.411   0.222  1.5462  1.9433  0.6003
15410TIP3    H267646   4.582   6.293   0.208  0.8316  1.5886 -1.3350
15411TIP3   OH267647   3.345   5.575  16.941  0.1894  0.4333 -0.1838
15411TIP3    H167648   3.333   5.519  17.017 -0.7097 -0.8313 -1.2264
15411TIP3    H267649   3.258   5.609  16.922  0.3683  0.5837 -0.7627
15412TIP3   OH267650   4.984   1.501   2.827 -0.3068  0.5637 -0.4551
15412TIP3    H167651   4.973   1.423   2.773 -1.2619  1.0626 -0.9818
15412TIP3    H267652   4.957   1.473   2.915  0.1113  0.0887 -0.4712
15413TIP3   OH267653   4.252   3.497   0.080  0.2059 -0.0138 -0.1553
15413TIP3    H167654   4.260   3.592   0.083 -1.3485  0.1151  0.4249
15413TIP3    H267655   4.177   3.481   0.022  1.5042 -0.9476 -1.6069
15414TIP3   OH267656   0.434   0.146   1.502  0.4022  0.5692  0.2694
15414TIP3    H167657   0.504   0.207   1.476 -1.5614  2.5185 -0.6205
15414TIP3    H267658   0.395   0.118   1.420  0.6728 -1.1975  0.7246
15415TIP3   OH267659   0.044   4.880   0.345  0.6340 -0.4959  0.3620
15415TIP3    H167660   0.100   4.941   0.392 -1.4814 -0.1410  2.5485
15415TIP3    H267661   0.020   4.926   0.265  1.5518  0.2770  0.5253
15416TIP3   OH267662   4.437   6.057   0.911  0.2838  0.1164  0.0310
15416TIP3    H167663   4.519   6.101   0.934 -0.3083  0.8871  0.7307
15416TIP3    H267664   4.445   5.970   0.950  0.0133  0.8191  1.7034
15417TIP3   OH267665   2.970   5.308   0.561  0.3965  0.0678  0.2700
15417TIP3    H167666   2.913   5.329   0.487 -0.6948  0.6274  1.2484
15417TIP3    H267667   2.949   5.218   0.583 -0.3982  0.3976  0.8757
15418TIP3   OH267668   0.245   6.202  15.208 -0.2593 -0.4293  0.3116
15418TIP3    H167669   0.193   6.138  15.257  1.9890 -0.8126  2.2864
15418TIP3    H267670   0.237   6.173  15.117 -1.7569 -1.7053  0.8098
15419TIP3   OH267671   1.680   3.839   4.094 -0.1300 -0.1675 -0.0660
15419TIP3    H167672   1.713   3.928   4.082  0.3373 -0.6271 -2.2507
15419TIP3    H267673   1.742   3.783   4.046 -1.0485 -1.5705  0.3434
15420TIP3   OH267674   3.916   0.731   1.938  0.1928  0.0371  0.3249
15420TIP3    H167675   3.985   0.680   1.980 -0.5185 -0.3458  1.0285
15420TIP3    H267676   3.852   0.748   2.007 -1.3002 -1.1567 -0.7245
15421TIP3   OH267677   6.313   2.923  11.426  0.0206  0.4113 -0.6976
15421TIP3    H167678   6.352   3.009  11.444 -0.2678  1.3297 -4.0873
15421TIP3    H267679   6.224   2.929  11.461 -0.1340  1.6402 -1.2884
15422TIP3   OH267680   1.561   4.332  16.617 -0.8086 -0.2771 -0.1527
15422TIP3    H167681   1.599   4.311  16.702 -0.2318  0.5882 -0.1926
15422TIP3    H267682   1.514   4.253  16.591 -1.8212 -0.2205  1.4204
15423TIP3   OH267683   5.962   4.568   1.669 -0.0938  0.3240  0.6148
15423TIP3    H167684   6.018   4.601   1.599  0.1527  0.8609  1.0566
15423TIP3    H267685   6.012   4.584   1.749  0.1841 -1.4390  0.8180
15424TIP3   OH267686   6.590   3.302   0.455 -0.1932 -0.7402 -0.1620
15424TIP3    H167687   6.606   3.255   0.538  0.7777  0.7420  0.5074
15424TIP3    H267688   6.582   3.394   0.481  2.0168 -0.0146 -1.9221
15425TIP3   OH267689   2.092   0.756   3.855  0.3363  0.4169  0.2885
15425TIP3    H167690   2.070   0.702   3.779  0.9322 -0.6471  0.8607
15425TIP3    H267691   2.172   0.802   3.830  0.3736  0.2843  0.1687
15426TIP3   OH267692   3.203   5.550   0.155  0.1563  0.1164 -0.5201
15426TIP3    H167693   3.158   5.590   0.229  1.2791 -0.0538  0.2754
15426TIP3    H267694   3.243   5.471   0.191  1.4042  0.4663 -1.0952
15427TIP3   OH267695   5.652   5.692  16.851 -0.0170 -0.2206  0.0681
15427TIP3    H167696   5.571   5.732  16.819  0.0489  0.9512  1.2893
15427TIP3    H267697   5.638   5.681  16.945  1.9748  1.9546  0.6949
15428TIP3   OH267698   1.291   1.130   0.271  0.7552  0.2268 -0.8547
15428TIP3    H167699   1.291   1.205   0.331  0.2941  0.2721 -0.9057
15428TIP3    H267700   1.359   1.150   0.207  0.8339  0.4647 -0.6974
15429TIP3   OH267701   4.702   4.809  13.131 -0.2417 -0.0382  0.1413
15429TIP3    H167702   4.682   4.720  13.160 -0.8636  0.0135 -0.1324
15429TIP3    H267703   4.619   4.844  13.098 -0.1324  0.8348  0.7526
15430TIP3   OH267704   5.410   4.857   3.985  0.0808 -0.0445  0.4921
15430TIP3    H167705   5.433   4.877   4.075 -0.2673 -2.3310  1.1324
15430TIP3    H267706   5.420   4.940   3.938  1.2784  0.9325  2.4098
15431TIP3   OH267707   4.964   2.335  13.751 -1.0858  0.2599  0.4961
15431TIP3    H167708   5.039   2.291  13.792  0.1357  1.4550 -0.3939
15431TIP3    H267709   4.948   2.284  13.671  0.1449  1.2190 -0.3874
15432TIP3   OH267710   4.515   0.632   2.021 -0.2160  0.1314  0.1234
15432TIP3    H167711   4.601   0.591   2.021  0.7927  2.1466 -1.7700
15432TIP3    H267712   4.494   0.645   2.114  1.5292 -0.3544  0.5909
15433TIP3   OH267713   0.749   3.899  12.293 -0.3210  0.3207  0.2915
15433TIP3    H167714   0.660   3.867  12.309  0.3392 -1.9247 -0.2994
15433TIP3    H267715   0.768   3.871  12.204  0.8749  1.0488  0.3131
15434TIP3   OH267716   1.709   5.976   5.751  0.1516  0.3558  0.0384
15434TIP3    H167717   1.740   5.885   5.747  0.7448  0.6103 -1.2062
15434TIP3    H267718   1.662   5.981   5.834 -2.0167 -1.7857 -0.9799
15435TIP3   OH267719   6.222   2.214   3.948  0.2041  0.2913 -0.5567
15435TIP3    H167720   6.143   2.187   3.901 -0.3912  1.4064 -0.2137
15435TIP3    H267721   6.227   2.309   3.935  0.7057  0.4329  0.6181
15436TIP3   OH267722   5.849   4.933   2.991  0.0540  0.2959 -0.3031
15436TIP3    H167723   5.775   4.889   3.033  1.2431 -3.8289 -2.2655
15436TIP3    H267724   5.829   4.927   2.897  1.5783  1.5773 -0.7181
15437TIP3   OH267725   2.806   3.647  17.220  0.0298 -0.2755  0.4850
15437TIP3    H167726   2.893   3.683  17.201 -0.2102  0.2071  0.3186
15437TIP3    H267727   2.750   3.723  17.233 -0.4773 -0.5855  0.1281
15438TIP3   OH267728   6.255   3.592   0.142  0.3616 -0.4904  0.3610
15438TIP3    H167729   6.182   3.608   0.082 -0.0267 -3.2428  0.0672
15438TIP3    H267730   6.333   3.603   0.088  0.2238  2.1448  0.6042
15439TIP3   OH267731   5.322   4.454  13.604 -0.5432 -0.0387 -0.0601
15439TIP3    H167732   5.279   4.422  13.524  2.6138 -0.8292 -1.5010
15439TIP3    H267733   5.370   4.531  13.576 -1.3543  1.1287  1.6546
15440TIP3   OH267734   0.786   5.601   5.644  0.7923  0.5905 -0.1465
15440TIP3    H167735   0.756   5.590   5.734 -0.8640  0.3245 -0.7084
15440TIP3    H267736   0.767   5.693   5.624  2.1631  0.9488  0.1120
15441TIP3   OH267737   4.337   6.744  17.002 -0.0347 -0.1671 -0.3764
15441TIP3    H167738   4.297   6.658  17.016 -0.7199  0.5926  2.7099
15441TIP3    H267739   4.297   6.800  17.068  3.7169  1.4421  0.6681
15442TIP3   OH267740   5.732   3.902   1.354  0.3206  0.4742 -0.8601
15442TIP3    H167741   5.783   3.907   1.273 -2.1629 -3.2417 -2.8142
15442TIP3    H267742   5.750   3.815   1.389 -1.3610  0.7136  0.6990
15443TIP3   OH267743   2.132   3.421  12.843 -0.1115  0.0718 -0.2514
15443TIP3    H167744   2.206   3.361  12.854  0.0030 -0.0391 -1.4658
15443TIP3    H267745   2.170   3.508  12.853 -0.5960 -0.0575  3.2590
15444TIP3   OH267746   3.029   1.141  11.961 -0.2705  0.0314 -0.0230
15444TIP3    H167747   3.100   1.131  11.899  0.6837  0.9410  0.8923
15444TIP3    H267748   3.063   1.105  12.043  0.0285  2.5280  1.0222
15445TIP3   OH267749   1.987   1.836  11.152 -0.6097 -0.0491  1.1166
15445TIP3    H167750   2.041   1.813  11.228  0.8619  0.0519  0.1168
15445TIP3    H267751   1.926   1.762  11.143 -0.3685 -0.3703  1.9879
15446TIP3   OH267752   4.205   1.364  16.826  0.2603 -0.1117  0.4042
15446TIP3    H167753   4.294   1.339  16.853  1.1214 -0.4480 -2.5026
15446TIP3    H267754   4.216   1.449  16.784 -1.0377  0.4722  1.2303
15447TIP3   OH267755   2.688   4.418   3.164  0.7642 -0.1968 -0.0492
15447TIP3    H167756   2.605   4.384   3.199  0.3583 -0.6763 -1.4720
15447TIP3    H267757   2.677   4.513   3.168  0.2258 -0.2556 -0.0631
15448TIP3   OH267758   1.578   1.825   3.081  0.1427  0.0180 -0.1653
15448TIP3    H167759   1.666   1.789   3.084 -0.5473 -1.8040 -1.0890
15448TIP3    H267760   1.588   1.916   3.110  2.2997 -0.1759 -0.2451
15449TIP3   OH267761   3.562   3.070   3.126  0.2095  0.0795 -0.1299
15449TIP3    H167762   3.649   3.062   3.166  0.3530  0.1378 -0.4285
15449TIP3    H267763   3.508   3.110   3.194  0.4493  0.1628  0.0133
15450TIP3   OH267764   0.469   4.069  11.905  0.2443 -0.2448  0.2785
15450TIP3    H167765   0.426   3.984  11.898  2.5494 -1.5017  1.0107
15450TIP3    H267766   0.510   4.083  11.819 -0.1630  0.1494  0.1458
15451TIP3   OH267767   0.555   2.277   1.108  0.0044  0.0772  0.4041
15451TIP3    H167768   0.621   2.346   1.103 -1.7106  1.7887  0.8304
15451TIP3    H267769   0.574   2.230   1.188 -0.7028  2.0726  1.7774
15452TIP3   OH267770   6.664   5.077  15.369 -0.4290 -0.1652  0.1131
15452TIP3    H167771   6.687   5.165  15.340 -0.8246 -0.1140 -0.0420
15452TIP3    H267772   6.724   5.020  15.321 -0.1203  0.0229  0.2717
15453TIP3   OH267773   4.753   0.085  10.591 -0.1735 -0.2914 -0.3615
15453TIP3    H167774   4.849   0.084  10.582  0.0343 -0.0672  1.5816
15453TIP3    H267775   4.735   0.164  10.642 -1.3529 -0.6158 -0.2683
15454TIP3   OH267776   3.215   0.087   0.346 -0.5279 -0.0074 -0.0292
15454TIP3    H167777   3.286   0.089   0.410  0.9955  0.3918 -1.6952
15454TIP3    H267778   3.219  -0.001   0.308  0.7263  0.8301 -1.9081
15455TIP3   OH267779   2.511   6.363   0.991 -0.0532 -0.4506  0.0553
15455TIP3    H167780   2.598   6.365   0.950  0.1600  1.1127  0.5629
15455TIP3    H267781   2.494   6.269   1.004  1.6550 -0.7725  0.1645
15456TIP3   OH267782   3.147   2.504   0.428 -0.1559  0.0408 -0.1622
15456TIP3    H167783   3.072   2.561   0.409 -1.8941 -1.1547  2.6502
15456TIP3    H267784   3.112   2.415   0.419 -0.5974 -0.6223  5.8153
15457TIP3   OH267785   3.116   6.349  14.259  0.6658 -0.0529 -0.2874
15457TIP3    H167786   3.185   6.391  14.208 -0.6449  2.8312  0.2294
15457TIP3    H267787   3.126   6.385  14.347 -0.6366 -0.6808  0.1383
15458TIP3   OH267788   1.129   1.927   6.224  0.6401 -0.6368  0.0104
15458TIP3    H167789   1.091   2.005   6.184 -1.6195 -1.2342  0.9451
15458TIP3    H267790   1.058   1.888   6.274  2.0816 -2.6275  0.5770
15459TIP3   OH267791   3.929   4.119   1.427 -0.0547  0.2796 -0.1987
15459TIP3    H167792   4.021   4.124   1.452  0.2030  0.3505 -1.1668
15459TIP3    H267793   3.900   4.035   1.463  0.6134 -0.1450 -0.6382
15460TIP3   OH267794   1.867   3.199   0.496  0.8692  0.3992  0.4798
15460TIP3    H167795   1.943   3.159   0.453  0.1276 -0.4402 -0.0781
15460TIP3    H267796   1.904   3.270   0.549  2.0240  0.0913  0.1097
15461TIP3   OH267797   2.304   3.648  12.594  0.4990 -0.0004 -0.2215
15461TIP3    H167798   2.284   3.674  12.684  0.0954  0.3817 -0.4216
15461TIP3    H267799   2.374   3.583  12.603  0.6567  0.2458  0.3498
15462TIP3   OH267800   4.512   2.441  12.075  0.6538 -0.1099  0.3614
15462TIP3    H167801   4.534   2.354  12.108 -0.4307 -0.7127 -0.4710
15462TIP3    H267802   4.475   2.426  11.988  0.7382  1.2125  0.0707
15463TIP3   OH267803   3.030   0.217  15.957  0.4794 -0.0766  0.5389
15463TIP3    H167804   2.961   0.181  15.901  0.5149  1.0230 -0.2470
15463TIP3    H267805   3.090   0.259  15.895  1.8425 -1.0157  1.2211
15464TIP3   OH267806   6.549   3.903  13.207  0.1306 -0.2182  0.6948
15464TIP3    H167807   6.484   3.971  13.190  0.9940  1.3676  3.5155
15464TIP3    H267808   6.498   3.826  13.233 -0.6928  0.3151  0.6455
15465TIP3   OH267809   4.731   1.145  12.806  0.9155 -0.9063  0.1576
15465TIP3    H167810   4.716   1.075  12.870 -0.7729  0.3147  1.1316
15465TIP3    H267811   4.645   1.161  12.768  1.1450  1.1083  0.4421
15466TIP3   OH267812   5.316   3.006   2.126 -0.4199 -0.4937 -0.0531
15466TIP3    H167813   5.335   2.914   2.145 -0.5224 -0.4004  0.5119
15466TIP3    H267814   5.226   3.006   2.095 -0.1587 -0.6841 -0.8240
15467TIP3   OH267815   4.018   0.957  15.771  0.2647  0.1837  0.3396
15467TIP3    H167816   4.036   1.038  15.820 -0.3736 -0.8920  2.3890
15467TIP3    H267817   4.059   0.888  15.823 -1.3266 -1.1202 -0.1193
15468TIP3   OH267818   2.824   3.438  13.308  0.3484  0.3229 -0.3019
15468TIP3    H167819   2.911   3.477  13.313  0.2667  0.5958 -0.8743
15468TIP3    H267820   2.821   3.400  13.220 -2.1926  5.3816 -2.5937
15469TIP3   OH267821   1.245   1.990   0.790 -0.2851  0.0960  0.1797
15469TIP3    H167822   1.159   1.954   0.767  0.2729 -0.4554 -1.0346
15469TIP3    H267823   1.273   1.938   0.865 -2.1616  1.9933  2.2901
15470TIP3   OH267824   0.965   3.383   5.588  0.4472  0.2364  0.3176
15470TIP3    H167825   0.916   3.302   5.605 -0.3327  0.8609  1.0768
15470TIP3    H267826   1.057   3.357   5.594  0.2680 -1.2045 -2.2772
15471TIP3   OH267827   4.002   3.415   2.950 -0.1794 -0.0062  0.1280
15471TIP3    H167828   3.965   3.491   2.904  1.5529  1.2979  0.8218
15471TIP3    H267829   3.990   3.436   3.043 -0.1856 -0.8339  0.3100
15472TIP3   OH267830   1.363   1.439   5.591 -0.3217  0.3434 -0.4891
15472TIP3    H167831   1.443   1.406   5.634 -0.4876  0.0284 -0.4185
15472TIP3    H267832   1.379   1.532   5.578  1.0552 -0.1540 -2.6520
15473TIP3   OH267833   3.458   0.153  13.603 -0.3029  0.1267 -0.7461
15473TIP3    H167834   3.509   0.214  13.549 -1.1764 -1.0920 -3.0543
15473TIP3    H267835   3.501   0.068  13.588 -0.5958 -0.2351  0.4682
15474TIP3   OH267836   4.456   0.326  14.134  0.1179  0.2154 -1.2225
15474TIP3    H167837   4.472   0.232  14.134 -0.4442  0.1144 -1.8339
15474TIP3    H267838   4.362   0.335  14.118 -0.4712  0.8103  2.1764
15475TIP3   OH267839   0.246   3.500  11.788 -0.4838  0.3883 -0.0519
15475TIP3    H167840   0.159   3.523  11.820 -0.4918  0.5510 -0.1882
15475TIP3    H267841   0.255   3.548  11.706 -0.2621  0.3777 -0.0343
15476TIP3   OH267842   5.368   2.934   1.772  0.4358 -0.1963  0.5986
15476TIP3    H167843   5.406   2.931   1.684 -1.6772  0.3986 -0.3690
15476TIP3    H267844   5.355   2.843   1.796  0.6281 -0.3536  0.1092
15477TIP3   OH267845   0.478   3.322  16.764  0.1030  0.3633  0.0888
15477TIP3    H167846   0.554   3.363  16.805 -0.8768  1.2184  1.0881
15477TIP3    H267847   0.403   3.368  16.801 -0.8929 -0.2190 -1.1588
15478TIP3   OH267848   1.452   1.839  12.962 -0.8072  0.1701 -0.0392
15478TIP3    H167849   1.542   1.809  12.948 -2.0495 -3.8110 -0.2433
15478TIP3    H267850   1.405   1.760  12.989 -4.2232  2.1835  0.1342
15479TIP3   OH267851   3.630   3.080   1.737 -0.9630  0.4072  0.1208
15479TIP3    H167852   3.607   2.989   1.717 -1.2722  0.5447 -0.1419
15479TIP3    H267853   3.726   3.081   1.735 -0.9765  0.2751 -0.7011
15480TIP3   OH267854   2.921   1.431  16.253  0.4436 -0.0625 -0.2680
15480TIP3    H167855   2.983   1.462  16.319 -2.1031  1.0561  1.6510
15480TIP3    H267856   2.896   1.510  16.205 -0.9324 -0.1896  0.2279
15481TIP3   OH267857   2.715   1.401  14.763 -0.1500  0.0455 -0.5302
15481TIP3    H167858   2.773   1.455  14.709  0.1575  0.2396 -0.0015
15481TIP3    H267859   2.707   1.448  14.845  1.4676 -1.5444  0.5635
15482TIP3   OH267860   2.395   1.055  14.744 -0.1360  0.1697 -0.4981
15482TIP3    H167861   2.379   1.062  14.838  1.0783  2.1921 -0.4265
15482TIP3    H267862   2.307   1.054  14.706 -0.6367 -0.3234  0.6278
15483TIP3   OH267863   3.960   1.641   1.622 -0.4232 -0.1395 -0.6667
15483TIP3    H167864   3.917   1.666   1.704 -0.3237  0.4318 -0.7825
15483TIP3    H267865   3.930   1.706   1.559  0.4750  0.1802 -0.7814
15484TIP3   OH267866   2.911   2.693  12.720  0.0142 -0.1304  0.4704
15484TIP3    H167867   2.954   2.770  12.758 -3.3051  2.0391  0.0285
15484TIP3    H267868   2.922   2.703  12.626 -0.5809 -0.1123  0.4031
15485TIP3   OH267869   2.540   4.349   4.508  0.3374 -0.1364  0.5047
15485TIP3    H167870   2.499   4.343   4.595  1.8674  1.8650  1.4155
15485TIP3    H267871   2.481   4.404   4.457  0.0647 -0.2745  0.6721
15486TIP3   OH267872   4.700   3.015   3.662  0.0648  0.6553 -0.6375
15486TIP3    H167873   4.768   2.989   3.723 -1.6921 -0.7001  0.8003
15486TIP3    H267874   4.674   3.102   3.690 -1.4150 -0.3384  1.2469
15487TIP3   OH267875   4.408   2.798  13.773  0.2819 -0.7148  0.0368
15487TIP3    H167876   4.502   2.818  13.773  0.5317 -1.8475  1.3930
15487TIP3    H267877   4.366   2.882  13.793  0.9859 -0.1694 -0.7469
15488TIP3   OH267878   5.009   4.555  15.046  0.4179  0.1062  0.4430
15488TIP3    H167879   4.927   4.539  14.998  0.6350 -2.9890  0.9875
15488TIP3    H267880   5.054   4.621  14.995 -1.2545 -0.0753 -1.3343
15489TIP3   OH267881   1.292   6.444   5.804  0.5605  0.4425  0.4029
15489TIP3    H167882   1.273   6.350   5.797  0.8552  0.4027  0.0907
15489TIP3    H267883   1.386   6.448   5.821  0.8145  0.7180 -0.9747
15490TIP3   OH267884   6.235   0.919  14.138 -0.1125  0.2842  0.0327
15490TIP3    H167885   6.209   0.854  14.072  0.0126 -0.3411  0.6020
15490TIP3    H267886   6.155   0.969  14.154 -0.0969  0.5578 -0.7309
15491TIP3   OH267887   6.603   5.205  15.897 -0.8290  0.3700  0.1887
15491TIP3    H167888   6.553   5.125  15.880 -1.6414  1.1595 -1.2154
15491TIP3    H267889   6.617   5.205  15.992 -0.3037 -1.7258  0.1267
15492TIP3   OH267890   6.417   2.483   4.940  0.0097  0.1434 -0.4076
15492TIP3    H167891   6.486   2.516   4.998  0.1786 -0.5406 -0.2171
15492TIP3    H267892   6.428   2.534   4.860 -0.2261  1.0982  0.1525
15493TIP3   OH267893   4.544   3.198   4.393 -0.8830 -0.3667  0.1425
15493TIP3    H167894   4.537   3.231   4.304  0.8752 -1.9920 -0.6212
15493TIP3    H267895   4.628   3.232   4.425  0.1947 -2.6884 -0.1031
15494TIP3   OH267896   4.548   2.875   2.482 -0.0739  0.2430 -0.1706
15494TIP3    H167897   4.535   2.780   2.479 -0.8411  0.2851  1.2998
15494TIP3    H267898   4.480   2.906   2.541  0.4471  1.6610 -0.3110
15495TIP3   OH267899   0.607   5.650  10.798  0.5223  0.5970  0.1658
15495TIP3    H167900   0.589   5.697  10.716  0.8768  1.9287  0.8471
15495TIP3    H267901   0.683   5.596  10.778  0.0837  0.2572 -0.6394
15496TIP3   OH267902   6.357   3.057   6.699  0.0139 -0.3759  0.0542
15496TIP3    H167903   6.417   3.130   6.718  0.2093 -0.2970 -0.8569
15496TIP3    H267904   6.308   3.045   6.780  0.9369 -0.1271  0.6564
15497TIP3   OH267905   0.174   0.821   0.698  0.0226 -0.1900  0.5720
15497TIP3    H167906   0.268   0.834   0.693  0.0156 -0.5308 -0.6372
15497TIP3    H267907   0.153   0.828   0.791  1.2592 -0.2653  0.8565
15498TIP3   OH267908   5.365   1.596  13.061 -0.3181  0.3599  0.2565
15498TIP3    H167909   5.358   1.515  13.113 -0.8080 -0.2517 -0.7433
15498TIP3    H267910   5.283   1.642  13.078 -1.1181 -0.5373 -1.1106
15499TIP3   OH267911   4.384   6.568   3.347 -0.0591 -0.2444 -0.0980
15499TIP3    H167912   4.409   6.660   3.345 -1.2847  0.1102  0.4377
15499TIP3    H267913   4.412   6.534   3.262  0.3377  0.6368 -0.3232
15500TIP3   OH267914   0.498   1.572   1.901  0.2119 -0.1199  0.3915
15500TIP3    H167915   0.425   1.589   1.961  1.0410 -0.7781  1.6300
15500TIP3    H267916   0.499   1.477   1.890  1.4751 -0.2251  1.1991
15501TIP3   OH267917   5.993   5.557  13.241 -0.1730  0.0488 -0.0017
15501TIP3    H167918   5.939   5.545  13.162  1.8414 -3.4402 -0.9595
15501TIP3    H267919   6.080   5.527  13.215  1.2453  1.5930  2.7504
15502TIP3   OH267920   0.135   4.000  13.439  0.0788 -0.2172  0.4815
15502TIP3    H167921   0.197   3.974  13.371 -0.9181  0.4198 -0.6925
15502TIP3    H267922   0.050   3.998  13.396 -0.7290 -1.1184  2.0996
15503TIP3   OH267923   4.213   6.507   0.727  0.2718  0.3015  0.2523
15503TIP3    H167924   4.220   6.415   0.753 -0.4255  0.1149 -0.1990
15503TIP3    H267925   4.243   6.556   0.804 -2.3177 -0.2321  1.6599
15504TIP3   OH267926   0.666   6.740   0.726  0.2003 -0.5643 -0.3334
15504TIP3    H167927   0.661   6.779   0.639 -0.5921 -2.1471 -1.0233
15504TIP3    H267928   0.705   6.808   0.781 -0.5688  0.9465 -1.6206
15505TIP3   OH267929   3.901   3.880   6.013  0.1134 -0.6357  0.4915
15505TIP3    H167930   3.881   3.905   6.103 -4.4082  2.0506 -1.1026
15505TIP3    H267931   3.832   3.817   5.990  1.3371 -1.4502 -1.0815
15506TIP3   OH267932   2.013   3.201  11.523  0.3645 -0.0209  0.1875
15506TIP3    H167933   2.080   3.151  11.475 -0.1403 -0.6725  0.1479
15506TIP3    H267934   1.931   3.180  11.478  0.6559  4.3838 -2.7117
15507TIP3   OH267935   3.190   2.290   4.115 -0.5372  0.5481  0.2598
15507TIP3    H167936   3.116   2.291   4.053 -0.3597 -1.2491 -0.0048
15507TIP3    H267937   3.149   2.282   4.201 -0.7011  0.9566  0.2214
15508TIP3   OH267938   4.014   5.446   3.378 -0.7853 -0.9361 -0.1663
15508TIP3    H167939   4.056   5.366   3.347 -0.0783 -0.1210 -1.3655
15508TIP3    H267940   4.041   5.454   3.469  0.0355 -1.4814 -0.3577
15509TIP3   OH267941   6.109   1.901   5.056  0.4436 -0.2481  0.2568
15509TIP3    H167942   6.115   1.996   5.061 -1.4821 -0.1200  0.3765
15509TIP3    H267943   6.015   1.883   5.051  0.8673 -2.0505 -1.7001
15510TIP3   OH267944   6.227   0.737   3.433  0.6312  0.3629  0.2016
15510TIP3    H167945   6.313   0.703   3.407  0.3986  0.8286 -1.2074
15510TIP3    H267946   6.204   0.685   3.510  1.9998 -0.0375  0.3601
15511TIP3   OH267947   4.532   1.060   3.074  0.1044 -0.3017 -0.0990
15511TIP3    H167948   4.596   1.084   3.141  1.6027 -0.8770 -1.2787
15511TIP3    H267949   4.465   1.128   3.079  0.8052  0.3256  1.1576
15512TIP3   OH267950   1.945   0.547  15.191 -0.3897  0.0473  0.8461
15512TIP3    H167951   1.909   0.599  15.264 -0.6583 -1.5280  1.8606
15512TIP3    H267952   1.920   0.457  15.212 -1.2995 -0.3328 -1.7113
15513TIP3   OH267953   6.599   0.011  13.425 -0.1342  0.1834  0.0712
15513TIP3    H167954   6.682  -0.009  13.380  1.3973  0.2684  2.7622
15513TIP3    H267955   6.579  -0.069  13.474 -1.0022  0.6264  0.4385
15514TIP3   OH267956   6.303   5.759  10.704  0.1352  0.4104 -0.1849
15514TIP3    H167957   6.288   5.828  10.638  0.8691  0.1931 -0.5846
15514TIP3    H267958   6.225   5.704  10.699  0.4999 -0.0181 -1.3932
15515TIP3   OH267959   1.966   2.281  13.762 -0.1553 -0.3527  0.3965
15515TIP3    H167960   1.901   2.350  13.752 -0.4826 -0.8101 -0.7307
15515TIP3    H267961   2.042   2.325  13.800 -0.0342  0.8187 -1.1497
15516TIP3   OH267962   3.639   2.593   3.072 -0.1946  0.8086  0.0052
15516TIP3    H167963   3.657   2.603   3.166 -1.1558  1.2669  0.1540
15516TIP3    H267964   3.591   2.672   3.048  0.0251  0.6802 -0.8684
15517TIP3   OH267965   1.388   4.799  16.686 -0.3178  0.1305 -0.7957
15517TIP3    H167966   1.435   4.717  16.670 -1.0588 -0.6930  1.0612
15517TIP3    H267967   1.380   4.804  16.781 -0.0171  2.5420 -0.8706
15518TIP3   OH267968   2.522   2.706  10.944 -0.0578  0.2989 -0.2565
15518TIP3    H167969   2.559   2.644  10.882 -1.3282 -0.2644 -0.4808
15518TIP3    H267970   2.440   2.735  10.903 -0.0587  1.2228  0.3756
15519TIP3   OH267971   0.259   4.563  11.793 -0.0959  0.0548  0.2103
15519TIP3    H167972   0.269   4.487  11.736  1.5288  0.4185 -0.0067
15519TIP3    H267973   0.319   4.628  11.757 -1.7382  1.5767  0.1830
15520TIP3   OH267974   4.844   2.659   1.164 -0.1217  0.1705 -0.6234
15520TIP3    H167975   4.908   2.697   1.105  0.2997  1.3259  0.5456
15520TIP3    H267976   4.868   2.692   1.251 -1.4477 -0.5046  0.0289
15521TIP3   OH267977   3.868   3.931  11.884  0.1235  0.6723 -0.3915
15521TIP3    H167978   3.938   3.880  11.922 -1.0729 -0.1753  0.7258
15521TIP3    H267979   3.826   3.872  11.821 -0.2667  0.8018 -0.2562
15522TIP3   OH267980   0.110   5.518  16.673  0.2230  0.4620  0.3078
15522TIP3    H167981   0.083   5.610  16.668  0.4450  0.4282 -2.2739
15522TIP3    H267982   0.077   5.479  16.592  1.4773 -1.3747  0.6541
15523TIP3   OH267983   1.388   2.850   1.829 -0.1782  0.3597  0.2755
15523TIP3    H167984   1.303   2.834   1.869  1.3519  0.1659  3.6236
15523TIP3    H267985   1.406   2.942   1.847  0.8970  0.0606  0.7710
15524TIP3   OH267986   1.057   4.588  13.201  0.0141 -0.6697  0.0895
15524TIP3    H167987   1.112   4.619  13.273  0.0220  0.3110 -0.3443
15524TIP3    H267988   1.109   4.603  13.123 -0.9096  0.3698 -0.3380
15525TIP3   OH267989   6.500   1.836   0.786 -0.1404  0.8467  0.3994
15525TIP3    H167990   6.520   1.755   0.739 -2.0180 -0.0577  1.0811
15525TIP3    H267991   6.582   1.860   0.830  1.2207  0.9056 -2.1048
15526TIP3   OH267992   1.804   1.802   0.112 -0.1478 -0.1402 -0.1828
15526TIP3    H167993   1.874   1.835   0.169 -0.9742  1.1417  0.1119
15526TIP3    H267994   1.783   1.716   0.148  0.8678 -0.2793  0.0918
15527TIP3   OH267995   4.668   2.249  12.629  0.0248 -0.1886 -0.5546
15527TIP3    H167996   4.587   2.231  12.581  0.5676  0.5810 -1.7842
15527TIP3    H267997   4.680   2.344  12.621  1.3372 -0.3734 -0.8410
15528TIP3   OH267998   3.653   4.062   0.005  0.1258  0.7040  0.4111
15528TIP3    H167999   3.578   4.089   0.057  0.4433  1.1328  0.6500
15528TIP3    H268000   3.707   4.010   0.064 -0.6033 -0.6833 -0.1131
15529TIP3   OH268001   3.062   3.938  12.999  0.4793 -0.2174 -0.6808
15529TIP3    H168002   3.073   4.031  12.978 -1.0966  0.0113 -0.5006
15529TIP3    H268003   3.033   3.898  12.916 -2.2727  0.0738  0.0985
15530TIP3   OH268004   1.076   0.083   3.491 -0.2816 -0.3904 -0.1024
15530TIP3    H168005   1.075   0.175   3.468 -0.6099 -0.6724 -1.2364
15530TIP3    H268006   1.168   0.063   3.507 -0.4680  0.7537  2.7658
15531TIP3   OH268007   4.087   6.140  12.640 -0.8714 -0.3597  0.1513
15531TIP3    H168008   4.067   6.130  12.733 -1.0402 -1.5128 -0.0082
15531TIP3    H268009   4.182   6.151  12.636 -0.4009 -3.9558  0.1791
15532TIP3   OH268010   1.570   2.631   2.058  0.0550  0.2920  0.4328
15532TIP3    H168011   1.513   2.602   2.129  1.0613  0.4544  1.3163
15532TIP3    H268012   1.573   2.726   2.066 -1.2464  0.4666 -0.9304
15533TIP3   OH268013   1.126   3.848   3.188  0.2955  0.7546  0.0366
15533TIP3    H168014   1.195   3.843   3.121  0.4805  2.0161  0.1191
15533TIP3    H268015   1.126   3.940   3.216  0.0237  0.2991  1.5735
15534TIP3   OH268016   1.798   0.006   4.573 -0.1980  0.5124 -0.7176
15534TIP3    H168017   1.836   0.093   4.558  0.3772  0.7435  1.7955
15534TIP3    H268018   1.706   0.016   4.552 -0.2783  1.9586  0.1983
15535TIP3   OH268019   1.090   3.361   3.826  0.1655 -0.4737 -0.1467
15535TIP3    H168020   1.034   3.316   3.889  0.7169 -1.6410 -0.4718
15535TIP3    H268021   1.146   3.417   3.880 -1.3690  0.8094  0.1710
15536TIP3   OH268022   1.591   5.193   2.803 -0.3132 -0.9381 -0.1236
15536TIP3    H168023   1.684   5.213   2.792  0.0579 -0.9029  2.6590
15536TIP3    H268024   1.568   5.141   2.726  1.3316  1.2110 -2.1562
15537TIP3   OH268025   1.471   2.605  11.623  0.0415 -0.0469 -0.6080
15537TIP3    H168026   1.475   2.700  11.612 -0.0391  0.1384  0.7984
15537TIP3    H268027   1.558   2.580  11.654 -0.6280 -0.0933  1.3069
15538TIP3   OH268028   0.846   2.717   5.647 -0.3773 -0.2144 -0.3493
15538TIP3    H168029   0.814   2.704   5.557  0.2495  1.3811 -0.8138
15538TIP3    H268030   0.788   2.783   5.684 -0.3427 -0.5312  0.2709
15539TIP3   OH268031   1.644   4.372   2.182 -0.4618  0.1542 -0.5484
15539TIP3    H168032   1.588   4.377   2.104 -1.2014  0.7584  0.0079
15539TIP3    H268033   1.647   4.279   2.204  1.2615 -0.2448 -2.3626
15540TIP3   OH268034   2.117   5.969   4.224 -0.1640 -0.4800 -0.1710
15540TIP3    H168035   2.089   6.059   4.242  0.5394 -0.2226 -0.3797
15540TIP3    H268036   2.086   5.952   4.135 -1.2041 -0.8050  0.2420
15541TIP3   OH268037   3.756   0.519   4.800  0.0308 -0.2123  0.3039
15541TIP3    H168038   3.796   0.594   4.755 -1.6928  0.3158 -0.3668
15541TIP3    H268039   3.700   0.478   4.734 -0.2953 -1.1503  1.1465
15542TIP3   OH268040   2.817   0.179  11.415 -0.4481  0.0186 -0.0204
15542TIP3    H168041   2.910   0.181  11.438 -0.4852  0.8533  0.0603
15542TIP3    H268042   2.775   0.234  11.481 -0.9872 -0.2781 -0.1143
15543TIP3   OH268043   2.147   6.265  15.866 -0.2242 -0.0744  0.1535
15543TIP3    H168044   2.139   6.197  15.933 -1.0338 -0.1418 -0.0064
15543TIP3    H268045   2.197   6.224  15.795  0.9309  0.1070  0.8563
15544TIP3   OH268046   1.099   2.767   3.360 -0.4473  0.2419  0.1351
15544TIP3    H168047   1.047   2.696   3.323 -2.8980  1.4558  1.0718
15544TIP3    H268048   1.120   2.738   3.449 -1.8351  0.8202  0.6769
15545TIP3   OH268049   1.294   1.078  16.057  0.2202 -0.0710  0.4971
15545TIP3    H168050   1.322   1.006  15.999  0.0767  0.9463 -0.8767
15545TIP3    H268051   1.339   1.155  16.022  0.1535  0.5651  1.7852
15546TIP3   OH268052   6.759   0.995  10.576 -0.0908 -0.3873 -0.8575
15546TIP3    H168053   6.773   0.900  10.571  0.0457 -0.4317  0.2019
15546TIP3    H268054   6.670   1.004  10.612 -0.4026 -0.1125 -1.6941
15547TIP3   OH268055   4.096   4.127   4.318 -0.1958  0.2306 -0.0675
15547TIP3    H168056   4.032   4.057   4.307  2.0571 -1.8459 -0.4323
15547TIP3    H268057   4.148   4.125   4.238  0.5767  1.6046  0.3919
15548TIP3   OH268058   3.181   3.454  13.996 -0.6246 -0.7576 -0.3916
15548TIP3    H168059   3.229   3.372  14.007 -0.2740 -0.4630  0.3132
15548TIP3    H268060   3.219   3.513  14.061 -0.0466  0.3493 -1.7126
15549TIP3   OH268061   1.661   2.145   5.199 -0.1858 -0.0987 -0.5552
15549TIP3    H168062   1.618   2.061   5.187  0.4983 -0.5527  0.1146
15549TIP3    H268063   1.718   2.132   5.275 -1.1120  1.3593  0.4116
15550TIP3   OH268064   1.822   0.044  13.142 -0.7151 -0.0981 -0.0785
15550TIP3    H168065   1.792   0.093  13.219 -0.1176  0.5968 -0.2904
15550TIP3    H268066   1.811   0.104  13.069  0.4665 -0.1141 -0.2740
15551TIP3   OH268067   5.733   4.571  14.565 -0.5792  0.6954  0.5848
15551TIP3    H168068   5.701   4.612  14.485  1.9932  1.1837 -0.2485
15551TIP3    H268069   5.657   4.569  14.623 -2.1817  1.4137 -1.4298
15552TIP3   OH268070   6.609   3.920   0.335 -0.1665 -0.5151  0.0613
15552TIP3    H168071   6.581   3.829   0.345  0.3551 -0.7076 -0.2194
15552TIP3    H268072   6.657   3.922   0.253 -0.6633  0.1412 -0.2252
15553TIP3   OH268073   3.000   6.536  16.818  0.0833  0.0274 -0.0236
15553TIP3    H168074   3.080   6.560  16.772  0.1279  0.7653  0.4221
15553TIP3    H268075   2.958   6.619  16.838 -0.5827 -0.3393  0.1233
15554TIP3   OH268076   3.641   0.845  16.534  0.5589 -0.3354  0.1568
15554TIP3    H168077   3.724   0.847  16.486  0.9176 -2.1691  0.6726
15554TIP3    H268078   3.666   0.827  16.624 -0.4308 -1.6731  0.1815
15555TIP3   OH268079   4.858   4.541  16.711  0.2402  0.4779  0.1772
15555TIP3    H168080   4.815   4.591  16.781  0.1701 -1.8168  1.8543
15555TIP3    H268081   4.831   4.450  16.727  2.5882 -0.4848 -1.0781
15556TIP3   OH268082   1.205   3.185   1.276  0.1837  0.3139 -0.3199
15556TIP3    H168083   1.233   3.149   1.360  1.2822  0.7959 -0.4643
15556TIP3    H268084   1.246   3.128   1.211 -0.7941 -0.1539 -0.5337
15557TIP3   OH268085   4.454   2.212  12.260  0.3078  0.3589  0.1993
15557TIP3    H168086   4.511   2.136  12.244  0.6631  0.1686  2.2414
15557TIP3    H268087   4.371   2.188  12.220  0.5332 -0.9504  0.4769
15558TIP3   OH268088   5.432   4.390   2.422  0.5734  0.1801  0.1599
15558TIP3    H168089   5.438   4.405   2.327  1.2127  0.5667  0.2544
15558TIP3    H268090   5.523   4.391   2.452  0.3885 -0.2107  0.7410
15559TIP3   OH268091   4.672   5.594  12.475 -0.2906 -0.3576  0.1615
15559TIP3    H168092   4.730   5.671  12.478 -1.5726  0.5730  1.6055
15559TIP3    H268093   4.722   5.525  12.520  0.1197  0.1608  0.5120
15560TIP3   OH268094   0.241   6.509   2.692  0.1975  0.1242 -0.3619
15560TIP3    H168095   0.313   6.520   2.631  0.8817  1.2941  0.6185
15560TIP3    H268096   0.225   6.598   2.726 -2.4342  0.1008 -1.3870
15561TIP3   OH268097   5.858   6.694  12.500  0.4237  0.1719  0.2570
15561TIP3    H168098   5.821   6.617  12.544  0.8627 -0.4164 -0.3773
15561TIP3    H268099   5.838   6.679  12.407 -0.2467  1.2496  0.2232
15562TIP3   OH268100   0.925   3.473  12.303  0.3119 -0.0249  0.0962
15562TIP3    H168101   0.881   3.543  12.351  1.9656  0.3437  1.0991
15562TIP3    H268102   0.854   3.424  12.262 -0.9683  1.1769  0.8356
15563TIP3   OH268103   4.524   5.315   0.017  0.3136 -0.1008  0.3072
15563TIP3    H168104   4.446   5.346   0.063 -0.2151 -1.8878  0.6282
15563TIP3    H268105   4.510   5.341  -0.074 -1.7529 -2.4357 -0.0801
15564TIP3   OH268106   1.884   6.156   5.147  0.2363 -0.6095  0.3560
15564TIP3    H168107   1.803   6.183   5.103  0.5424 -1.3766 -0.6923
15564TIP3    H268108   1.914   6.236   5.192  0.1918  0.3430 -1.2635
15565TIP3   OH268109   4.489   1.608   2.555  0.1417  0.3757  0.2463
15565TIP3    H168110   4.429   1.548   2.511 -0.5864  1.6052 -0.4541
15565TIP3    H268111   4.560   1.552   2.587 -1.0278 -0.9913  0.4804
15566TIP3   OH268112   1.475   3.709  12.829  0.1146 -0.1192 -0.4034
15566TIP3    H168113   1.530   3.677  12.758  0.1417  0.9928 -0.8885
15566TIP3    H268114   1.435   3.789  12.795  0.4844  0.6796  0.9837
15567TIP3   OH268115   0.863   3.407   3.232  0.4643  0.1486 -0.2216
15567TIP3    H168116   0.770   3.431   3.229  0.8336  1.7147  0.0903
15567TIP3    H268117   0.865   3.313   3.217 -1.3095 -0.1755  1.4147
15568TIP3   OH268118   3.167   4.160   1.675 -0.2912 -0.0012  0.0865
15568TIP3    H168119   3.192   4.252   1.689 -2.6543  0.8877 -1.1557
15568TIP3    H268120   3.250   4.112   1.674  1.0235  2.1916  0.2176
15569TIP3   OH268121   3.356   4.886   1.920 -0.5802 -0.8042 -0.0955
15569TIP3    H168122   3.407   4.926   1.849  0.0272 -1.7916 -0.2198
15569TIP3    H268123   3.401   4.915   2.000 -0.5850 -0.6282 -0.1554
15570TIP3   OH268124   1.109   2.953   3.890  0.9003  0.4351 -0.2268
15570TIP3    H168125   1.090   2.952   3.797 -0.1217 -0.0265 -0.0147
15570TIP3    H268126   1.171   3.025   3.901 -1.1364  2.3425 -0.8478
15571TIP3   OH268127   5.847   5.475  16.423  0.0548  0.0423  0.1347
15571TIP3    H168128   5.815   5.479  16.513  0.9225  0.7607  0.4175
15571TIP3    H268129   5.920   5.537  16.421 -1.0687  1.3503 -1.5202
15572TIP3   OH268130   6.315   6.105   1.514 -0.4334 -0.3172 -0.1268
15572TIP3    H168131   6.386   6.131   1.573 -0.8637  0.0938  0.2143
15572TIP3    H268132   6.242   6.083   1.572  0.0053 -2.5733 -0.3923
15573TIP3   OH268133   6.034   4.032  12.342  0.9263 -0.2421 -0.0952
15573TIP3    H168134   5.954   4.047  12.292  0.6645 -2.5183 -0.3709
15573TIP3    H268135   6.019   4.078  12.425 -0.1758  0.3034 -0.5848
15574TIP3   OH268136   2.227   2.227  13.586  0.0891 -0.1854 -0.1175
15574TIP3    H168137   2.279   2.149  13.566 -0.4344  0.1386 -2.8451
15574TIP3    H268138   2.271   2.266  13.662  2.2474 -1.3705 -0.7136
15575TIP3   OH268139   0.882   2.241  12.187 -0.4851  0.4287  0.3326
15575TIP3    H168140   0.963   2.197  12.213  0.1135  1.1797 -0.2179
15575TIP3    H268141   0.819   2.219  12.255 -0.0855 -0.9460  0.2766
15576TIP3   OH268142   2.235   3.370   5.777 -0.1330  0.0409  0.2843
15576TIP3    H168143   2.162   3.379   5.838  0.1192 -0.4072  0.6542
15576TIP3    H268144   2.306   3.419   5.817 -0.2634  0.5910 -0.1406
15577TIP3   OH268145   0.189   1.252  15.411 -0.4869 -0.1462  0.6650
15577TIP3    H168146   0.239   1.173  15.392 -0.9311 -0.5364  1.1153
15577TIP3    H268147   0.243   1.300  15.474  0.4057  0.5562 -0.5979
15578TIP3   OH268148   6.010   0.707   1.961  0.2466  0.3772 -0.5629
15578TIP3    H168149   5.984   0.798   1.979  0.6211  0.8834 -2.4430
15578TIP3    H268150   6.020   0.668   2.047 -0.6604  1.9145  0.2747
15579TIP3   OH268151   2.173   4.807   3.496  0.2547 -0.0004 -0.1595
15579TIP3    H168152   2.097   4.754   3.473  0.3984 -1.3505  2.2944
15579TIP3    H268153   2.136   4.885   3.538  0.1868 -0.4366  0.6047
15580TIP3   OH268154   2.577   5.341   4.473 -0.0053  0.4400 -0.2672
15580TIP3    H168155   2.558   5.279   4.402 -0.4396 -1.2412  1.2869
15580TIP3    H268156   2.670   5.361   4.463 -0.3519  1.2479 -2.1007
15581TIP3   OH268157   5.723   6.383   2.026 -0.6565 -0.2657 -0.3199
15581TIP3    H168158   5.697   6.464   1.982 -0.3729 -0.1124 -0.2076
15581TIP3    H268159   5.805   6.405   2.069 -0.1699 -0.8400 -0.9491
15582TIP3   OH268160   2.121   5.716   0.284  0.0152  0.3167  0.1356
15582TIP3    H168161   2.069   5.655   0.337 -0.0509 -0.2666 -0.5990
15582TIP3    H268162   2.148   5.665   0.208  0.1705  1.1391 -0.3637
15583TIP3   OH268163   0.991   1.349   0.377 -0.2021 -0.5080 -0.1699
15583TIP3    H168164   0.993   1.254   0.369  0.3301 -0.6868  1.7275
15583TIP3    H268165   0.919   1.367   0.438 -0.1589  0.2903 -0.3427
15584TIP3   OH268166   5.399   6.580   3.073 -0.1546 -0.3440 -0.5555
15584TIP3    H168167   5.488   6.562   3.103 -1.3060 -0.2602  3.0404
15584TIP3    H268168   5.351   6.498   3.087 -2.3940  1.6403  4.4449
15585TIP3   OH268169   0.594   4.203   5.336 -0.2282  0.7472 -0.0256
15585TIP3    H168170   0.503   4.224   5.316 -0.7760  1.0763  2.6283
15585TIP3    H268171   0.594   4.108   5.347 -0.0313  0.6256 -1.0620
15586TIP3   OH268172   5.294   1.871   4.356  0.3446  0.3101  0.2755
15586TIP3    H168173   5.341   1.936   4.303  0.9561  0.4308  0.9522
15586TIP3    H268174   5.364   1.822   4.399 -0.1625  1.7423  2.8150
15587TIP3   OH268175   3.251   4.360  13.289 -0.2677 -0.3615  0.7112
15587TIP3    H168176   3.315   4.302  13.247 -0.1823  0.4529 -0.2710
15587TIP3    H268177   3.201   4.301  13.346  0.2427 -1.3003  0.2150
15588TIP3   OH268178   6.433   6.244   2.017 -0.0223  0.0496 -0.2715
15588TIP3    H168179   6.440   6.188   2.094  0.0240  0.6097  0.1345
15588TIP3    H268180   6.494   6.316   2.034 -1.6995  1.3897  0.2215
15589TIP3   OH268181   2.225   1.342   5.688  0.1583 -0.8898  0.8150
15589TIP3    H168182   2.318   1.356   5.668 -0.1392 -1.9905 -1.5927
15589TIP3    H268183   2.208   1.252   5.659 -1.9772 -0.2446 -0.0576
15590TIP3   OH268184   4.827   3.315  14.563  0.0215  0.3495 -0.1217
15590TIP3    H168185   4.892   3.252  14.533 -0.4874  0.0668 -0.6348
15590TIP3    H268186   4.860   3.345  14.648  0.5970 -0.1119 -0.1803
15591TIP3   OH268187   3.460   5.880  11.545 -0.0564  0.0439 -0.1941
15591TIP3    H168188   3.520   5.821  11.590 -1.0596  0.3889  1.6167
15591TIP3    H268189   3.515   5.953  11.517  0.6708 -0.4449 -0.0702
15592TIP3   OH268190   1.413   2.011   6.006 -0.3747 -0.0585 -0.5454
15592TIP3    H168191   1.366   1.928   5.997  0.1074 -0.1779 -2.0046
15592TIP3    H268192   1.400   2.055   5.922 -1.0802  1.5940  0.4076
15593TIP3   OH268193   5.139   0.467   2.459 -0.0095 -0.3881  0.3584
15593TIP3    H168194   5.143   0.431   2.371 -0.9140  0.7464 -0.1616
15593TIP3    H268195   5.081   0.407   2.507  0.2924 -0.8732  0.1154
15594TIP3   OH268196   1.457   1.753  12.044  0.1952 -0.8556 -0.2035
15594TIP3    H168197   1.496   1.792  11.965  0.9061 -1.6102 -0.2279
15594TIP3    H268198   1.505   1.671  12.057 -1.7810 -2.1066 -0.5704
15595TIP3   OH268199   1.272   1.537  11.503 -0.8110  0.4111 -0.1883
15595TIP3    H168200   1.276   1.577  11.590 -0.7320 -0.9380  0.4533
15595TIP3    H268201   1.360   1.546  11.468 -0.7039  0.4857  0.1015
15596TIP3   OH268202   4.329   2.194   4.913  0.0066 -0.1125  0.9176
15596TIP3    H168203   4.308   2.103   4.894 -0.2458  0.1057  0.1182
15596TIP3    H268204   4.333   2.199   5.009  2.0569 -1.3963  0.9253
15597TIP3   OH268205   0.668   2.935  12.723  0.6488  0.1958  0.0311
15597TIP3    H168206   0.728   2.987  12.669 -0.2905  1.6600  0.3896
15597TIP3    H268207   0.615   2.886  12.659  1.1458  0.1092 -0.3187
15598TIP3   OH268208   4.077   3.303  11.815  0.0597  0.1648  0.5579
15598TIP3    H168209   4.023   3.225  11.824  0.4250  0.1269  2.5122
15598TIP3    H268210   4.064   3.331  11.724 -2.7372 -0.1793  0.8345
15599TIP3   OH268211   2.273   2.332  16.179 -0.1841 -0.1718 -0.4485
15599TIP3    H168212   2.331   2.294  16.245  1.2126  1.3291 -0.7971
15599TIP3    H268213   2.270   2.266  16.109 -0.1243 -0.9056  0.2291
15600TIP3   OH268214   6.088   5.335  11.199  0.1117 -0.2072  0.0449
15600TIP3    H168215   6.030   5.351  11.274  0.2711 -0.1270  0.1523
15600TIP3    H268216   6.172   5.310  11.239  0.1870 -0.1983 -0.1079
15601TIP3   OH268217   2.906   4.908   1.012  0.1789 -0.1541  0.2978
15601TIP3    H168218   2.950   4.894   1.096 -0.9075 -2.3381  0.5246
15601TIP3    H268219   2.836   4.842   1.010 -1.7710  1.8744 -0.9745
15602TIP3   OH268220   0.024   3.551  15.406  0.3026  0.5240 -0.2597
15602TIP3    H168221   0.058   3.630  15.364  0.5724 -0.4167 -1.8514
15602TIP3    H268222  -0.068   3.570  15.423 -0.6908 -0.2039 -4.2343
15603TIP3   OH268223   3.581   6.582   1.722  0.1584 -0.1435  0.1866
15603TIP3    H168224   3.500   6.630   1.742  0.0172 -0.5811  0.6688
15603TIP3    H268225   3.554   6.517   1.658 -0.4473 -2.0654  2.3352
15604TIP3   OH268226   5.044   4.761   2.814 -0.2540 -0.5067  0.0177
15604TIP3    H168227   4.952   4.769   2.789 -0.3313 -0.3133  0.3502
15604TIP3    H268228   5.045   4.692   2.881 -0.6930  1.8562  2.5834
15605TIP3   OH268229   1.405   0.332   3.079 -0.1084  0.1454 -0.5867
15605TIP3    H168230   1.345   0.265   3.109 -0.7876  1.6514  1.5601
15605TIP3    H268231   1.485   0.317   3.129  0.6049 -0.5822 -1.9270
15606TIP3   OH268232   1.930   5.032   1.953 -0.0986  0.3821 -0.5921
15606TIP3    H168233   1.941   5.100   2.019 -2.5207  1.6815 -1.4851
15606TIP3    H268234   1.976   4.956   1.990 -0.3184  1.4522  1.9976
15607TIP3   OH268235   0.871   2.016  17.080 -0.3045  0.0246  0.0506
15607TIP3    H168236   0.808   1.978  17.142 -0.2001  0.6797  0.5607
15607TIP3    H268237   0.843   1.983  16.994 -0.6444 -0.6183  0.4078
15608TIP3   OH268238   1.238   0.404  14.595 -0.0877  0.0271 -0.4330
15608TIP3    H168239   1.194   0.469  14.539 -0.4068 -1.2211 -1.6493
15608TIP3    H268240   1.214   0.320  14.557  0.0270 -0.8336  1.3656
15609TIP3   OH268241   1.132   3.716  15.005  0.3050  0.6134 -0.2046
15609TIP3    H168242   1.174   3.634  15.031  0.8596  0.8836 -0.2378
15609TIP3    H268243   1.088   3.695  14.923  1.2457  0.5904 -0.7135
15610TIP3   OH268244   5.538   3.702   2.540 -0.0249 -0.2243  0.3637
15610TIP3    H168245   5.602   3.767   2.509  0.1495 -0.6308 -0.1316
15610TIP3    H268246   5.490   3.747   2.610  0.2762  0.3487  0.2033
15611TIP3   OH268247   5.540   1.257   2.879 -0.1885 -0.3232  0.0870
15611TIP3    H168248   5.609   1.212   2.829  1.9511  1.7097  1.0909
15611TIP3    H268249   5.541   1.214   2.964  2.1855  1.8024  1.2072
15612TIP3   OH268250   6.141   1.978   1.868  0.1434  0.4925  0.2121
15612TIP3    H168251   6.114   1.917   1.937  0.8450 -0.1637 -0.0841
15612TIP3    H268252   6.061   1.992   1.816 -0.3515  0.8850  1.0706
15613TIP3   OH268253   5.002   0.330   2.655  0.5424 -0.1878  0.6998
15613TIP3    H168254   4.947   0.358   2.728  0.9170 -0.2451  1.0045
15613TIP3    H268255   5.086   0.307   2.695  0.9339  0.3313  0.1845
15614TIP3   OH268256   4.526   5.546  14.536 -0.3165 -0.1757 -0.0845
15614TIP3    H168257   4.577   5.472  14.569 -0.0962 -0.3762 -0.8879
15614TIP3    H268258   4.473   5.510  14.465  0.2543  0.5610 -0.8940
15615TIP3   OH268259   6.690   4.573   4.537  0.4328 -0.5565  0.6982
15615TIP3    H168260   6.651   4.489   4.514  1.5210 -1.0118  0.4748
15615TIP3    H268261   6.678   4.580   4.632 -1.6485  0.0806  0.4183
15616TIP3   OH268262   4.123   4.679  15.534  0.2093 -0.4149 -0.3803
15616TIP3    H168263   4.123   4.775  15.530 -1.3615 -0.4471 -1.6665
15616TIP3    H268264   4.090   4.659  15.622  0.2999  0.2208 -0.1993
15617TIP3   OH268265   3.902   5.266   2.748 -0.1283 -0.0034  0.5223
15617TIP3    H168266   3.854   5.212   2.812 -1.0172 -0.8662 -0.8265
15617TIP3    H268267   3.923   5.346   2.795 -0.9514 -0.5348  1.8368
15618TIP3   OH268268   3.817   1.751   1.820 -0.4298 -0.2122 -0.1288
15618TIP3    H168269   3.877   1.721   1.888  1.5707  0.3176 -1.6251
15618TIP3    H268270   3.735   1.768   1.866  0.8426 -0.0003  2.1082
15619TIP3   OH268271   4.479   4.271  16.681  0.0282  0.0416 -0.3438
15619TIP3    H168272   4.463   4.220  16.602 -0.2849 -0.4075  0.0083
15619TIP3    H268273   4.465   4.209  16.753  1.0872  0.2328  0.0431
15620TIP3   OH268274   4.830   3.437   0.190 -0.4628  0.1420 -0.2688
15620TIP3    H168275   4.861   3.508   0.132 -1.0000 -0.4938 -1.3498
15620TIP3    H268276   4.737   3.455   0.201 -0.2425  0.5942  0.8914
15621TIP3   OH268277   2.605   2.911   4.639 -0.0196  0.5280  0.4103
15621TIP3    H168278   2.584   2.997   4.674 -1.6529 -0.0904  1.0039
15621TIP3    H268279   2.533   2.855   4.668 -1.2745 -0.1296 -3.5877
15622TIP3   OH268280   2.292   2.849  15.603 -0.2437  0.4996  0.2393
15622TIP3    H168281   2.381   2.848  15.568 -0.6145  0.8423 -0.7464
15622TIP3    H268282   2.291   2.779  15.668  0.2825 -0.6254 -0.9327
15623TIP3   OH268283   1.053   3.187  11.529  0.0640 -0.0560  0.9766
15623TIP3    H168284   1.011   3.104  11.507  1.7639 -0.2580 -1.7253
15623TIP3    H268285   0.984   3.252  11.521  0.1040 -0.4056 -3.1325
15624TIP3   OH268286   4.178   2.952   4.604 -0.3111  0.4017 -0.0702
15624TIP3    H168287   4.086   2.974   4.623 -0.9311 -1.2086 -1.1140
15624TIP3    H268288   4.184   2.951   4.509  0.7069  0.1365 -0.0122
15625TIP3   OH268289   4.405   5.035   1.792 -0.9133 -0.4718  0.2149
15625TIP3    H168290   4.332   5.096   1.780 -0.9553 -0.4788  0.4255
15625TIP3    H268291   4.423   5.001   1.704 -1.0891 -0.3846  0.1456
15626TIP3   OH268292   6.685   3.109   2.537 -0.6898 -0.1952  0.5238
15626TIP3    H168293   6.691   3.052   2.613 -0.6508 -0.1606  0.5461
15626TIP3    H268294   6.621   3.066   2.480  1.1331 -1.5361 -0.5683
15627TIP3   OH268295   0.175   2.804   5.800  0.2437  0.2078 -0.4984
15627TIP3    H168296   0.096   2.858   5.806 -0.1844 -0.3793 -0.8178
15627TIP3    H268297   0.220   2.817   5.884 -0.2233  0.4905 -0.2900
15628TIP3   OH268298   5.031   3.152  12.540  0.0668 -0.2732  0.4726
15628TIP3    H168299   4.985   3.209  12.602  0.9260 -0.3369  1.1866
15628TIP3    H268300   4.966   3.086  12.515 -0.1772 -0.4742  1.6036
15629TIP3   OH268301   6.454   3.645  17.163 -0.7738  0.0034 -0.1976
15629TIP3    H168302   6.419   3.608  17.082 -0.6089 -2.2562  0.7046
15629TIP3    H268303   6.503   3.722  17.136 -2.3666  0.3937 -2.0187
15630TIP3   OH268304   2.640   0.127  15.232 -0.1788  0.3259  0.1735
15630TIP3    H168305   2.684   0.083  15.159 -2.7127 -1.3690 -0.3742
15630TIP3    H268306   2.577   0.185  15.190 -1.2829 -0.2583  1.0082
15631TIP3   OH268307   0.471   1.726  14.635  0.6917 -0.4065 -0.3039
15631TIP3    H168308   0.395   1.767  14.594  0.4373 -0.5142  0.0488
15631TIP3    H268309   0.436   1.688  14.716  0.2524 -3.9909 -2.0862
15632TIP3   OH268310   5.304   1.330   2.776  0.0774 -0.0730  0.1722
15632TIP3    H168311   5.251   1.272   2.831  0.9246 -1.7958 -0.7891
15632TIP3    H268312   5.394   1.300   2.790  0.4431  0.4684 -0.9789
15633TIP3   OH268313   3.806   4.633  15.505 -0.2160 -0.2149 -0.0736
15633TIP3    H168314   3.893   4.601  15.528 -0.2815 -0.1581  0.2549
15633TIP3    H268315   3.764   4.651  15.589 -0.5339 -0.2153 -0.2316
15634TIP3   OH268316   6.342   0.252   1.711 -1.0618  0.0525 -0.7247
15634TIP3    H168317   6.292   0.269   1.790  0.1792 -0.6888  0.2345
15634TIP3    H268318   6.296   0.180   1.668 -2.0844  0.8626 -1.0171
15635TIP3   OH268319   1.711   3.112  16.525  0.8185  0.4321 -0.1105
15635TIP3    H168320   1.719   3.016  16.527 -1.1389  0.2128 -1.4819
15635TIP3    H268321   1.778   3.143  16.586  0.4394 -1.8708  1.5553
15636TIP3   OH268322   6.615   6.208   0.914 -0.0941  0.6501 -0.1954
15636TIP3    H168323   6.628   6.277   0.849  0.0543  1.0178  0.2301
15636TIP3    H268324   6.532   6.229   0.957 -1.4191 -0.8739 -1.8627
15637TIP3   OH268325   1.347   2.909   2.342 -0.1921 -0.1847 -0.2006
15637TIP3    H168326   1.323   2.819   2.366 -2.1191 -0.0574 -1.5237
15637TIP3    H268327   1.435   2.920   2.377 -0.6373 -1.9638  1.6351
15638TIP3   OH268328   4.828   5.770  16.290 -0.0202 -0.4676 -0.0198
15638TIP3    H168329   4.908   5.749  16.243 -0.6306  1.1176 -1.8399
15638TIP3    H268330   4.803   5.688  16.334  1.5503 -1.4702 -0.9744
15639TIP3   OH268331   6.397   3.795   3.212  0.6207  0.0534  0.0767
15639TIP3    H168332   6.382   3.886   3.237 -0.9843 -0.1290 -0.1585
15639TIP3    H268333   6.426   3.800   3.121  0.2670  0.3232 -0.0247
15640TIP3   OH268334   3.955   6.045   1.964 -0.1734  0.2988  0.8180
15640TIP3    H168335   4.032   6.063   2.017 -0.7407 -0.4322  1.9220
15640TIP3    H268336   3.952   5.949   1.958  0.0583  0.3839 -0.8101
15641TIP3   OH268337   4.315   5.172   1.398 -0.6502 -0.2193 -0.2249
15641TIP3    H168338   4.375   5.103   1.425 -1.4114 -0.7809  0.0720
15641TIP3    H268339   4.267   5.194   1.478 -0.5002  0.5707 -0.3460
15642TIP3   OH268340   1.282   2.401  17.090  0.1734 -0.5320  0.5925
15642TIP3    H168341   1.364   2.364  17.122  0.5258 -0.4934 -0.2364
15642TIP3    H268342   1.221   2.392  17.163  0.3281 -2.5035  0.5259
15643TIP3   OH268343   1.382   3.284  15.643 -0.8336 -0.4356 -0.0086
15643TIP3    H168344   1.352   3.240  15.563 -0.6359 -0.0531 -0.2937
15643TIP3    H268345   1.366   3.220  15.712 -0.3252 -1.0515 -0.4569
15644TIP3   OH268346   1.699   2.112   3.151  0.1345 -0.6428  0.7598
15644TIP3    H168347   1.727   2.128   3.242 -1.0820  4.6107  0.3199
15644TIP3    H268348   1.778   2.125   3.099 -0.1968  1.2494  0.6892
15645TIP3   OH268349   3.692   2.249   4.334 -0.2576 -0.1408  0.0351
15645TIP3    H168350   3.700   2.200   4.416  0.3839 -0.5984 -0.2945
15645TIP3    H268351   3.618   2.208   4.288  0.3080 -0.8436 -0.2615
15646TIP3   OH268352   3.959   1.779   1.064  0.5035 -0.5263  0.7527
15646TIP3    H168353   3.925   1.718   0.999 -0.0648  0.0579  0.4982
15646TIP3    H268354   4.019   1.726   1.117 -0.1845 -1.3653  0.7083
15647TIP3   OH268355   1.270   4.099   6.162 -0.0855  0.4496 -0.6833
15647TIP3    H168356   1.298   4.106   6.071 -2.7537 -0.8812 -1.6652
15647TIP3    H268357   1.327   4.031   6.199 -0.4421 -0.5939 -1.9904
15648TIP3   OH268358   5.556   4.438  12.711  0.5790  0.6343 -0.2824
15648TIP3    H168359   5.564   4.444  12.806  3.3973  1.7074 -0.5481
15648TIP3    H268360   5.494   4.367  12.697  0.7696 -0.1003  2.3430
15649TIP3   OH268361   2.207   0.603  16.446  0.3609  0.1505  0.6098
15649TIP3    H168362   2.213   0.697  16.460  1.4093  0.0646  0.7326
15649TIP3    H268363   2.266   0.565  16.511 -1.2751 -0.6789  1.6550
15650TIP3   OH268364   2.797   0.598   1.459  0.2359 -0.3660  0.2802
15650TIP3    H168365   2.753   0.548   1.389  0.7149  0.6367 -0.7557
15650TIP3    H268366   2.886   0.564   1.461  0.6127  0.5579 -0.5471
15651TIP3   OH268367   2.143   1.275  16.962  0.1667 -0.3232 -0.3895
15651TIP3    H168368   2.227   1.285  16.917 -0.6035  0.5202 -1.6728
15651TIP3    H268369   2.078   1.292  16.894 -1.0260  0.2513  0.8886
15652TIP3   OH268370   5.498   1.163   0.869 -0.1611  0.3134 -0.4417
15652TIP3    H168371   5.593   1.166   0.882 -0.1393 -2.5748  0.3015
15652TIP3    H268372   5.461   1.175   0.957 -0.4841  0.8381 -0.6434
15653TIP3   OH268373   0.816   6.158   5.730 -0.1663  0.5779 -0.3122
15653TIP3    H168374   0.900   6.152   5.775 -0.7391  1.7527  0.9605
15653TIP3    H268375   0.839   6.175   5.638  0.9784  1.6801  0.1646
15654TIP3   OH268376   0.374   3.119   0.350 -0.5221 -0.2945  0.3741
15654TIP3    H168377   0.304   3.165   0.396 -0.5120  1.4196 -1.2742
15654TIP3    H268378   0.331   3.044   0.309 -1.7102  1.4086 -1.6356
15655TIP3   OH268379   2.152   0.650   2.479 -0.1702  0.7284  0.3428
15655TIP3    H168380   2.107   0.641   2.563 -1.2817  1.6095 -0.1435
15655TIP3    H268381   2.133   0.568   2.433  0.6676  0.1327  1.0566
15656TIP3   OH268382   3.867   3.886  15.067  0.0716  0.4259 -0.2870
15656TIP3    H168383   3.789   3.854  15.113  0.7072 -0.8549 -0.0798
15656TIP3    H268384   3.933   3.894  15.136 -0.4225  3.5344 -0.0709
15657TIP3   OH268385   5.600   5.266   2.999  0.2159  0.2504  0.4821
15657TIP3    H168386   5.583   5.305   2.913  0.5849 -0.5435  0.0410
15657TIP3    H268387   5.517   5.226   3.024 -0.2501  1.5674  1.0735
15658TIP3   OH268388   0.565   4.252   0.377 -0.3228 -0.2416 -0.9490
15658TIP3    H168389   0.474   4.223   0.369  0.2373 -2.0743 -0.9922
15658TIP3    H268390   0.605   4.227   0.294 -0.4402  3.1644 -2.0855
15659TIP3   OH268391   1.443   5.617  13.089 -0.7145 -0.2169 -0.2258
15659TIP3    H168392   1.391   5.697  13.102 -2.2405 -1.2984  0.5619
15659TIP3    H268393   1.408   5.578  13.009  1.5379  1.0145 -1.8542
15660TIP3   OH268394   5.221   3.017  15.478  0.5492  0.1819  0.1584
15660TIP3    H168395   5.298   3.009  15.535 -0.4135 -0.1817  1.4330
15660TIP3    H268396   5.168   3.085  15.520  0.0266  0.2196 -0.5554
15661TIP3   OH268397   2.370   6.479  14.136  0.3545 -0.2134  0.2161
15661TIP3    H168398   2.391   6.417  14.067  2.4800 -0.1001  0.7202
15661TIP3    H268399   2.346   6.425  14.211  0.3230 -0.3906  0.0775
15662TIP3   OH268400   4.064   1.554  13.647 -0.3240 -0.1810 -0.5412
15662TIP3    H168401   4.064   1.462  13.620  1.2551 -1.7750  4.3599
15662TIP3    H268402   3.993   1.560  13.711  1.4387  1.2559  1.3442
15663TIP3   OH268403   4.488   3.902   6.247 -0.3625  0.5066  0.1004
15663TIP3    H168404   4.453   3.928   6.162  2.4083  0.5347 -1.0727
15663TIP3    H268405   4.548   3.973   6.271 -2.0948  1.1622  2.7426
15664TIP3   OH268406   4.539   5.733   4.558  0.0299 -0.1085  0.1454
15664TIP3    H168407   4.520   5.641   4.541 -1.4763 -0.0745  1.5514
15664TIP3    H268408   4.453   5.774   4.564  0.6941  1.7750 -2.4363
15665TIP3   OH268409   3.208   6.369  15.865 -0.6404 -0.1334  0.0337
15665TIP3    H168410   3.131   6.348  15.812 -1.0027  0.0687  0.4723
15665TIP3    H268411   3.176   6.370  15.955  0.0910 -1.0232  0.3094
15666TIP3   OH268412   3.432   6.526  16.545  0.4880 -0.8095  0.3938
15666TIP3    H168413   3.457   6.617  16.531 -0.8354 -0.1388  2.2263
15666TIP3    H268414   3.512   6.476  16.528  0.5426  0.4115 -3.2944
15667TIP3   OH268415   1.227   2.663  11.887  0.7458  0.3260  0.1773
15667TIP3    H168416   1.210   2.572  11.910 -2.0050  0.5725 -0.6820
15667TIP3    H268417   1.192   2.672  11.798  3.6581  1.4811 -0.9152
15668TIP3   OH268418   4.981   6.293   0.846 -0.2595 -0.2861  0.7994
15668TIP3    H168419   4.959   6.268   0.757  0.2940  1.5522  0.1094
15668TIP3    H268420   4.898   6.321   0.885 -0.5450 -1.3365  0.9472
15669TIP3   OH268421   2.430   1.423   6.402 -0.1316  0.2306  0.2834
15669TIP3    H168422   2.356   1.367   6.423 -0.8028  0.7442 -0.6623
15669TIP3    H268423   2.502   1.362   6.384  0.2648 -0.2234  3.2412
15670TIP3   OH268424   4.252   1.425  14.807 -0.0740  0.3753 -0.0951
15670TIP3    H168425   4.280   1.337  14.833 -1.0828  0.2225  0.5095
15670TIP3    H268426   4.194   1.453  14.878 -1.6849  0.5626 -1.4540
15671TIP3   OH268427   6.389   4.929  10.790 -0.0992 -0.0403 -0.5645
15671TIP3    H168428   6.479   4.914  10.760  0.1853 -0.8080  0.6344
15671TIP3    H268429   6.383   4.881  10.872 -1.5429  0.2043 -0.5152
15672TIP3   OH268430   2.265   3.068   2.397  0.0685  0.0243  0.0614
15672TIP3    H168431   2.335   3.023   2.444  0.4775 -0.4264 -0.9511
15672TIP3    H268432   2.246   3.145   2.450 -0.0165 -0.8738  1.3474
15673TIP3   OH268433   5.785   5.362  15.291 -0.2362 -0.0665 -0.0230
15673TIP3    H168434   5.742   5.411  15.361 -1.3160  1.4247 -1.6881
15673TIP3    H268435   5.851   5.422  15.256  0.0525 -0.6596 -0.5098
15674TIP3   OH268436   5.725   5.423   3.488 -0.1791  0.3408  0.1256
15674TIP3    H168437   5.776   5.438   3.408 -0.1911 -0.5550 -0.0460
15674TIP3    H268438   5.783   5.453   3.559  0.0250  0.6669 -0.1799
15675TIP3   OH268439   3.156   0.249  11.282 -0.6467 -0.1798 -0.1965
15675TIP3    H168440   3.119   0.335  11.300  0.8668  0.5468 -0.4484
15675TIP3    H268441   3.226   0.266  11.219 -0.1278 -1.5468  0.0010
15676TIP3   OH268442   1.179   1.355   4.866 -0.1110  0.0784  0.3327
15676TIP3    H168443   1.269   1.381   4.845 -0.1105 -0.2059 -0.0264
15676TIP3    H268444   1.127   1.391   4.794 -0.1406 -0.7172 -0.0382
15677TIP3   OH268445   0.902   0.654  15.387  0.3156 -0.4376  0.1429
15677TIP3    H168446   0.889   0.611  15.471  0.2707 -1.1595 -0.2226
15677TIP3    H268447   0.846   0.604  15.326  0.7558 -0.2644 -0.4114
15678TIP3   OH268448   0.573   4.503   0.123 -0.1882 -0.0767 -0.0621
15678TIP3    H168449   0.626   4.442   0.176 -0.2225  0.6975  0.8746
15678TIP3    H268450   0.494   4.454   0.103 -0.5883 -0.0707  1.4104
15679TIP3   OH268451   4.258   4.359   1.652  1.0151  0.0927  0.1968
15679TIP3    H168452   4.307   4.387   1.730 -1.4476  3.3593  0.6716
15679TIP3    H268453   4.306   4.398   1.579  0.8120  0.7974  0.4354
15680TIP3   OH268454   2.175   2.276   4.487  0.3581  0.5531 -0.8152
15680TIP3    H168455   2.113   2.230   4.430  0.5413  1.3386 -1.6563
15680TIP3    H268456   2.237   2.317   4.427  0.6551  1.2491 -0.0426
15681TIP3   OH268457   2.074   4.887  12.836  0.5105  0.2412  0.0908
15681TIP3    H168458   2.136   4.831  12.883 -0.3700  0.0616  1.0732
15681TIP3    H268459   1.989   4.866  12.875  0.0489  1.6313 -0.1308
15682TIP3   OH268460   5.062   3.843   3.643  0.5378 -0.1520 -0.4577
15682TIP3    H168461   5.040   3.759   3.601 -0.1787  0.6644 -1.7451
15682TIP3    H268462   5.095   3.897   3.571  0.8580  0.7185  0.3426
15683TIP3   OH268463   4.948   1.691  13.811  0.4115 -0.4284  0.4723
15683TIP3    H168464   5.007   1.666  13.883  0.2549 -0.6693  0.5171
15683TIP3    H268465   4.899   1.611  13.791  0.1716 -0.2549  0.3670
15684TIP3   OH268466   3.782   6.178  16.971  0.5697 -0.3681  0.1029
15684TIP3    H168467   3.797   6.229  17.051  1.1095 -0.1616 -0.1274
15684TIP3    H268468   3.753   6.092  17.002  0.0418 -0.0472  0.5031
15685TIP3   OH268469   5.102   3.193  11.303 -0.0330  0.0258  0.5144
15685TIP3    H168470   5.071   3.282  11.288 -1.4372 -0.7596 -1.5942
15685TIP3    H268471   5.027   3.148  11.342 -0.1947 -0.8161 -0.7176
15686TIP3   OH268472   3.071   2.494   4.985 -0.2653 -0.4400  0.0637
15686TIP3    H168473   3.085   2.584   5.014 -0.9480  0.0298 -1.0153
15686TIP3    H268474   2.984   2.495   4.944 -1.3052 -2.1227  2.1273
15687TIP3   OH268475   3.228   4.874   2.264 -0.4982 -0.3091 -0.1994
15687TIP3    H168476   3.315   4.861   2.304  0.2322  0.0716 -1.6258
15687TIP3    H268477   3.167   4.844   2.331  0.6928  0.3155  1.2171
15688TIP3   OH268478   1.638   1.930   1.302  0.1792 -0.1765  0.4976
15688TIP3    H168479   1.665   1.844   1.271  1.5034  0.9105 -1.4543
15688TIP3    H268480   1.676   1.938   1.390 -1.0588 -2.0729  1.2389
15689TIP3   OH268481   1.518   5.202   3.632  0.2714  0.2899 -0.2334
15689TIP3    H168482   1.522   5.109   3.607  0.4501 -0.4019  2.2741
15689TIP3    H268483   1.488   5.247   3.552 -0.7813 -2.0294 -1.1896
15690TIP3   OH268484   4.540   3.609  14.821  0.0451 -0.4978  0.5104
15690TIP3    H168485   4.513   3.520  14.798  0.0055 -0.4587  0.4066
15690TIP3    H268486   4.459   3.656  14.839  0.0307 -0.3259  0.0014
15691TIP3   OH268487   5.080   6.459   2.302 -0.6029 -0.1283 -0.5937
15691TIP3    H168488   5.158   6.430   2.351 -0.0095  0.1892 -1.3308
15691TIP3    H268489   5.018   6.487   2.369  0.4426  0.9045 -0.0410
15692TIP3   OH268490   0.225   3.222   5.558  0.2840 -0.0107 -0.1905
15692TIP3    H168491   0.236   3.138   5.514 -0.0359  0.1469 -0.5665
15692TIP3    H268492   0.209   3.198   5.650 -1.8872 -0.4322 -0.6627
15693TIP3   OH268493   3.772   4.928  17.048  0.0884  0.0728  0.3295
15693TIP3    H168494   3.699   4.988  17.034 -0.6194 -0.6969  0.6775
15693TIP3    H268495   3.847   4.985  17.062 -0.3865  0.8751 -0.2932
15694TIP3   OH268496   0.989   3.139  16.756  0.5276 -0.1444  0.4251
15694TIP3    H168497   1.010   3.144  16.850 -0.6672  1.6416  0.6228
15694TIP3    H268498   1.025   3.220  16.719  0.4275 -0.5417 -0.5562
15695TIP3   OH268499   1.447   5.754  16.461 -0.5294  0.1130  0.4178
15695TIP3    H168500   1.436   5.672  16.508  0.7540 -0.5780 -0.4666
15695TIP3    H268501   1.540   5.776  16.470 -0.5885  0.7855 -0.4511
15696TIP3   OH268502   5.912   3.657  14.132 -0.3883  0.0538  0.0636
15696TIP3    H168503   5.817   3.667  14.130 -0.4797 -0.9129 -1.1696
15696TIP3    H268504   5.926   3.566  14.159  0.2370  0.6670  1.9202
15697TIP3   OH268505   5.135   3.238  13.734  0.0321 -0.5728 -0.0785
15697TIP3    H168506   5.207   3.300  13.742  0.6976 -1.4684  0.9455
15697TIP3    H268507   5.075   3.260  13.805 -0.7112  0.1457 -0.9039
15698TIP3   OH268508   6.018   2.116   6.007 -0.1617 -0.3280  0.3542
15698TIP3    H168509   6.040   2.026   6.030  0.4273 -0.6623 -1.4493
15698TIP3    H268510   6.001   2.159   6.091 -1.1958 -2.2975  1.1698
15699TIP3   OH268511   5.878   5.447   0.651  0.2082 -0.6393 -0.0223
15699TIP3    H168512   5.920   5.368   0.620  1.7728  0.3434 -0.4629
15699TIP3    H268513   5.912   5.459   0.740 -0.1748 -0.5550  0.1174
15700TIP3   OH268514   4.209   1.030   1.316  0.2398 -0.1574 -0.6067
15700TIP3    H168515   4.285   0.974   1.303  1.1000  0.7713  0.2717
15700TIP3    H268516   4.188   1.065   1.229  1.0770 -0.0907 -0.7797
15701TIP3   OH268517   0.750   3.453   5.108 -0.2469 -0.2215 -0.9032
15701TIP3    H168518   0.723   3.515   5.040 -1.9878 -1.1510 -1.0657
15701TIP3    H268519   0.809   3.393   5.063  0.4456  0.5369 -1.0342
15702TIP3   OH268520   2.037   2.641   3.508  0.1095 -0.1782  0.9346
15702TIP3    H168521   2.059   2.733   3.496 -1.0800  0.0726  0.6604
15702TIP3    H268522   1.982   2.639   3.586 -2.0138 -0.3183 -0.5366
15703TIP3   OH268523   1.261   1.770   1.471 -0.1151  0.2921  0.2490
15703TIP3    H168524   1.227   1.681   1.477  1.9770 -0.5487  0.2629
15703TIP3    H268525   1.350   1.759   1.435 -0.4573  2.5168 -1.3695
15704TIP3   OH268526   4.715   4.675  11.341 -0.3933  0.6729 -0.3098
15704TIP3    H168527   4.732   4.641  11.253  0.4139 -0.6414  0.3373
15704TIP3    H268528   4.769   4.753  11.348 -2.7351  2.5311 -2.0463
15705TIP3   OH268529   1.392   4.811  14.526  0.4026  0.0888  0.2788
15705TIP3    H168530   1.369   4.831  14.617 -0.9784  0.3771 -0.1127
15705TIP3    H268531   1.434   4.890  14.494 -0.5365  0.5686  0.2105
15706TIP3   OH268532   5.711   0.959   6.645  0.2833 -0.4816  0.7099
15706TIP3    H168533   5.625   0.918   6.638  0.6353 -0.9485 -1.2040
15706TIP3    H268534   5.767   0.906   6.588  0.8251  2.3797 -1.5497
15707TIP3   OH268535   1.816   4.719  15.007  0.3391  0.1699 -0.3061
15707TIP3    H168536   1.816   4.659  14.932  0.6386 -1.4089  0.9424
15707TIP3    H268537   1.908   4.742  15.019  0.3102  0.2897 -0.3109
15708TIP3   OH268538   5.453   5.150   5.660 -0.3506 -0.5746 -0.0508
15708TIP3    H168539   5.484   5.120   5.575  0.2708  0.1878 -0.0886
15708TIP3    H268540   5.526   5.136   5.720 -0.8837 -1.3904  0.4355
15709TIP3   OH268541   0.916   4.508   0.382  0.5946 -0.0617 -0.3978
15709TIP3    H168542   0.883   4.503   0.293 -0.8284 -1.7612  0.2005
15709TIP3    H268543   0.942   4.418   0.403 -1.9166 -0.2943  1.9430
15710TIP3   OH268544   5.008   5.053   2.913  0.8334  0.0658  0.2234
15710TIP3    H168545   5.051   5.062   2.998 -1.0394 -1.8958  1.3913
15710TIP3    H268546   5.079   5.028   2.853  2.1070  1.1857  1.2285
15711TIP3   OH268547   4.149   3.766   0.968  0.0242  0.0199  0.7076
15711TIP3    H168548   4.105   3.804   1.044  0.3271  1.2703  0.2850
15711TIP3    H268549   4.115   3.816   0.894  2.7771  1.6488  0.4680
15712TIP3   OH268550   6.210   4.709   2.571 -0.1105  0.0261  0.3047
15712TIP3    H168551   6.299   4.674   2.570 -0.1829 -0.1621  0.3599
15712TIP3    H268552   6.216   4.792   2.524  0.0057 -0.1985 -0.0765
15713TIP3   OH268553   2.134   1.287  11.840 -0.5659 -0.5715 -0.1108
15713TIP3    H168554   2.228   1.301  11.831 -0.6761 -0.0336 -0.5084
15713TIP3    H268555   2.095   1.364  11.797 -1.1868 -1.3379 -0.9259
15714TIP3   OH268556   0.800   5.136   0.096 -0.1996 -0.7973 -0.2037
15714TIP3    H168557   0.737   5.194   0.053  0.2200 -1.4401 -1.6899
15714TIP3    H268558   0.861   5.196   0.140 -1.0775 -0.1531  0.1563
15715TIP3   OH268559   0.111   4.971  13.918  0.3443 -0.3740 -0.8396
15715TIP3    H168560   0.108   4.918  13.838  0.9292 -0.8781 -0.5318
15715TIP3    H268561   0.110   4.907  13.989 -0.8732  0.0878 -0.4155
15716TIP3   OH268562   2.046   1.259   4.822 -0.4442 -0.5369  0.3571
15716TIP3    H168563   2.081   1.234   4.908 -0.3842 -0.8555  0.2424
15716TIP3    H268564   1.967   1.206   4.813 -0.1547 -0.9133 -0.0186
15717TIP3   OH268565   1.117   5.632  15.983  0.0667 -0.2962 -0.4949
15717TIP3    H168566   1.159   5.603  15.902 -0.1436  0.9270 -1.0479
15717TIP3    H268567   1.063   5.706  15.957  2.5397  2.2536  1.2726
15718TIP3   OH268568   5.690   3.764  15.415 -0.0058 -0.2703 -0.2648
15718TIP3    H168569   5.677   3.697  15.349  0.7906 -0.4374 -0.2497
15718TIP3    H268570   5.716   3.842  15.365 -2.4680  0.4802 -0.4358
15719TIP3   OH268571   5.866   4.336   3.711 -0.4960 -0.0877  0.7894
15719TIP3    H168572   5.899   4.412   3.760  1.3239 -0.9354  0.9297
15719TIP3    H268573   5.938   4.312   3.652 -1.5923 -0.8294 -0.2708
15720TIP3   OH268574   3.913   1.051   3.691 -0.1363 -0.2348 -0.0173
15720TIP3    H168575   3.872   1.135   3.711 -0.7057 -0.2798 -0.9411
15720TIP3    H268576   4.007   1.071   3.688 -0.3441  0.6226 -1.3615
15721TIP3   OH268577   4.295   6.326  17.194 -0.1058  0.3859  0.3040
15721TIP3    H168578   4.222   6.287  17.242 -1.0093 -0.3028 -1.5478
15721TIP3    H268579   4.363   6.339  17.259 -2.0127  1.3962  2.1678
15722TIP3   OH268580   1.955   5.841   3.039 -0.3846 -1.1087  0.9340
15722TIP3    H168581   2.026   5.791   3.079  0.9011 -0.0384  0.0235
15722TIP3    H268582   1.941   5.915   3.099  0.6407 -0.2273  0.0939
15723TIP3   OH268583   0.070   5.101   5.841 -0.2646  0.2013  0.1105
15723TIP3    H168584   0.065   5.009   5.866  0.0859  0.4551  1.1385
15723TIP3    H268585   0.123   5.142   5.910  1.6552  0.7204 -1.5993
15724TIP3   OH268586   5.870   5.357  11.988  0.1456  0.0381 -0.4140
15724TIP3    H168587   5.930   5.402  11.929 -0.3849  0.3841 -0.6923
15724TIP3    H268588   5.811   5.309  11.930 -1.4372  1.7109 -0.2468
15725TIP3   OH268589   3.773   0.027  14.136  0.3826 -0.4076  0.0384
15725TIP3    H168590   3.694   0.082  14.137 -0.3739 -1.4542 -0.8202
15725TIP3    H268591   3.841   0.083  14.100 -0.1360  0.2960  0.1369
15726TIP3   OH268592   2.812   2.738  15.822 -0.1740  0.0072 -0.1434
15726TIP3    H168593   2.749   2.733  15.893  0.5468  0.7479  0.5533
15726TIP3    H268594   2.878   2.672  15.842 -0.3752 -0.3157 -0.5304
15727TIP3   OH268595   5.089   1.725   2.225 -0.2898  0.0913  0.1348
15727TIP3    H168596   5.173   1.739   2.181 -1.0200 -0.0584 -1.3185
15727TIP3    H268597   5.084   1.630   2.237  0.5507  0.2449  1.8452
15728TIP3   OH268598   3.605   3.326  14.950 -0.1025 -0.0481 -0.4673
15728TIP3    H168599   3.668   3.255  14.952  0.8304  0.7684 -0.2357
15728TIP3    H268600   3.520   3.284  14.965  0.7335 -0.7723  2.5025
15729TIP3   OH268601   5.800   5.161   4.479 -0.1759 -0.2752  0.3272
15729TIP3    H168602   5.765   5.074   4.500 -0.9732 -0.1405 -0.4167
15729TIP3    H268603   5.866   5.177   4.547 -0.1640 -1.3733  0.5919
15730TIP3   OH268604   2.728   0.723   0.602  0.5422 -0.1960 -0.3634
15730TIP3    H168605   2.748   0.796   0.544  1.8852 -1.0867 -1.0370
15730TIP3    H268606   2.637   0.700   0.580  0.1159  1.2212 -0.1644
15731TIP3   OH268607   5.060   3.165  11.636  0.7863 -0.5574 -0.4002
15731TIP3    H168608   5.022   3.238  11.587  0.3727  0.1619  0.9639
15731TIP3    H268609   5.010   3.088  11.607  0.4990 -0.1385 -1.0349
15732TIP3   OH268610   1.476   4.001   2.612 -0.0935 -0.6222  0.2407
15732TIP3    H168611   1.439   4.038   2.692 -1.9279 -0.3471 -0.6998
15732TIP3    H268612   1.464   4.070   2.546  2.2234 -0.4834 -0.0977
15733TIP3   OH268613   4.633   2.054  12.831  0.6027  0.1727  0.1465
15733TIP3    H168614   4.658   2.105  12.754 -0.1234 -0.4991 -0.5435
15733TIP3    H268615   4.540   2.072  12.843 -0.5386 -3.6379 -2.1961
15734TIP3   OH268616   1.221   6.170   3.202 -0.0627 -0.7300  0.1970
15734TIP3    H168617   1.282   6.229   3.158 -1.8183  2.6405  2.1262
15734TIP3    H268618   1.278   6.107   3.247  1.8567 -0.1136 -1.2901
15735TIP3   OH268619   0.301   5.332  16.578  0.4636  0.7572 -0.3576
15735TIP3    H168620   0.289   5.420  16.613 -0.0204  0.0528  1.2947
15735TIP3    H268621   0.217   5.311  16.536  0.0336  0.4978  0.6159
15736TIP3   OH268622   3.318   2.404  14.746 -0.3505 -0.5207 -0.4469
15736TIP3    H168623   3.363   2.463  14.684 -0.4941  1.1330  0.9679
15736TIP3    H268624   3.298   2.326  14.695 -1.6222  1.3231 -2.8530
15737TIP3   OH268625   4.838   6.565  13.676 -0.1347 -1.0068  0.0002
15737TIP3    H168626   4.784   6.596  13.603 -0.5714 -2.4454 -0.3011
15737TIP3    H268627   4.910   6.518  13.634 -0.2299 -1.5940  0.4833
15738TIP3   OH268628   1.550   3.885  16.023 -0.4582 -0.5787  0.4279
15738TIP3    H168629   1.620   3.872  16.087  0.0870 -0.7105 -0.1835
15738TIP3    H268630   1.469   3.871  16.072 -0.0652 -0.1038  1.2205
15739TIP3   OH268631   4.904   2.567   2.401  0.2807  0.3327 -0.3712
15739TIP3    H168632   4.845   2.498   2.430 -2.0686  2.0838 -0.8730
15739TIP3    H268633   4.940   2.534   2.318 -0.7034 -0.3484 -0.5384
15740TIP3   OH268634   0.184   4.570   1.101 -0.2474 -0.0999 -0.2186
15740TIP3    H168635   0.167   4.477   1.091  0.2981 -0.1831 -0.4028
15740TIP3    H268636   0.240   4.593   1.027  1.0438 -0.0035  0.7494
15741TIP3   OH268637   6.186   1.475  14.841 -0.1372 -0.3199  0.1615
15741TIP3    H168638   6.225   1.508  14.922 -1.1262 -0.7047  0.8081
15741TIP3    H268639   6.134   1.399  14.868 -1.9512  0.6224 -0.5279
15742TIP3   OH268640   0.647   4.652   5.444  0.0657  0.0064  0.3225
15742TIP3    H168641   0.708   4.726   5.449 -0.9490  0.8485  0.5473
15742TIP3    H268642   0.687   4.584   5.497  1.4608  0.0688 -0.6279
15743TIP3   OH268643   1.516   3.297   0.217  0.5147 -0.6634  0.5615
15743TIP3    H168644   1.504   3.314   0.123  0.4627 -2.2977  0.2614
15743TIP3    H268645   1.437   3.332   0.258  0.2672 -0.4811 -0.0626
15744TIP3   OH268646   5.367   6.506  13.055 -0.8585 -0.1793 -0.7512
15744TIP3    H168647   5.297   6.542  13.110 -0.5623  1.6275 -1.5281
15744TIP3    H268648   5.403   6.434  13.107 -1.4760  0.6330  0.8480
15745TIP3   OH268649   5.078   3.694   1.486 -0.5502  0.6349 -0.0959
15745TIP3    H168650   5.124   3.766   1.444  0.9165  0.6282  1.4665
15745TIP3    H268651   5.140   3.660   1.550 -0.9552 -2.4639 -1.2744
15746TIP3   OH268652   4.944   1.186   2.427 -0.7317  1.0519 -0.1421
15746TIP3    H168653   5.016   1.127   2.448 -1.3983  0.4915  0.6119
15746TIP3    H268654   4.968   1.224   2.343 -0.6199 -0.8434 -1.0000
15747TIP3   OH268655   0.939   5.576  12.685 -0.0604 -0.0628  0.0475
15747TIP3    H168656   0.962   5.662  12.721  1.0111 -0.3476  0.0515
15747TIP3    H268657   0.884   5.596  12.610  0.0205  0.6256  0.1685
15748TIP3   OH268658   6.156   6.176   2.197  0.0662 -0.1626 -0.1409
15748TIP3    H168659   6.113   6.126   2.127  1.7956  1.2322 -2.2786
15748TIP3    H268660   6.219   6.114   2.235  0.8909 -0.2033 -1.5355
15749TIP3   OH268661   1.241   3.148  14.318  0.1414  0.0215  0.3223
15749TIP3    H168662   1.284   3.070  14.351  0.4683 -0.9656 -2.2925
15749TIP3    H268663   1.160   3.155  14.369  1.3273 -0.5282  2.3259
15750TIP3   OH268664   6.347   0.610  11.807 -0.0807  0.4606  0.0937
15750TIP3    H168665   6.305   0.674  11.863  0.5076  1.5950 -0.7454
15750TIP3    H268666   6.284   0.594  11.737  0.1724  0.8580 -0.2261
15751TIP3   OH268667   1.448   0.487   4.640  0.2032  0.1443  0.9726
15751TIP3    H168668   1.480   0.577   4.636 -0.0264  0.1801 -0.2393
15751TIP3    H268669   1.375   0.484   4.578  0.7256 -1.0785  0.3902
15752TIP3   OH268670   1.950   0.927   6.068  0.0515  0.3748  0.4442
15752TIP3    H168671   1.988   0.866   6.005 -1.3853 -0.3081  0.1928
15752TIP3    H268672   2.016   0.995   6.079  0.2214  0.6786 -2.0307
15753TIP3   OH268673   1.809   3.567   0.935  0.3890 -0.4013 -0.2853
15753TIP3    H168674   1.822   3.554   0.842  0.8879 -2.3219  0.0447
15753TIP3    H268675   1.778   3.483   0.968 -0.3661  0.4208  1.1810
15754TIP3   OH268676   6.768   2.726  16.791  0.0903  0.3227 -0.3046
15754TIP3    H168677   6.864   2.726  16.786  0.0380  0.4837 -1.5895
15754TIP3    H268678   6.740   2.768  16.709 -1.0685  0.7557  0.3001
15755TIP3   OH268679   2.358   4.368  14.360 -0.6293 -0.1052 -0.1509
15755TIP3    H168680   2.353   4.275  14.381  1.1727 -0.2868 -0.4032
15755TIP3    H268681   2.326   4.374  14.270 -0.5942 -0.5046 -0.1909
15756TIP3   OH268682   4.610   3.067   3.407 -0.0032  0.5128 -0.3947
15756TIP3    H168683   4.626   3.033   3.495 -1.8705  0.2044 -0.1537
15756TIP3    H268684   4.582   3.158   3.422  2.7188  1.4788 -0.8896
15757TIP3   OH268685   3.961   4.032   0.092 -0.0346  0.7856  0.3133
15757TIP3    H168686   3.973   3.953   0.039 -0.5135 -0.2095  1.6693
15757TIP3    H268687   3.892   4.009   0.154 -0.5047  2.4323  0.4157
15758TIP3   OH268688   3.995   2.850  13.693  0.6856 -0.0378 -0.1830
15758TIP3    H168689   4.081   2.840  13.653  0.7799 -0.1107  0.0383
15758TIP3    H268690   3.974   2.943  13.681  0.4407 -0.1872 -0.9554
15759TIP3   OH268691   6.740   3.361   1.723 -0.0693 -0.4762  0.3201
15759TIP3    H168692   6.818   3.349   1.669  0.4959  1.1166  0.7766
15759TIP3    H268693   6.711   3.450   1.705  0.8250  0.5062  3.5340
15760TIP3   OH268694   5.964   1.529  12.252  0.3347 -0.6679 -0.2721
15760TIP3    H168695   6.040   1.535  12.194 -1.1506  3.2228 -1.9782
15760TIP3    H268696   5.990   1.576  12.331 -0.4056  1.1420 -1.0703
15761TIP3   OH268697   5.214   3.965  15.274  0.6759  0.0071  1.0025
15761TIP3    H168698   5.169   4.046  15.297  1.3837  0.2149  1.6858
15761TIP3    H268699   5.289   3.962  15.333  1.3406 -0.5252  0.1488
15762TIP3   OH268700   3.038   2.714  12.436  0.3770 -0.5302  0.3044
15762TIP3    H168701   3.129   2.687  12.426 -0.0222 -1.8050  0.0886
15762TIP3    H268702   2.988   2.653  12.381 -0.7931 -0.9844  1.8466
15763TIP3   OH268703   1.306   6.582   4.496 -0.1048  0.1544 -0.2433
15763TIP3    H168704   1.368   6.641   4.454 -1.4160  0.4551 -1.8185
15763TIP3    H268705   1.309   6.502   4.442  1.5274 -1.1948  1.7620
15764TIP3   OH268706   0.427   5.646   4.507  0.1749 -0.4077  0.5569
15764TIP3    H168707   0.370   5.576   4.539  1.3444 -0.5281  2.4479
15764TIP3    H268708   0.369   5.705   4.459 -1.1334 -1.7297  0.5029
15765TIP3   OH268709   5.713   1.436   5.339 -0.4966  0.1535 -0.0089
15765TIP3    H168710   5.697   1.439   5.433 -1.6013  1.7291 -0.2282
15765TIP3    H268711   5.777   1.506   5.323  0.1888 -0.5418 -0.3369
15766TIP3   OH268712   5.682   3.350   4.354  0.0541 -0.4867 -0.1966
15766TIP3    H168713   5.633   3.292   4.295  0.7349 -0.6005 -0.6496
15766TIP3    H268714   5.623   3.424   4.369 -0.4677 -0.8720 -0.3228
15767TIP3   OH268715   1.821   5.242  11.597 -0.0799  0.2667  0.1622
15767TIP3    H168716   1.818   5.148  11.617 -0.7020  0.5341  1.3635
15767TIP3    H268717   1.825   5.246  11.501 -1.0199 -0.9624  0.0616
15768TIP3   OH268718   3.590   1.800  12.989 -0.6514  0.0192  0.2371
15768TIP3    H168719   3.505   1.758  13.001 -1.3077  1.1512 -0.3661
15768TIP3    H268720   3.650   1.728  12.969 -1.7996 -0.6358 -0.9509
15769TIP3   OH268721   4.557   6.118  12.597  0.2602 -0.2466  0.2713
15769TIP3    H168722   4.571   6.116  12.692  0.2220 -1.5812  0.2606
15769TIP3    H268723   4.493   6.049  12.581 -1.1061  1.1712 -0.5202
15770TIP3   OH268724   3.314   2.099  11.694 -0.2184 -0.4859 -0.5681
15770TIP3    H168725   3.228   2.071  11.725 -0.1168 -1.1540 -0.9030
15770TIP3    H268726   3.295   2.166  11.629 -0.5741 -2.6736 -2.7710
15771TIP3   OH268727   2.422   1.533   1.233 -1.0111 -0.1241 -0.3169
15771TIP3    H168728   2.498   1.525   1.291 -1.5084  0.8286  0.4799
15771TIP3    H268729   2.434   1.618   1.190 -1.2653 -0.2910 -0.7230
15772TIP3   OH268730   6.635   2.890  13.233  0.3220  0.8368 -0.4141
15772TIP3    H168731   6.728   2.904  13.255  0.4906  0.4720 -0.9035
15772TIP3    H268732   6.636   2.847  13.148 -0.3072  1.0377 -0.5257
15773TIP3   OH268733   5.788   2.459  11.603 -0.4635  0.4417  0.0739
15773TIP3    H168734   5.717   2.398  11.585 -1.0414  1.2637 -0.4657
15773TIP3    H268735   5.759   2.542  11.565 -0.7729  1.7040  2.8969
15774TIP3   OH268736   3.384   3.686   2.763 -0.8259 -0.6471  0.3682
15774TIP3    H168737   3.451   3.677   2.831  0.4138  0.5293 -0.6572
15774TIP3    H268738   3.385   3.780   2.741  0.1529 -1.3081 -2.6197
15775TIP3   OH268739   1.462   4.661   1.446  0.2094  0.0414  0.9477
15775TIP3    H168740   1.488   4.720   1.517 -0.9146  2.7595 -0.8095
15775TIP3    H268741   1.467   4.715   1.367 -0.1858 -2.4416 -0.8415
15776TIP3   OH268742   1.154   5.931  10.438  0.4855 -0.0831 -0.9002
15776TIP3    H168743   1.224   5.911  10.500  0.6045  0.6291 -0.7953
15776TIP3    H268744   1.074   5.900  10.481  0.6867 -0.5025 -0.8304
15777TIP3   OH268745   0.482   6.122  11.074 -0.0919 -0.1636  0.2802
15777TIP3    H168746   0.555   6.083  11.122 -1.2858 -1.6603  0.8854
15777TIP3    H268747   0.457   6.055  11.010 -0.9558  0.3379  0.0893
15778TIP3   OH268748   3.136   5.236   1.797  0.2001 -0.5710 -0.3038
15778TIP3    H168749   3.205   5.260   1.859  0.2665 -2.1102  0.2455
15778TIP3    H268750   3.056   5.270   1.835  0.0360 -2.7457  1.3978
15779TIP3   OH268751   4.909   5.833  13.622  0.0586 -0.0092 -0.1467
15779TIP3    H168752   4.912   5.890  13.545  1.4891 -0.9468 -0.8073
15779TIP3    H268753   4.941   5.887  13.694  1.7424 -0.0643 -0.8328
15780TIP3   OH268754   3.311   6.195   3.365  0.2685 -0.0067  0.8590
15780TIP3    H168755   3.303   6.210   3.459 -2.6141 -0.3760  0.7140
15780TIP3    H268756   3.261   6.266   3.325 -0.3058 -1.0599 -0.3217
15781TIP3   OH268757   0.496   0.202  14.971 -0.0687  0.1157 -0.1797
15781TIP3    H168758   0.485   0.290  15.006  0.6663  0.8426 -1.7358
15781TIP3    H268759   0.588   0.181  14.985  0.2632  0.4680 -1.7696
15782TIP3   OH268760   5.552   4.336   2.721 -0.0018 -0.0927  0.4523
15782TIP3    H168761   5.585   4.247   2.738 -1.0524 -1.0050 -2.0169
15782TIP3    H268762   5.603   4.367   2.647 -0.4831  0.9037  0.5246
15783TIP3   OH268763   2.234   6.082   0.778  0.4789 -0.3029  0.0044
15783TIP3    H168764   2.299   6.100   0.846  1.4123 -0.1022 -0.9105
15783TIP3    H268765   2.225   6.165   0.731 -1.8319  0.1909  1.2497
15784TIP3   OH268766   0.335   5.879   5.795  0.1696  0.2366 -0.6559
15784TIP3    H168767   0.263   5.941   5.790 -1.0905 -1.2294 -0.8697
15784TIP3    H268768   0.348   5.863   5.888 -1.1225 -1.0145 -0.6716
15785TIP3   OH268769   1.111   1.343  15.487  0.2278  0.3393 -0.9893
15785TIP3    H168770   1.152   1.305  15.564 -0.5817  0.3723 -0.5394
15785TIP3    H268771   1.167   1.418  15.464  1.8004 -1.0695 -1.8642
15786TIP3   OH268772   1.738   0.125  14.373  0.2038 -0.2390  0.0767
15786TIP3    H168773   1.789   0.099  14.449  0.0778 -2.4509 -0.5366
15786TIP3    H268774   1.653   0.151  14.408 -0.0749 -1.8747  0.6766
15787TIP3   OH268775   5.695   3.641   0.497  0.2146 -0.6279 -0.1009
15787TIP3    H168776   5.647   3.686   0.566 -1.8509  1.2363 -2.6598
15787TIP3    H268777   5.778   3.689   0.490  0.0889 -0.3215  0.5316
15788TIP3   OH268778   5.973   2.728  12.240 -0.1845  0.3486  0.1630
15788TIP3    H168779   5.920   2.792  12.288 -0.0418  0.0511  0.7185
15788TIP3    H268780   6.053   2.720  12.291 -0.8706 -1.4943  0.9913
15789TIP3   OH268781   2.190   0.803  12.639 -0.3117  0.0139  0.2447
15789TIP3    H168782   2.275   0.763  12.654 -0.2924 -0.3326 -0.7330
15789TIP3    H268783   2.154   0.817  12.726  0.5680 -0.2208  0.6488
15790TIP3   OH268784   0.278   3.492  12.910 -1.0176  0.3376  0.4182
15790TIP3    H168785   0.194   3.467  12.948 -2.0165  1.8134 -0.8080
15790TIP3    H268786   0.268   3.584  12.885  0.6566  0.2845 -0.5653
15791TIP3   OH268787   1.273   3.290   1.694  0.0812  0.4165  0.0397
15791TIP3    H168788   1.204   3.275   1.758 -0.0966  0.4242 -0.1478
15791TIP3    H268789   1.272   3.385   1.680  0.1910  0.4272  0.1072
15792TIP3   OH268790   5.675   5.606   5.212  0.1855 -0.0200  0.1238
15792TIP3    H168791   5.754   5.660   5.219 -0.2242  0.8332 -1.5139
15792TIP3    H268792   5.654   5.608   5.119 -1.0893 -1.2259  0.3851
15793TIP3   OH268793   2.298   1.497  16.150  0.2318 -0.3374  0.4801
15793TIP3    H168794   2.384   1.530  16.176  0.3591 -1.1315  1.0957
15793TIP3    H268795   2.249   1.575  16.126  0.6738  0.2691  1.4795
15794TIP3   OH268796   5.763   5.731   4.742  0.3114 -0.3219 -0.2624
15794TIP3    H168797   5.679   5.772   4.719  0.6983  0.2046 -0.7421
15794TIP3    H268798   5.751   5.639   4.718 -1.0479 -0.8264  2.0981
15795TIP3   OH268799   5.257   6.208  11.979 -0.0551 -0.3394 -0.0996
15795TIP3    H168800   5.278   6.280  11.920 -1.2479  0.0787 -0.0243
15795TIP3    H268801   5.276   6.242  12.066 -2.3489  0.5597  0.0957
15796TIP3   OH268802   2.879   2.027  12.599 -0.3429 -0.1107  0.3226
15796TIP3    H168803   2.885   2.035  12.503  0.0925  0.2954  0.3814
15796TIP3    H268804   2.962   1.987  12.625 -0.5714 -0.4653  0.5070
15797TIP3   OH268805   6.456   4.746  11.837 -0.0020 -0.0949 -0.0303
15797TIP3    H168806   6.370   4.757  11.798 -0.0884 -0.1434  0.1452
15797TIP3    H268807   6.515   4.736  11.763  0.0181  1.1096 -0.1891
15798TIP3   OH268808   0.552   0.343  13.675 -0.7001  0.2803 -0.2442
15798TIP3    H168809   0.624   0.404  13.664 -0.2251 -0.5811 -2.1924
15798TIP3    H268810   0.529   0.317  13.586 -2.2914 -0.7563  0.4420
15799TIP3   OH268811   6.266   5.327   0.809  0.0746  0.5487 -0.0101
15799TIP3    H168812   6.327   5.399   0.826  1.6902 -0.9154  0.5335
15799TIP3    H268813   6.316   5.248   0.829 -0.8716 -0.8625 -2.9995
15800TIP3   OH268814   6.366   5.617   0.376 -0.1991  0.6979 -0.3197
15800TIP3    H168815   6.413   5.698   0.396 -1.2148  1.2413 -0.0596
15800TIP3    H268816   6.273   5.641   0.385 -0.4697 -1.0701  2.0328
15801TIP3   OH268817   0.166   3.786  13.680  1.1783  0.2541  0.3402
15801TIP3    H168818   0.246   3.831  13.709  0.2123  0.7650  2.2478
15801TIP3    H268819   0.131   3.842  13.611  1.3696  1.1081  0.9291
15802TIP3   OH268820   0.194   5.330   3.076  0.5755 -0.5319  0.4318
15802TIP3    H168821   0.212   5.264   3.143  2.2648 -1.0810 -0.5376
15802TIP3    H268822   0.143   5.397   3.121  0.5956 -1.5080  1.9367
15803TIP3   OH268823   2.620   4.497   1.515  0.2362  0.0155 -0.6236
15803TIP3    H168824   2.538   4.460   1.547 -0.2556  0.8383 -0.9472
15803TIP3    H268825   2.602   4.524   1.425  1.3921 -1.5440 -1.3586
15804TIP3   OH268826   5.414   6.283   1.903  0.3130  0.3664 -0.1558
15804TIP3    H168827   5.437   6.375   1.915 -0.5736  0.6150 -0.3655
15804TIP3    H268828   5.417   6.270   1.808 -0.0646  0.3052 -0.1580
15805TIP3   OH268829   2.673   1.935  13.644  0.1215  0.0551 -0.0003
15805TIP3    H168830   2.700   1.999  13.710 -1.6810  1.7895 -0.8838
15805TIP3    H268831   2.705   1.971  13.562  1.5217 -1.6186 -0.2242
15806TIP3   OH268832   3.244   1.996   3.035 -0.7983 -0.2176  0.6403
15806TIP3    H168833   3.205   2.020   2.951  1.1751 -1.3683 -0.6514
15806TIP3    H268834   3.302   2.069   3.056  1.2933 -1.4244 -0.7341
15807TIP3   OH268835   3.279   4.455  15.110 -0.2507  0.3807  0.8913
15807TIP3    H168836   3.249   4.415  15.028  0.7448 -2.8598  2.0608
15807TIP3    H268837   3.366   4.490  15.090  0.5409 -1.5461  0.8623
15808TIP3   OH268838   6.086   2.337  15.267  0.2113  0.6844  0.7871
15808TIP3    H168839   6.051   2.319  15.180 -0.1243 -2.2571  1.4759
15808TIP3    H268840   6.021   2.301  15.327  2.6467 -1.6359  2.1461
15809TIP3   OH268841   2.063   2.852  15.822  0.5685  0.2360  0.1891
15809TIP3    H168842   2.071   2.944  15.850  2.0523 -0.4738  2.2513
15809TIP3    H268843   2.131   2.842  15.755  1.4826  0.2680  1.0888
15810TIP3   OH268844   3.282   2.582  12.407 -0.0656 -0.5993  0.0888
15810TIP3    H168845   3.286   2.508  12.467  0.0173 -0.3801  0.3575
15810TIP3    H268846   3.306   2.546  12.322 -0.4011 -0.9582  0.1437
15811TIP3   OH268847   3.762   0.660  12.760  0.6233  0.2564  0.5679
15811TIP3    H168848   3.718   0.740  12.733  0.8165  0.2992  0.3783
15811TIP3    H268849   3.745   0.653  12.854 -0.1002  0.0793  0.4298
15812TIP3   OH268850   0.048   5.589   4.215 -0.4122 -0.5988 -0.0634
15812TIP3    H168851  -0.040   5.552   4.224 -0.3290 -0.7824 -0.0092
15812TIP3    H268852   0.056   5.648   4.290 -0.4633 -0.6347 -0.0287
15813TIP3   OH268853   4.688   0.110   3.592  0.8383 -0.1449 -0.1125
15813TIP3    H168854   4.662   0.192   3.551 -1.1716  1.3824  3.9754
15813TIP3    H268855   4.622   0.047   3.563 -0.2105  0.7542  0.3163
15814TIP3   OH268856   1.404   6.573  11.829 -0.1356  0.1831 -0.1405
15814TIP3    H168857   1.309   6.569  11.840  0.0058 -0.9864  0.7320
15814TIP3    H268858   1.436   6.489  11.862  1.3923  1.3844  1.5243
15815TIP3   OH268859   6.335   5.681  11.689 -0.3782  0.0584 -0.0698
15815TIP3    H168860   6.404   5.736  11.651  0.0278 -0.9694 -0.8468
15815TIP3    H268861   6.296   5.636  11.614 -1.7536  0.4547  0.3901
15816TIP3   OH268862   5.282   2.177  17.087 -0.0736 -0.0885  0.5590
15816TIP3    H168863   5.285   2.135  17.173  1.1490 -2.0411 -0.3841
15816TIP3    H268864   5.190   2.202  17.075 -0.0597  1.2507  2.8719
15817TIP3   OH268865   2.299   2.003  12.158  0.2469  0.2018 -0.3019
15817TIP3    H168866   2.219   2.003  12.212  0.5177  1.8607  0.1219
15817TIP3    H268867   2.337   2.090  12.172  2.9278 -1.0715  0.6723
15818TIP3   OH268868   6.545   4.932  15.897  0.0449  0.1906  0.1423
15818TIP3    H168869   6.633   4.919  15.860 -0.1810 -1.3796  0.1389
15818TIP3    H268870   6.555   4.917  15.991 -0.6008 -2.0278 -0.1181
15819TIP3   OH268871   1.807   6.318   2.327  0.3355 -0.2534  0.5236
15819TIP3    H168872   1.818   6.413   2.333 -0.2304 -0.2856  2.1594
15819TIP3    H268873   1.888   6.287   2.287  0.5861  0.8957  0.1164
15820TIP3   OH268874   3.631   3.002   5.272 -0.1805 -0.6004 -0.4374
15820TIP3    H168875   3.586   2.958   5.200  0.0174 -0.8944 -0.3803
15820TIP3    H268876   3.560   3.026   5.332 -0.4156  0.2303 -1.0399
15821TIP3   OH268877   5.594   0.600  16.425 -0.1763 -0.3825  0.0831
15821TIP3    H168878   5.561   0.519  16.463 -1.0446 -1.3486 -2.6698
15821TIP3    H268879   5.519   0.638  16.379  0.4661  1.5167  0.5286
15822TIP3   OH268880   6.530   5.942   0.576 -0.2947  0.3817  0.3621
15822TIP3    H168881   6.562   5.980   0.494 -1.5045 -1.0380 -0.8031
15822TIP3    H268882   6.439   5.973   0.582 -0.8421 -1.1173  0.1238
15823TIP3   OH268883   3.062   3.748   1.469  0.6778 -0.3153  0.1243
15823TIP3    H168884   3.081   3.836   1.439 -2.9543  1.2784  2.1070
15823TIP3    H268885   3.018   3.706   1.396  3.1820 -0.8312 -1.1282
15824TIP3   OH268886   2.151   6.187  16.742  0.5838 -0.4212  0.1702
15824TIP3    H168887   2.060   6.168  16.721  0.1874  1.4825  0.1427
15824TIP3    H268888   2.196   6.180  16.657 -0.2089  2.4628 -0.5303
15825TIP3   OH268889   3.226   3.437  13.726  0.0556  0.1859  0.3785
15825TIP3    H168890   3.247   3.348  13.698  0.6040 -0.0194  1.4070
15825TIP3    H268891   3.206   3.429  13.820 -1.8180  0.8366  0.0634
15826TIP3   OH268892   3.762   1.944  12.564  0.2543 -0.0170  0.7086
15826TIP3    H168893   3.717   1.987  12.491  1.4212  0.6289  0.3369
15826TIP3    H268894   3.700   1.948  12.637 -0.5877  0.1221 -0.0103
15827TIP3   OH268895   4.865   6.228  10.750 -0.3886  0.1357 -0.2104
15827TIP3    H168896   4.890   6.158  10.690 -3.7396 -0.1245 -1.4139
15827TIP3    H268897   4.917   6.213  10.829  1.2798 -1.7713 -1.6277
15828TIP3   OH268898   5.280   2.509  12.753  0.0296  1.1153 -0.2336
15828TIP3    H168899   5.373   2.531  12.749  0.7442 -1.9520 -1.8354
15828TIP3    H268900   5.276   2.436  12.815 -1.5494  2.2951  1.0759
15829TIP3   OH268901   3.010   4.654  11.014  0.9715 -0.0906 -0.5814
15829TIP3    H168902   2.984   4.644  10.922 -0.5260 -0.4475 -0.1239
15829TIP3    H268903   3.042   4.567  11.039  2.2384  0.2310 -1.0063
15830TIP3   OH268904   6.191   2.910  17.065  0.2069 -0.3515 -0.2515
15830TIP3    H168905   6.147   2.831  17.033  1.2476 -0.5942 -1.1309
15830TIP3    H268906   6.175   2.975  16.996 -2.6482  0.9348  1.5524
15831TIP3   OH268907   0.988   3.482   1.652  0.2340  0.0207  0.1232
15831TIP3    H168908   1.070   3.510   1.611  0.7701  1.4527  2.0991
15831TIP3    H268909   0.929   3.556   1.640 -0.2203 -0.3248  0.2301
15832TIP3   OH268910   6.226   6.029  10.739 -0.0607 -0.1802 -0.0043
15832TIP3    H168911   6.308   6.030  10.788  0.2302 -1.1762 -0.4538
15832TIP3    H268912   6.164   5.986  10.798  0.1521 -0.8891 -0.2963
15833TIP3   OH268913   1.043   4.938  11.386  0.0241  0.2158  0.5542
15833TIP3    H168914   1.036   4.879  11.462  0.3672  0.2336  0.6017
15833TIP3    H268915   1.078   5.019  11.423  0.6430  0.0676  0.2992
15834TIP3   OH268916   2.626   5.659  12.768 -0.1883  0.1758 -0.1553
15834TIP3    H168917   2.675   5.714  12.829  0.1438 -0.0390 -0.2277
15834TIP3    H268918   2.618   5.575  12.812 -2.1015  0.7512  0.6510
15835TIP3   OH268919   1.262   1.631  14.308  0.1636 -0.1956 -0.0014
15835TIP3    H168920   1.198   1.596  14.369 -1.5643 -0.4098 -1.8965
15835TIP3    H268921   1.330   1.563  14.302  0.6849  0.1018  2.1245
15836TIP3   OH268922   6.023   1.659   4.888 -0.1667 -0.9201 -0.1696
15836TIP3    H168923   6.067   1.741   4.912  0.8991 -1.3072 -0.7515
15836TIP3    H268924   6.057   1.638   4.801 -1.4731 -1.2688 -0.6044
15837TIP3   OH268925   0.296   4.601  12.068 -0.4101 -0.1620 -0.5446
15837TIP3    H168926   0.296   4.576  11.975 -0.1996 -1.0160 -0.3181
15837TIP3    H268927   0.250   4.530  12.112  1.6329 -0.9939  0.3102
15838TIP3   OH268928   5.570   5.941   5.218  0.8979 -0.3250  0.1808
15838TIP3    H168929   5.592   5.879   5.288  0.2048 -0.2497  0.4649
15838TIP3    H268930   5.541   6.020   5.264 -1.0704 -0.8099 -0.1893
15839TIP3   OH268931   3.238   3.289  13.277  0.1893 -0.0910 -1.1961
15839TIP3    H168932   3.322   3.316  13.314 -0.3963  0.3348 -0.1401
15839TIP3    H268933   3.190   3.252  13.351 -0.8273  0.3504 -1.6217
15840TIP3   OH268934   2.804   3.708  14.507  0.1279 -0.3912 -0.1909
15840TIP3    H168935   2.857   3.768  14.560  0.3863 -1.6424  0.9712
15840TIP3    H268936   2.765   3.648  14.570 -1.2167 -0.6153 -1.2289
15841TIP3   OH268937   0.908   4.337  11.882 -0.0772  0.0356  0.3577
15841TIP3    H168938   0.882   4.260  11.932  0.0977 -1.6994 -2.0944
15841TIP3    H268939   0.833   4.396  11.888 -0.9411 -1.0921  0.8223
15842TIP3   OH268940   3.309   5.020   4.838  0.1611 -0.1490  0.1164
15842TIP3    H168941   3.375   4.959   4.805  1.3138  0.6228  0.9713
15842TIP3    H268942   3.226   4.984   4.807  0.8629 -1.8932  0.2027
15843TIP3   OH268943   2.500   6.642   4.884 -0.2740  0.1882 -0.3173
15843TIP3    H168944   2.551   6.634   4.964 -0.5737  0.1373 -0.1277
15843TIP3    H268945   2.535   6.720   4.840 -0.4630  0.5328  0.1292
15844TIP3   OH268946   4.132   2.410  14.211  0.6512 -0.0107  0.1565
15844TIP3    H168947   4.186   2.340  14.175 -1.0191 -0.7626 -0.9463
15844TIP3    H268948   4.092   2.451  14.134  1.4758  2.0594  0.7985
15845TIP3   OH268949   3.472   4.258   4.638  0.0821  0.0275 -0.5159
15845TIP3    H168950   3.380   4.246   4.658  0.1637  0.8356  0.4036
15845TIP3    H268951   3.516   4.187   4.685  0.2185  1.5804  1.7472
15846TIP3   OH268952   5.395   0.837   6.496 -0.1740  0.7128 -0.2249
15846TIP3    H168953   5.345   0.883   6.563 -0.6912  1.3235 -1.0118
15846TIP3    H268954   5.455   0.781   6.544 -2.0292 -0.4863  0.7600
15847TIP3   OH268955   6.418   5.220   1.041  0.7689  0.0684  0.2205
15847TIP3    H168956   6.428   5.165   0.964 -0.2219  1.8002 -1.1652
15847TIP3    H268957   6.486   5.286   1.032  1.1643 -0.1819  1.2539
15848TIP3   OH268958   4.101   1.375  12.539  0.0742  0.3811  0.4878
15848TIP3    H168959   4.042   1.316  12.492  0.4810  1.2077 -1.0938
15848TIP3    H268960   4.186   1.362  12.497  0.3417  1.4851  0.6802
15849TIP3   OH268961   6.764   0.485  16.037 -0.3741 -0.4193 -0.1911
15849TIP3    H168962   6.768   0.431  15.958  0.1269  0.1201 -0.5337
15849TIP3    H268963   6.772   0.575  16.006  0.8678 -0.2584  0.5588
15850TIP3   OH268964   5.234   6.713   3.518 -0.1428 -0.1949  0.2122
15850TIP3    H168965   5.208   6.649   3.451 -1.1971  1.1433 -0.6845
15850TIP3    H268966   5.171   6.701   3.588 -1.3401  0.9350 -0.6457
15851TIP3   OH268967   5.344   6.503   4.571  0.2679 -0.6646 -0.4628
15851TIP3    H168968   5.280   6.474   4.637  0.9009  0.2334  0.5673
15851TIP3    H268969   5.295   6.504   4.489 -1.5324  1.6641  0.5890
15852TIP3   OH268970   5.072   0.227  14.026  0.0137 -0.0807  0.0176
15852TIP3    H168971   4.994   0.215  14.080  0.8335 -2.8398  0.7004
15852TIP3    H268972   5.135   0.269  14.085 -0.0819 -0.3341  0.3056
15853TIP3   OH268973   4.142   0.416  13.562 -0.6431 -0.0165  0.5312
15853TIP3    H168974   4.227   0.417  13.519 -0.9000  0.5042  0.0336
15853TIP3    H268975   4.155   0.464  13.644 -0.1426 -1.0446  1.0738
15854TIP3   OH268976   2.617   3.315   4.461 -0.3170  0.4051 -0.6422
15854TIP3    H168977   2.602   3.221   4.449  0.4489  0.1598  0.2137
15854TIP3    H268978   2.544   3.358   4.416 -0.8626 -0.6096 -0.7298
15855TIP3   OH268979   4.289   0.413   5.413 -0.0666 -0.5872  0.8416
15855TIP3    H168980   4.261   0.395   5.323  0.7170 -0.1034  0.4982
15855TIP3    H268981   4.211   0.446   5.456  0.1975  1.7154 -0.3748
15856TIP3   OH268982   1.324   4.965  12.840  0.4575  0.1335  0.0562
15856TIP3    H168983   1.367   5.008  12.766 -0.5950  0.5372 -0.3359
15856TIP3    H268984   1.231   4.989  12.831  0.3515  0.3850  1.6437
15857TIP3   OH268985   5.184   4.848  11.724  0.0158  0.5595  0.1019
15857TIP3    H168986   5.108   4.790  11.732  0.7928 -0.2807  1.6278
15857TIP3    H268987   5.249   4.796  11.677  0.6641  0.2261  1.3512
15858TIP3   OH268988   5.595   2.757  12.641  0.2713  0.2274  0.3646
15858TIP3    H168989   5.552   2.836  12.608  2.8598  1.5326 -0.0292
15858TIP3    H268990   5.587   2.764  12.736  0.0667  0.7233  0.3153
15859TIP3   OH268991   1.599   2.640   5.877  0.0703 -0.2912  0.7864
15859TIP3    H168992   1.605   2.732   5.902  0.7727  0.1997 -1.0671
15859TIP3    H268993   1.690   2.610   5.871 -0.0392 -0.3121 -1.3071
15860TIP3   OH268994   0.510   5.772  10.106 -0.3577  0.2529  0.6301
15860TIP3    H168995   0.431   5.789  10.158 -1.2076 -0.0327 -0.5576
15860TIP3    H268996   0.525   5.853  10.057 -0.2550  0.1019  0.4093
15861TIP3   OH268997   0.199   4.463   0.679 -0.6918  0.0865  0.5340
15861TIP3    H168998   0.239   4.549   0.691  2.5903 -1.3881  0.7162
15861TIP3    H268999   0.189   4.429   0.768  0.0089 -0.5834  0.3564
15862TIP3   OH269000   6.236   2.541  16.734 -0.4508  0.0210 -0.3192
15862TIP3    H169001   6.278   2.485  16.669 -0.4151  0.3228 -0.5588
15862TIP3    H269002   6.304   2.556  16.800 -0.7277 -0.9277  0.1976
15863TIP3   OH269003   5.068   5.114   4.742 -0.2742  0.1175  0.0554
15863TIP3    H169004   5.020   5.112   4.659  0.4109  0.6212 -0.3580
15863TIP3    H269005   5.022   5.051   4.798 -1.0697  0.1764 -0.5219
15864TIP3   OH269006   6.673   3.642  14.128 -0.2297 -0.2492 -0.3213
15864TIP3    H169007   6.690   3.736  14.120 -2.0090  0.0857 -0.4218
15864TIP3    H269008   6.578   3.636  14.142 -0.0222 -1.9861  0.4817
15865TIP3   OH269009   5.834   0.058  12.218 -0.8754  0.3286  0.2838
15865TIP3    H169010   5.767   0.069  12.151 -0.1918 -0.2325 -0.4992
15865TIP3    H269011   5.803   0.110  12.292 -2.6082 -0.6271  0.2548
15866TIP3   OH269012   1.610   1.789  13.611  0.6584 -0.4992 -0.1398
15866TIP3    H169013   1.558   1.709  13.619  1.6066 -1.0009  1.5409
15866TIP3    H269014   1.651   1.783  13.525 -2.5213  0.2359 -1.7612
15867TIP3   OH269015   0.006   2.561   4.134  0.1614  0.1462  0.9011
15867TIP3    H169016  -0.075   2.593   4.173 -1.4273  0.1247 -2.2533
15867TIP3    H269017   0.048   2.638   4.097 -0.7685 -0.4886 -1.5608
15868TIP3   OH269018   3.367   0.788   2.159  0.1547 -0.2321 -0.4655
15868TIP3    H169019   3.443   0.816   2.107  1.8167  0.0971  2.0644
15868TIP3    H269020   3.327   0.870   2.189  1.5303 -0.4331  2.0163
15869TIP3   OH269021   5.174   2.501   4.282 -0.0332 -0.1861 -0.0824
15869TIP3    H169022   5.174   2.413   4.244 -2.0766 -0.0892 -0.3257
15869TIP3    H269023   5.133   2.556   4.215  2.0878  1.1538 -0.3345
15870TIP3   OH269024   1.013   6.061  12.478  0.0341 -0.0379 -0.4419
15870TIP3    H169025   1.072   5.996  12.516  0.5078  0.0253 -1.0614
15870TIP3    H269026   1.015   6.135  12.540  0.1927 -0.2520 -0.1918
15871TIP3   OH269027   6.260   1.201   2.973  0.4092 -0.0896 -0.2099
15871TIP3    H169028   6.224   1.167   2.891  1.8156 -0.7640 -0.5646
15871TIP3    H269029   6.191   1.259   3.007 -1.1403 -1.5832 -0.6933
15872TIP3   OH269030   1.489   6.367  11.080  0.3181 -0.0381 -0.3738
15872TIP3    H169031   1.485   6.289  11.024 -3.4736 -0.5783  0.4529
15872TIP3    H269032   1.580   6.375  11.105  1.3229 -2.3979 -2.9941
15873TIP3   OH269033   2.196   4.193  11.155  0.0517  0.2225 -0.0589
15873TIP3    H169034   2.251   4.122  11.189  1.7292  2.0071  1.0240
15873TIP3    H269035   2.236   4.216  11.071 -0.6811 -0.2937 -0.5596
15874TIP3   OH269036   1.900   1.486   4.414  0.0508  0.3920 -0.1911
15874TIP3    H169037   1.970   1.421   4.415 -0.3156 -0.0043 -0.1678
15874TIP3    H269038   1.887   1.506   4.322 -1.2074 -1.0631 -0.3546
15875TIP3   OH269039   0.529   6.113  16.849 -0.1655 -0.3011 -0.1150
15875TIP3    H169040   0.457   6.054  16.827  1.1404 -1.7791 -0.5148
15875TIP3    H269041   0.528   6.116  16.945  0.9709 -2.5949  0.0231
15876TIP3   OH269042   3.631   0.120   6.401  0.1398  0.4978  0.4683
15876TIP3    H169043   3.663   0.069   6.475 -0.8497  0.3024  0.7581
15876TIP3    H269044   3.625   0.058   6.329  1.4301  0.7582  0.1199
15877TIP3   OH269045   1.028   3.378  13.786 -0.6399  0.1484  0.1325
15877TIP3    H169046   1.105   3.423  13.750  0.0249 -0.1328  1.1706
15877TIP3    H269047   1.062   3.293  13.815 -1.9192 -1.1421 -1.9745
15878TIP3   OH269048   4.610   4.148   3.425  0.0319 -0.1112 -0.6116
15878TIP3    H169049   4.596   4.206   3.350 -1.7615  0.1029 -0.1232
15878TIP3    H269050   4.613   4.060   3.387  2.8133  0.2623 -1.3600
15879TIP3   OH269051   1.686   3.221  12.791  0.1310 -0.1547 -0.4065
15879TIP3    H169052   1.726   3.185  12.870  0.8386  1.1069 -0.1914
15879TIP3    H269053   1.744   3.291  12.764 -0.9208  0.4318 -1.1827
15880TIP3   OH269054   3.683   0.016  15.635  0.3410  0.5778  0.1078
15880TIP3    H169055   3.764  -0.020  15.600  0.2394  1.6662 -1.3103
15880TIP3    H269056   3.700   0.110  15.641  0.0702  0.5230  2.2798
15881TIP3   OH269057   6.602   1.387  12.730 -0.2407  0.0631  0.2735
15881TIP3    H169058   6.636   1.399  12.819 -1.3075  0.3711  0.6458
15881TIP3    H269059   6.562   1.300  12.731  0.8063 -0.4352 -0.2602
15882TIP3   OH269060   2.727   5.878  11.851 -0.2420 -0.2721 -0.4534
15882TIP3    H169061   2.657   5.889  11.915  0.0221  0.7340 -0.3264
15882TIP3    H269062   2.794   5.827  11.897 -0.2266  0.1021 -0.0569
15883TIP3   OH269063   0.039   2.563   2.389 -0.8607  0.2020  0.0563
15883TIP3    H169064   0.028   2.611   2.471 -0.4025 -0.2212  0.3705
15883TIP3    H269065   0.003   2.621   2.322  0.4888  1.3763  0.3122
15884TIP3   OH269066   0.582   3.115   5.145  0.5653 -0.3134  0.5888
15884TIP3    H169067   0.536   3.192   5.178 -2.1179 -2.1974  1.4018
15884TIP3    H269068   0.642   3.091   5.216 -0.7060 -0.6923  1.5424
15885TIP3   OH269069   1.508   0.993   3.267 -0.3610  0.6266  0.0233
15885TIP3    H169070   1.459   1.029   3.341 -2.7864  1.2386 -1.8070
15885TIP3    H269071   1.543   1.070   3.222  1.6141  0.2290  0.7889
15886TIP3   OH269072   0.022   6.024   0.817 -0.2542  0.2216  0.3366
15886TIP3    H169073  -0.053   6.082   0.831 -0.2502  0.3000  0.0347
15886TIP3    H269074  -0.013   5.936   0.832 -0.6319  0.1863 -0.7010
15887TIP3   OH269075   2.126   6.403  11.764 -0.1167 -0.7556  0.2466
15887TIP3    H169076   2.124   6.469  11.833  0.0558 -0.1472 -0.3219
15887TIP3    H269077   2.034   6.385  11.745 -0.1695  0.0764 -0.3050
15888TIP3   OH269078   4.015   5.820   4.444  0.4633 -0.7382  0.0061
15888TIP3    H169079   3.989   5.890   4.503 -2.0295 -0.4145 -1.4014
15888TIP3    H269080   4.063   5.863   4.374 -0.8987 -0.4528 -0.7577
15889TIP3   OH269081   4.239   2.467  13.166 -0.0415  0.1970 -0.3739
15889TIP3    H169082   4.273   2.445  13.079 -0.9905  1.9496 -1.2039
15889TIP3    H269083   4.315   2.500  13.214  0.1066  0.9737 -1.1406
15890TIP3   OH269084   1.416   6.409   2.036  0.7347 -0.2694  0.2086
15890TIP3    H169085   1.483   6.353   1.997  0.6808  0.6168 -1.2001
15890TIP3    H269086   1.455   6.496   2.038 -0.0470  0.0904  0.1747
15891TIP3   OH269087   4.317   1.583   3.950 -0.0268  0.0404 -0.0520
15891TIP3    H169088   4.366   1.533   3.884  1.0063  1.1214 -0.1341
15891TIP3    H269089   4.274   1.652   3.900 -2.3140 -1.3748 -0.0834
15892TIP3   OH269090   1.172   3.794   2.479 -0.2390 -0.8503 -0.1500
15892TIP3    H169091   1.131   3.708   2.483  2.1661 -1.9874  2.3942
15892TIP3    H269092   1.103   3.855   2.505 -0.8784 -2.5004  2.2493
15893TIP3   OH269093   4.370   2.135  12.867 -0.4780 -0.2909 -0.0846
15893TIP3    H169094   4.311   2.121  12.941 -1.8174  0.5657 -0.9630
15893TIP3    H269095   4.313   2.133  12.790  0.9612 -1.6032 -1.1435
15894TIP3   OH269096   0.704   1.821  13.632  0.6459 -0.9647  0.5889
15894TIP3    H169097   0.787   1.845  13.673  1.0032 -3.7963  1.6425
15894TIP3    H269098   0.725   1.744  13.579 -1.0839 -1.0149 -0.0640
15895TIP3   OH269099   6.301   5.679   0.025  0.5187  0.0459  0.2802
15895TIP3    H169100   6.390   5.704   0.000  0.3153 -0.6562 -1.2221
15895TIP3    H269101   6.313   5.613   0.094  1.1655 -0.0267  0.1006
15896TIP3   OH269102   5.313   3.152  13.456  0.3039 -0.6123 -0.5973
15896TIP3    H169103   5.300   3.230  13.403 -2.6146 -0.3338  0.4666
15896TIP3    H269104   5.249   3.089  13.422  0.0872 -1.2625  0.9900
15897TIP3   OH269105   2.342   4.141  11.906 -0.4097 -0.0234  0.3838
15897TIP3    H169106   2.284   4.170  11.977 -1.6599 -2.0872  0.2677
15897TIP3    H269107   2.289   4.148  11.827  0.1598 -0.0591 -0.0030
15898TIP3   OH269108   0.237   1.069   6.466 -0.6115 -0.1795 -0.2824
15898TIP3    H169109   0.185   1.139   6.427  1.4728  1.1022 -0.8199
15898TIP3    H269110   0.241   1.002   6.398 -0.3676  0.3332 -0.7830
15899TIP3   OH269111   6.549   6.660  14.152  0.0736  0.4422  0.3008
15899TIP3    H169112   6.462   6.624  14.135 -0.3360  0.4780  2.1917
15899TIP3    H269113   6.544   6.749  14.119 -0.4270  0.2572 -0.1383
15900TIP3   OH269114   3.118   6.428   0.111  0.3781  0.6181  0.4723
15900TIP3    H169115   3.163   6.435   0.027  0.8695 -0.3043  0.6480
15900TIP3    H269116   3.032   6.392   0.090  0.8577 -0.5448  0.4596
15901TIP3   OH269117   5.398   2.397   4.786 -0.2895  0.2659  0.2056
15901TIP3    H169118   5.345   2.378   4.864  0.2800 -0.5219  0.4092
15901TIP3    H269119   5.428   2.487   4.798  2.1341 -0.7551  2.2974
15902TIP3   OH269120   2.493   6.695   1.010  0.1920 -0.3665  0.3655
15902TIP3    H169121   2.567   6.635   1.009  0.3289 -0.1993 -2.5371
15902TIP3    H269122   2.420   6.642   1.044  1.1372 -1.1125  1.2668
15903TIP3   OH269123   4.104   5.271  12.862  0.3841 -0.1731 -0.6025
15903TIP3    H169124   4.068   5.318  12.786 -0.1611  0.0960 -0.1796
15903TIP3    H269125   4.135   5.339  12.921  0.5361 -0.3736 -0.4496
15904TIP3   OH269126   4.577   4.308  12.645  0.9429 -0.2718 -0.2711
15904TIP3    H169127   4.656   4.342  12.687  2.1451 -2.9991 -0.2159
15904TIP3    H269128   4.573   4.353  12.561  1.5275  1.2229  0.4856
15905TIP3   OH269129   2.951   6.303  10.729 -0.1942 -0.0074  0.2094
15905TIP3    H169130   2.886   6.373  10.723  0.9675  1.1126  0.4564
15905TIP3    H269131   2.902   6.223  10.712 -1.9680  0.6587  2.0795
15906TIP3   OH269132   1.758   6.016  13.547 -1.0492 -0.3455  0.0822
15906TIP3    H169133   1.675   6.065  13.546 -0.6821  0.2816 -1.8926
15906TIP3    H269134   1.798   6.035  13.462  1.9391  0.7249  1.6357
15907TIP3   OH269135   5.758   0.804   2.279 -0.4685 -0.0316  0.2593
15907TIP3    H169136   5.684   0.751   2.251 -2.3515  3.0518 -0.8866
15907TIP3    H269137   5.733   0.837   2.365  0.1614 -0.0447  0.4499
15908TIP3   OH269138   1.540   5.206  16.632 -0.6793  0.5215 -0.3297
15908TIP3    H169139   1.574   5.278  16.579  0.5261  0.8447  0.8321
15908TIP3    H269140   1.457   5.239  16.668  0.1207  1.5533  0.6218
15909TIP3   OH269141   1.741   1.513  14.338  0.2355  0.3921 -0.5528
15909TIP3    H169142   1.775   1.589  14.386  0.3958  0.6529 -1.0665
15909TIP3    H269143   1.724   1.447  14.405 -0.8137  1.2238  0.0078
15910TIP3   OH269144   5.644   5.101  14.510  0.0923 -0.0644 -0.2537
15910TIP3    H169145   5.720   5.057  14.548 -0.7172 -0.7998  0.5242
15910TIP3    H269146   5.574   5.035  14.512 -1.1867  1.2928  1.1039
15911TIP3   OH269147   4.095   4.203  15.645 -0.1149  0.3860  0.2042
15911TIP3    H169148   4.003   4.216  15.666 -0.7672 -0.2022 -2.1615
15911TIP3    H269149   4.097   4.192  15.550  2.7810  3.6968 -0.2429
15912TIP3   OH269150   1.019   2.037   2.580 -0.5081  0.2765  0.1130
15912TIP3    H169151   0.958   1.965   2.567 -0.7963  0.5267  0.0873
15912TIP3    H269152   0.972   2.115   2.550 -0.6761  0.6609  1.3487
15913TIP3   OH269153   4.474   6.677   3.861  0.0746  0.1283 -0.9097
15913TIP3    H169154   4.432   6.651   3.779  0.2700 -0.7177 -0.7458
15913TIP3    H269155   4.405   6.718   3.912 -0.4163 -0.7599 -0.8605
15914TIP3   OH269156   0.419   2.748  16.119 -0.2080 -0.5648 -0.0987
15914TIP3    H169157   0.494   2.740  16.060 -0.4508  1.5113 -0.7286
15914TIP3    H269158   0.427   2.674  16.179  1.5840 -1.1327 -1.0167
15915TIP3   OH269159   4.455   0.033   4.949 -0.0003  0.2103 -0.5495
15915TIP3    H169160   4.381   0.071   4.996 -1.5537 -1.2276 -1.7416
15915TIP3    H269161   4.472   0.094   4.877  0.0616  0.6123 -0.1949
15916TIP3   OH269162   0.120   6.354  11.142  0.2531  0.1111  0.2733
15916TIP3    H169163   0.116   6.448  11.161 -1.6065 -0.2954  2.1932
15916TIP3    H269164   0.056   6.341  11.072  0.5859  0.2900 -0.0651
15917TIP3   OH269165   1.776   1.145  15.784 -1.0692  0.4337 -0.6672
15917TIP3    H169166   1.758   1.190  15.867 -1.7703  1.3356 -1.3134
15917TIP3    H269167   1.691   1.110  15.757 -0.6034 -0.9533 -0.3665
15918TIP3   OH269168   1.358   3.541  11.575 -0.3715 -0.2942 -0.5808
15918TIP3    H169169   1.329   3.551  11.666  0.3647  0.3389 -0.4084
15918TIP3    H269170   1.278   3.523  11.526 -1.1283  1.9636 -0.2056
15919TIP3   OH269171   4.784   5.961  15.676 -0.6065 -0.3346  0.2345
15919TIP3    H169172   4.827   5.967  15.761 -1.4453  1.4602  0.5368
15919TIP3    H269173   4.693   5.941  15.695 -0.5099 -1.3754 -0.3148
15920TIP3   OH269174   2.231   5.334  16.887 -0.1282  0.6655 -0.0609
15920TIP3    H169175   2.200   5.380  16.809  0.8678  0.9234 -0.3111
15920TIP3    H269176   2.156   5.283  16.915 -0.0492 -0.6232 -2.0749
15921TIP3   OH269177   3.308   3.416   0.030  0.1483 -0.1373 -0.4008
15921TIP3    H169178   3.367   3.401   0.104 -0.5123  2.6330  0.7669
15921TIP3    H269179   3.351   3.485  -0.021 -1.1752  0.6099 -0.5229
15922TIP3   OH269180   1.374   2.966  12.503  0.4063 -0.2833  0.0705
15922TIP3    H169181   1.366   2.942  12.411 -1.6384 -1.0684  0.4049
15922TIP3    H269182   1.369   3.061  12.504  0.0042 -0.2943 -0.6004
15923TIP3   OH269183   3.050   3.165  11.508  0.5184  0.2811 -0.0383
15923TIP3    H169184   3.132   3.159  11.458 -0.1505 -2.2360 -0.9354
15923TIP3    H269185   3.078   3.176  11.599  1.9411 -2.5984 -0.0676
15924TIP3   OH269186   6.072   4.013   6.188 -0.0921  0.2582  0.3626
15924TIP3    H169187   6.086   4.107   6.201  0.7228  0.3320 -0.9505
15924TIP3    H269188   5.979   4.000   6.204 -1.2250  2.1033 -3.9668
15925TIP3   OH269189   6.370   4.391  15.820  0.0520  0.1444 -0.3869
15925TIP3    H169190   6.421   4.472  15.815  1.1784 -0.5649 -0.3441
15925TIP3    H269191   6.387   4.346  15.737  0.3637 -0.6154  0.0880
15926TIP3   OH269192   0.859   0.391  14.097 -0.4582 -0.3651 -0.0472
15926TIP3    H169193   0.765   0.406  14.091 -0.3902  1.5629  2.7516
15926TIP3    H269194   0.898   0.470  14.058  0.0141 -0.5553  0.0306
15927TIP3   OH269195   3.672   0.429  16.172 -0.3811 -0.0423  0.1825
15927TIP3    H169196   3.748   0.479  16.141 -1.9161  1.3236 -1.4223
15927TIP3    H269197   3.597   0.469  16.128 -1.8542 -2.5203  0.3651
15928TIP3   OH269198   2.932   0.904   4.294 -0.1231  0.0312 -0.0174
15928TIP3    H169199   2.908   0.898   4.386 -1.4381 -1.7554 -0.4627
15928TIP3    H269200   2.954   0.815   4.268  1.0199  0.6408 -1.2330
15929TIP3   OH269201   2.004   4.726   1.528 -0.3909  0.5417 -0.8527
15929TIP3    H169202   1.944   4.714   1.601 -0.6016  5.8936  0.0547
15929TIP3    H269203   1.948   4.748   1.454  0.1834  1.0956 -1.1279
15930TIP3   OH269204   3.858   6.394   1.595 -0.1290 -0.1086  0.0684
15930TIP3    H169205   3.855   6.336   1.519  0.0198  0.7689 -0.6138
15930TIP3    H269206   3.770   6.390   1.632 -0.0989 -0.8205  0.0730
15931TIP3   OH269207   2.403   2.506  11.121  0.0806  0.3709 -0.4055
15931TIP3    H169208   2.447   2.580  11.080 -2.0857  0.8726 -1.9363
15931TIP3    H269209   2.467   2.470  11.183  1.3372  3.1814 -0.0183
15932TIP3   OH269210   5.879   5.129   5.738 -0.4619 -0.0188 -0.6550
15932TIP3    H169211   5.841   5.144   5.651 -0.5409 -0.0303 -0.6231
15932TIP3    H269212   5.803   5.126   5.796 -0.2689  2.2014 -0.2634
15933TIP3   OH269213   6.340   3.264   2.380  0.3151  0.3720  0.0264
15933TIP3    H169214   6.300   3.177   2.383 -1.0321  0.9942  0.1812
15933TIP3    H269215   6.411   3.255   2.315  0.7568 -1.0681  0.6859
15934TIP3   OH269216   0.956   1.265  16.007  0.1003  0.0284 -1.0293
15934TIP3    H169217   1.043   1.303  15.992  0.1656 -0.1474 -1.0948
15934TIP3    H269218   0.901   1.303  15.939 -0.0368  0.6841 -0.5592
15935TIP3   OH269219   0.881   4.944  16.540 -0.0073  0.2730 -0.0893
15935TIP3    H169220   0.834   5.012  16.588 -0.0688  0.9144 -1.0484
15935TIP3    H269221   0.919   4.889  16.608  0.5493  1.6217  0.7032
15936TIP3   OH269222   3.939   5.788  13.756 -0.0062  0.2703 -0.3976
15936TIP3    H169223   3.958   5.851  13.826 -2.4159  2.0066 -1.2068
15936TIP3    H269224   4.008   5.802  13.692 -1.0147  2.8180 -0.9927
15937TIP3   OH269225   5.851   2.530  15.041  0.1775 -0.3150  0.1379
15937TIP3    H169226   5.909   2.454  15.026  0.0276 -0.3537 -0.2381
15937TIP3    H269227   5.810   2.512  15.125  2.5510  0.8742  1.6067
15938TIP3   OH269228   6.029   4.166  12.884  0.4579  0.6418  0.0622
15938TIP3    H169229   6.023   4.248  12.834  1.2834  1.6464  1.5493
15938TIP3    H269230   6.041   4.195  12.975  2.2394 -1.1488  0.4189
15939TIP3   OH269231   5.711   4.204  14.703 -0.0975 -0.8769 -0.3153
15939TIP3    H169232   5.644   4.196  14.771  0.1888 -0.9901 -0.0470
15939TIP3    H269233   5.784   4.152  14.735  1.5715  2.2476  1.2064
15940TIP3   OH269234   3.747   0.606  13.942 -0.1899  0.5241 -0.1710
15940TIP3    H169235   3.677   0.670  13.940  0.6075  1.3975 -0.5118
15940TIP3    H269236   3.723   0.546  14.012 -1.8286  0.1752 -0.9995
15941TIP3   OH269237   6.550   1.196  12.176  0.2995 -0.4052 -0.2444
15941TIP3    H169238   6.584   1.284  12.188  2.0125 -1.1058  0.1736
15941TIP3    H269239   6.497   1.180  12.254  2.2475 -0.7616  1.0336
15942TIP3   OH269240   4.076   2.035   4.093  0.0831 -0.0162  0.3490
15942TIP3    H169241   4.123   2.113   4.063  0.0953  0.7514  2.2692
15942TIP3    H269242   3.987   2.066   4.110 -0.3459 -0.8021 -0.4413
15943TIP3   OH269243   2.035   0.333  13.581 -0.5256  0.3121  0.2085
15943TIP3    H169244   2.085   0.252  13.573  0.3448  0.8884 -0.2558
15943TIP3    H269245   1.952   0.306  13.620  0.2495 -0.6100  1.2657
15944TIP3   OH269246   4.813   3.849  12.645 -0.7799 -0.1965  0.2897
15944TIP3    H169247   4.803   3.809  12.559 -0.3107 -0.9498  0.5882
15944TIP3    H269248   4.870   3.790  12.693  0.0472  0.9020  0.6798
15945TIP3   OH269249   1.634   3.109   1.718  0.4437 -0.0257 -0.5954
15945TIP3    H169250   1.647   3.159   1.638  3.2958 -1.9302 -1.3871
15945TIP3    H269251   1.711   3.127   1.771  0.3720 -1.7024  0.1101
15946TIP3   OH269252   3.994   5.038  12.686  0.5497 -0.5039  0.3470
15946TIP3    H169253   4.072   5.065  12.733  0.3206 -1.9144  1.5866
15946TIP3    H269254   3.927   5.102  12.711  1.0013  0.0176  0.2172
15947TIP3   OH269255   4.814   6.347  16.926  0.4824 -0.2061 -0.2567
15947TIP3    H169256   4.815   6.251  16.935  1.4859 -0.0812  1.1584
15947TIP3    H269257   4.765   6.378  17.001  1.0015  0.4305 -0.1771
15948TIP3   OH269258   6.005   3.178   0.764  0.5872  0.5267 -0.5117
15948TIP3    H169259   5.950   3.245   0.806  0.9249  0.2686  0.3369
15948TIP3    H269260   5.943   3.119   0.721  0.2723  1.1948 -0.9895
15949TIP3   OH269261   1.344   4.540   1.095 -0.0946 -0.6860  0.7263
15949TIP3    H169262   1.368   4.472   1.158 -0.8299 -0.5235  1.1882
15949TIP3    H269263   1.313   4.612   1.150 -0.5040 -0.4533  0.1778
15950TIP3   OH269264   1.201   0.454   5.521 -0.3329 -0.4492 -0.3646
15950TIP3    H169265   1.214   0.387   5.453 -0.4200 -0.2135 -0.6147
15950TIP3    H269266   1.270   0.519   5.503 -1.6173  0.6380 -1.4832
15951TIP3   OH269267   0.860   4.448   1.352  0.0563  0.4295  0.3639
15951TIP3    H169268   0.778   4.434   1.400  0.0847 -0.3054  0.2063
15951TIP3    H269269   0.873   4.543   1.354 -0.6531  0.5260  0.6339
15952TIP3   OH269270   5.727   4.041  13.671 -0.8346 -0.1553  0.0464
15952TIP3    H169271   5.740   3.977  13.740 -0.3139  1.3050  1.3331
15952TIP3    H269272   5.800   4.028  13.611 -0.4513 -0.4158  0.5679
15953TIP3   OH269273   5.033   3.310   1.522 -0.3418  0.1968  0.3848
15953TIP3    H169274   5.078   3.341   1.600 -0.5658  0.7425  0.3016
15953TIP3    H269275   5.097   3.320   1.451 -0.5881  0.9692  0.2670
15954TIP3   OH269276   3.510   4.515  12.056  0.0773  0.1220 -0.2521
15954TIP3    H169277   3.588   4.497  12.109 -0.0755  0.9626  0.2621
15954TIP3    H269278   3.504   4.440  11.997  1.4991  0.2308 -0.5628
15955TIP3   OH269279   2.854   1.920   3.049  0.0298 -0.0857 -0.0585
15955TIP3    H169280   2.931   1.920   3.105 -0.7597 -0.9262  1.0474
15955TIP3    H269281   2.821   2.010   3.052 -0.8613 -0.4667  2.0374
15956TIP3   OH269282   4.854   5.969   2.626  0.0461 -0.8756 -0.0023
15956TIP3    H169283   4.787   5.911   2.590  2.0971 -2.4623 -1.4188
15956TIP3    H269284   4.884   5.924   2.706 -0.4477 -0.2557  0.5373
15957TIP3   OH269285   6.055   3.077   1.370  0.1005  0.6874  0.4569
15957TIP3    H169286   6.039   2.990   1.405 -1.4008  0.8538  0.1882
15957TIP3    H269287   6.069   3.132   1.448 -1.1620  0.6415  0.7255
15958TIP3   OH269288   2.154   4.219   2.599 -0.5185  0.2540 -0.4791
15958TIP3    H169289   2.224   4.163   2.565 -1.1024  1.4338 -3.8262
15958TIP3    H269290   2.168   4.303   2.557 -1.1915  1.9362  2.4952
15959TIP3   OH269291   2.195   2.815   5.209 -0.1406 -0.6593 -0.4741
15959TIP3    H169292   2.176   2.800   5.301  1.6924  0.3753  0.1096
15959TIP3    H269293   2.222   2.729   5.176 -1.1371 -1.1057 -0.1491
15960TIP3   OH269294   4.314   1.348  11.612 -0.2120  0.6279  0.0537
15960TIP3    H169295   4.235   1.333  11.665 -0.6842 -0.3226 -0.8874
15960TIP3    H269296   4.370   1.273  11.633 -1.1855 -0.7867 -2.1604
15961TIP3   OH269297   1.163   5.010  14.941  1.0721 -0.4489 -0.4496
15961TIP3    H169298   1.108   4.967  14.875  0.6677  1.7576 -1.6153
15961TIP3    H269299   1.252   4.998  14.909  0.8455  1.1081 -1.7700
15962TIP3   OH269300   4.697   0.085  13.344 -0.4970  0.2740 -0.1487
15962TIP3    H169301   4.749   0.164  13.359 -0.6182  0.5396 -1.0770
15962TIP3    H269302   4.671   0.091  13.252  1.1582 -1.8420 -0.7862
15963TIP3   OH269303   6.166   2.379   5.397  0.2128  0.0126  0.2557
15963TIP3    H169304   6.251   2.390   5.439 -0.4765  1.1456  1.3804
15963TIP3    H269305   6.175   2.424   5.313  1.2408 -1.3228 -0.3756
15964TIP3   OH269306   1.904   2.211  16.021  0.0961 -0.4388  0.1096
15964TIP3    H169307   1.859   2.236  16.102  0.6889  0.5933  0.1242
15964TIP3    H269308   1.906   2.291  15.969 -0.3498 -1.1161 -0.9721
15965TIP3   OH269309   3.601   6.181   2.376  0.3371  0.6479 -0.2793
15965TIP3    H169310   3.610   6.120   2.450 -1.0358  0.9957  0.1925
15965TIP3    H269311   3.617   6.128   2.299  0.1421 -0.0933  0.1859
15966TIP3   OH269312   3.655   3.901  11.681 -0.1787  0.6164  0.4674
15966TIP3    H169313   3.560   3.893  11.692  0.1078  0.3770  2.9202
15966TIP3    H269314   3.673   3.993  11.699  0.0742  0.6329  0.1259
15967TIP3   OH269315   1.966   0.696   1.808 -0.2493  0.4577  0.2221
15967TIP3    H169316   1.946   0.644   1.885 -3.0362 -1.7872 -1.8789
15967TIP3    H269317   1.895   0.760   1.804 -0.3628  0.2854 -0.6794
15968TIP3   OH269318   4.897   1.298   2.683 -0.0088 -0.1129  0.0818
15968TIP3    H169319   4.921   1.260   2.598  0.8134 -1.6479  0.9754
15968TIP3    H269320   4.845   1.229   2.725  0.8801  0.0434  1.4487
15969TIP3   OH269321   6.318   3.135   2.733 -0.3458  0.4186 -0.1859
15969TIP3    H169322   6.262   3.186   2.792  0.6378 -0.1713  1.3178
15969TIP3    H269323   6.356   3.199   2.674 -2.8336  0.7950 -1.4555
15970TIP3   OH269324   2.914   3.229   4.443  0.1237  0.6848 -0.1447
15970TIP3    H169325   2.826   3.265   4.438 -0.5043 -0.9704 -1.4986
15970TIP3    H269326   2.908   3.160   4.510  0.2533  0.1916 -0.6404
15971TIP3   OH269327   3.957   1.207   5.198  0.1436  0.7783 -0.8487
15971TIP3    H169328   3.945   1.301   5.183  0.1639  0.7247 -1.2165
15971TIP3    H269329   3.950   1.196   5.292 -1.5922  0.9001 -0.9524
15972TIP3   OH269330   1.277   5.209   1.199 -0.2276 -0.2292 -0.2342
15972TIP3    H169331   1.241   5.287   1.242  0.8083  0.4157 -0.5179
15972TIP3    H269332   1.359   5.192   1.245 -0.7483 -1.5255  0.2210
15973TIP3   OH269333   1.469   3.876  15.677 -0.6562 -0.0300  1.0984
15973TIP3    H169334   1.446   3.824  15.754  1.0194 -0.3597  1.3944
15973TIP3    H269335   1.397   3.861  15.616 -0.9120 -1.5592  1.7497
15974TIP3   OH269336   3.720   3.495   0.548 -0.4625  0.1460  0.5553
15974TIP3    H169337   3.677   3.411   0.539  0.4495 -0.3462  0.6627
15974TIP3    H269338   3.813   3.473   0.556 -0.3233  1.1008  1.6099
15975TIP3   OH269339   3.710   1.793   0.264 -0.3014  0.0999 -0.3393
15975TIP3    H169340   3.638   1.845   0.301  0.2322 -0.2060  1.1625
15975TIP3    H269341   3.676   1.762   0.180 -1.5851  0.7268 -0.0677
15976TIP3   OH269342   0.129   1.344  14.164  0.2946  0.0936  0.0583
15976TIP3    H169343   0.075   1.394  14.226  0.3790  0.4296 -0.1363
15976TIP3    H269344   0.129   1.255  14.198  1.0565  0.4549  1.0401
15977TIP3   OH269345   0.499   5.225  13.186 -0.3786 -0.2988  0.1764
15977TIP3    H169346   0.547   5.305  13.164  0.4564 -0.6289  0.7789
15977TIP3    H269347   0.566   5.157  13.187 -1.3137 -1.2745 -1.7396
15978TIP3   OH269348   5.522   5.652   2.539 -0.2409 -0.2885  0.0634
15978TIP3    H169349   5.473   5.587   2.488  0.3881 -1.0616  0.4310
15978TIP3    H269350   5.584   5.689   2.478 -0.3379 -0.3107 -0.0490
15979TIP3   OH269351   6.207   4.693  11.753  0.2519  0.2117  0.0076
15979TIP3    H169352   6.130   4.720  11.802  1.3435  0.7680  1.4294
15979TIP3    H269353   6.193   4.600  11.734 -0.5484  0.2064  0.6355
15980TIP3   OH269354   3.341   5.448   1.048 -0.4314  0.2600  0.6323
15980TIP3    H169355   3.337   5.385   0.976  0.4806  0.8015  0.0902
15980TIP3    H269356   3.435   5.459   1.065 -0.6431 -0.0434  2.0696
15981TIP3   OH269357   3.528   1.055   3.544 -0.0287  0.2693 -0.0210
15981TIP3    H169358   3.539   1.132   3.601  0.3488  0.0597  0.1925
15981TIP3    H269359   3.511   1.092   3.457 -1.7310  0.5924  0.4325
15982TIP3   OH269360   6.623   5.584  13.263  0.1744 -0.2579  0.4855
15982TIP3    H169361   6.701   5.554  13.217  0.1937 -0.2380  0.5064
15982TIP3    H269362   6.592   5.658  13.210  0.8385  0.4864  1.1261
15983TIP3   OH269363   2.369   5.887   2.805  0.0047 -0.2429 -0.6935
15983TIP3    H169364   2.402   5.799   2.823 -1.9619 -0.9000 -0.1297
15983TIP3    H269365   2.277   5.874   2.782 -1.0304  1.8637  1.9162
15984TIP3   OH269366   2.649   3.839   2.534  1.0650 -0.4987  0.1040
15984TIP3    H169367   2.595   3.882   2.601  0.3956  0.2429 -0.8942
15984TIP3    H269368   2.692   3.911   2.488  0.7606 -0.9410 -0.8903
15985TIP3   OH269369   6.167   2.593   0.461 -0.5029  0.0024  0.2266
15985TIP3    H169370   6.230   2.660   0.434  0.6583 -1.8431 -1.8730
15985TIP3    H269371   6.084   2.622   0.423  0.2188 -0.2551 -1.6224
15986TIP3   OH269372   0.421   6.051  13.257  0.3396  0.0460  0.3677
15986TIP3    H169373   0.377   6.063  13.173  0.9139 -0.7310 -0.0549
15986TIP3    H269374   0.488   5.985  13.239  1.4800  1.0041  1.0722
15987TIP3   OH269375   6.655   2.957  16.873  0.4839  0.4902  0.1014
15987TIP3    H169376   6.719   2.889  16.854 -0.2182 -0.1423 -0.0657
15987TIP3    H269377   6.627   2.989  16.787 -1.3263 -1.0673  0.0689
15988TIP3   OH269378   2.970   2.171   5.618 -0.1706 -0.0090  0.1680
15988TIP3    H169379   2.996   2.263   5.622 -0.8086  0.0829  3.9504
15988TIP3    H269380   3.046   2.123   5.652 -0.1860 -0.8144 -0.9018
15989TIP3   OH269381   4.193   2.905   5.120 -0.1447 -0.1878 -0.4594
15989TIP3    H169382   4.243   2.855   5.056  1.9703  1.1369  0.0781
15989TIP3    H269383   4.146   2.970   5.068  1.9949  1.2442 -0.6956
15990TIP3   OH269384   2.582   4.339  14.148  0.6207  0.3083 -0.0885
15990TIP3    H169385   2.487   4.332  14.135  0.6686  0.4066 -0.5183
15990TIP3    H269386   2.619   4.321  14.061  1.0071 -0.0055  0.1423
15991TIP3   OH269387   1.511   5.312   2.440 -0.1977 -0.1750 -0.1304
15991TIP3    H169388   1.600   5.299   2.408 -0.7265 -0.4846 -1.4710
15991TIP3    H269389   1.461   5.339   2.363 -1.2373  0.1449  0.6453
15992TIP3   OH269390   2.116   4.178   4.951 -0.5946 -0.0479  0.1857
15992TIP3    H169391   2.113   4.250   5.013 -1.1130 -0.3106  0.4698
15992TIP3    H269392   2.047   4.119   4.980  0.2157 -0.9479  0.3055
15993TIP3   OH269393   0.828   0.302   2.677 -0.4136 -0.2043 -0.8455
15993TIP3    H169394   0.783   0.293   2.593 -2.2387  0.3509  0.0514
15993TIP3    H269395   0.758   0.299   2.742  1.0145 -0.9577  0.6840
15994TIP3   OH269396   2.981   4.728   5.918  0.3205  0.4024 -0.1133
15994TIP3    H169397   3.041   4.798   5.944 -0.2592 -0.4468  3.7174
15994TIP3    H269398   3.037   4.651   5.908  0.3811  0.4532 -0.1632
15995TIP3   OH269399   5.554   5.786  15.322 -0.1281  0.5188  0.3770
15995TIP3    H169400   5.606   5.792  15.401 -0.1030  0.5683  0.3557
15995TIP3    H269401   5.615   5.754  15.255 -0.3021 -0.1382  0.5292
15996TIP3   OH269402   5.598   2.162  12.144 -0.2065 -0.3180  0.5574
15996TIP3    H169403   5.520   2.109  12.159 -0.5922  0.3529  0.9403
15996TIP3    H269404   5.624   2.191  12.231  1.4693 -1.9227  0.6164
15997TIP3   OH269405   6.693   5.142  14.008 -0.1646 -0.5881 -0.1726
15997TIP3    H169406   6.753   5.072  13.985 -2.9184 -2.3198 -2.4689
15997TIP3    H269407   6.665   5.122  14.097  0.1020 -1.6448 -0.3249
15998TIP3   OH269408   3.246   5.533  11.825 -0.1409  0.8570  0.4099
15998TIP3    H169409   3.240   5.625  11.850  0.6844  0.7046  1.1745
15998TIP3    H269410   3.320   5.499  11.874 -0.0572 -0.0723 -0.3344
15999TIP3   OH269411   1.352   4.959   0.812 -0.1531 -0.3868  0.3092
15999TIP3    H169412   1.325   5.029   0.751 -0.6752  0.7370  1.8027
15999TIP3    H269413   1.291   4.888   0.795 -0.8264  0.2342  0.0792
16000TIP3   OH269414   4.605   4.943  16.375 -0.2624  0.2572 -0.0742
16000TIP3    H169415   4.675   4.900  16.327 -0.8062  2.0383 -2.5068
16000TIP3    H269416   4.553   4.870  16.411  0.2826 -1.1162 -1.9874
16001TIP3   OH269417   0.052   2.630   3.294 -0.6186  0.2423  0.4359
16001TIP3    H169418   0.014   2.701   3.242  2.2932  0.1503 -1.9035
16001TIP3    H269419  -0.017   2.607   3.357 -2.8871  2.7667 -1.0379
16002TIP3   OH269420   6.023   2.174  14.335  0.5774 -0.0988 -0.4459
16002TIP3    H169421   6.116   2.159  14.352  0.4872 -0.1815 -0.0105
16002TIP3    H269422   5.981   2.161  14.420  0.4568  2.3450 -0.1126
16003TIP3   OH269423   2.796   6.668   5.947  0.6560 -0.2515 -0.2982
16003TIP3    H169424   2.761   6.736   6.004 -2.2442 -1.1223 -0.9456
16003TIP3    H269425   2.853   6.714   5.886 -0.7203  1.5175 -0.2973
16004TIP3   OH269426   1.281   6.390   2.718 -0.4528  0.0877 -0.2953
16004TIP3    H169427   1.346   6.456   2.742  1.7965 -1.6906 -1.2987
16004TIP3    H269428   1.300   6.369   2.627 -1.8430 -1.1402 -0.3242
16005TIP3   OH269429   5.706   3.961   4.824 -0.0465 -0.4396 -0.1816
16005TIP3    H169430   5.644   4.022   4.784  0.8741 -1.0181 -2.6099
16005TIP3    H269431   5.656   3.918   4.893 -1.8937  0.2096 -1.0646
16006TIP3   OH269432   2.472   6.166  15.913 -0.2915  0.2268  0.4189
16006TIP3    H169433   2.497   6.207  15.830  2.8998 -0.3753  1.0300
16006TIP3    H269434   2.435   6.238  15.965  1.2334  1.4229 -0.1156
16007TIP3   OH269435   1.197   5.238  16.933 -0.1244  0.9124  0.2665
16007TIP3    H169436   1.252   5.290  16.992 -0.3401  1.9777 -0.4689
16007TIP3    H269437   1.216   5.272  16.846 -0.2102 -0.2987 -0.2345
16008TIP3   OH269438   4.941   1.185   4.104  0.2838  0.2606  0.6778
16008TIP3    H169439   4.914   1.106   4.057  3.9857 -1.3099  1.0284
16008TIP3    H269440   4.944   1.253   4.036  0.6986 -0.7954 -0.3893
16009TIP3   OH269441   5.609   3.131   6.356  0.1456 -0.5710  0.1061
16009TIP3    H169442   5.574   3.162   6.439  0.6469 -0.1629  0.1695
16009TIP3    H269443   5.609   3.036   6.364  1.1504 -0.5058  0.9768
16010TIP3   OH269444   3.841   5.600  17.148 -0.3853  0.2203 -0.0930
16010TIP3    H169445   3.821   5.651  17.070 -0.5854  2.7277  1.5516
16010TIP3    H269446   3.763   5.546  17.162 -0.0279 -0.8458 -2.0424
16011TIP3   OH269447   3.941   2.237  11.343 -0.0639 -1.1187 -0.1146
16011TIP3    H169448   3.848   2.239  11.319 -0.4220  0.0115  1.2508
16011TIP3    H269449   3.958   2.325  11.378  1.3354 -1.5600  0.3449
16012TIP3   OH269450   5.590   3.545  11.400  0.4992  0.1020 -0.4192
16012TIP3    H169451   5.635   3.533  11.317  2.9724  0.6650  0.8146
16012TIP3    H269452   5.504   3.581  11.376  0.1332 -2.2401 -2.8844
16013TIP3   OH269453   4.397   1.483   3.361  0.1216 -0.6613  0.0104
16013TIP3    H169454   4.396   1.548   3.291  0.2426 -1.0573 -0.3609
16013TIP3    H269455   4.478   1.502   3.410  0.6922 -1.1850 -0.7199
16014TIP3   OH269456   5.400   6.639  10.803 -0.5987  0.4179 -0.5304
16014TIP3    H169457   5.489   6.675  10.796 -1.3597  2.5749  0.3732
16014TIP3    H269458   5.344   6.706  10.763 -1.9027 -0.6171 -0.4870
16015TIP3   OH269459   0.777   0.581   3.733 -0.3491 -0.1131 -0.2830
16015TIP3    H169460   0.767   0.525   3.657 -1.1828 -0.3879  0.0232
16015TIP3    H269461   0.705   0.644   3.727  0.5276  0.8724 -0.5779
16016TIP3   OH269462   5.741   5.047   5.092 -0.2625 -0.7447  0.4424
16016TIP3    H169463   5.698   4.963   5.074 -0.8515 -0.1225 -1.1782
16016TIP3    H269464   5.793   5.031   5.171 -0.5697 -2.5557  0.3049
16017TIP3   OH269465   2.176   5.123   6.061  0.4924  0.4087 -0.1960
16017TIP3    H169466   2.248   5.070   6.027  1.2279  1.5062 -0.3776
16017TIP3    H269467   2.124   5.062   6.114  0.6993 -0.7452 -1.2980
16018TIP3   OH269468   0.376   6.333  11.292 -0.0210 -0.0238 -0.0959
16018TIP3    H169469   0.442   6.287  11.345 -0.2573 -0.1749  0.0654
16018TIP3    H269470   0.380   6.424  11.322 -0.3404 -0.1607  0.3669
16019TIP3   OH269471   4.944   2.409  12.469  0.0963  0.6099  0.6692
16019TIP3    H169472   4.990   2.330  12.443  0.4349  0.6408  1.1639
16019TIP3    H269473   4.862   2.407  12.419  0.6022  0.5290 -0.1714
16020TIP3   OH269474   5.537   3.590   4.399 -0.8341 -0.2037 -0.1173
16020TIP3    H169475   5.508   3.649   4.329  1.8573  0.1780 -0.9436
16020TIP3    H269476   5.562   3.647   4.471 -2.4249 -0.5587  0.7632
16021TIP3   OH269477   0.275   5.682   3.738  0.1667  0.4099 -0.2602
16021TIP3    H169478   0.293   5.593   3.768 -0.1428  1.0715  1.9828
16021TIP3    H269479   0.305   5.683   3.647 -0.7312 -2.2386 -0.6239
16022TIP3   OH269480   5.881   2.229   5.793 -0.5326 -0.1941  0.2624
16022TIP3    H169481   5.911   2.166   5.858 -0.3809  1.0493  1.4059
16022TIP3    H269482   5.865   2.309   5.842  0.0250  0.9000 -1.3026
16023TIP3   OH269483   2.032   1.173   0.212  0.1108 -0.0005  0.2396
16023TIP3    H169484   2.027   1.102   0.275  2.5196  0.1516  0.6586
16023TIP3    H269485   2.123   1.173   0.183 -0.2449  1.8453 -0.9982
16024TIP3   OH269486   3.949   0.437   5.547  0.5143 -0.0034  0.0027
16024TIP3    H169487   3.983   0.515   5.503 -0.9607  0.5294 -0.2029
16024TIP3    H269488   3.948   0.461   5.640 -1.2524  0.7291 -0.1986
16025TIP3   OH269489   3.166   5.274  11.620 -0.1624 -0.2471 -0.1914
16025TIP3    H169490   3.107   5.248  11.691 -0.1461 -0.3033 -0.1994
16025TIP3    H269491   3.186   5.193  11.574 -0.5977 -0.1362 -0.5824
16026TIP3   OH269492   4.573   5.342   6.030  0.0886 -0.4489  0.2119
16026TIP3    H169493   4.627   5.283   5.977  0.7622 -0.3059  0.7282
16026TIP3    H269494   4.529   5.284   6.093 -1.7342 -0.7818 -1.3287
16027TIP3   OH269495   6.015   2.551   2.532 -0.0112  1.2391 -0.2818
16027TIP3    H169496   5.966   2.632   2.546 -0.5713  1.1050 -1.3923
16027TIP3    H269497   6.085   2.575   2.472 -1.7236  0.3851 -2.7176
16028TIP3   OH269498   0.344   0.149   5.165  0.3955  0.3988 -0.5410
16028TIP3    H169499   0.356   0.240   5.141  0.2306  1.1695  2.0702
16028TIP3    H269500   0.432   0.119   5.188  0.2818  0.2333 -0.3196
16029TIP3   OH269501   1.862   5.276   0.662 -0.3440 -0.0495 -0.4715
16029TIP3    H169502   1.911   5.331   0.723  0.5589  0.7000 -1.8445
16029TIP3    H269503   1.770   5.291   0.684 -0.0085 -1.1904  1.8917
16030TIP3   OH269504   0.975   0.676   6.070  0.8276  0.4428  0.3963
16030TIP3    H169505   0.913   0.724   6.015  1.6147 -2.1611 -2.8885
16030TIP3    H269506   0.922   0.645   6.144 -0.8617  1.7017 -0.2525
16031TIP3   OH269507   3.547   0.352   5.354  0.0580 -0.5092  0.1054
16031TIP3    H169508   3.583   0.340   5.442  0.7007  1.0890  0.0705
16031TIP3    H269509   3.529   0.263   5.324 -1.5750 -1.0212  2.4097
16032TIP3   OH269510   3.587   1.022  13.353 -0.2781 -0.3050 -0.1676
16032TIP3    H169511   3.500   1.062  13.363 -1.0423 -2.1499  1.0512
16032TIP3    H269512   3.611   1.038  13.262 -1.3921  1.2336 -0.2028
16033TIP3   OH269513   5.912   5.669  13.498  0.6215 -0.0398  0.0985
16033TIP3    H169514   5.915   5.628  13.411  0.1332  1.2246 -0.5206
16033TIP3    H269515   6.002   5.665  13.530  0.8899 -0.0725 -0.6598
16034TIP3   OH269516   6.441   4.114  11.605  0.4681  0.0603  0.2591
16034TIP3    H169517   6.474   4.101  11.516 -0.5458 -0.4263 -0.0534
16034TIP3    H269518   6.505   4.172  11.646  0.9995  0.2006 -0.7481
16035TIP3   OH269519   1.840   6.394   4.553  0.7606  0.0978  0.0899
16035TIP3    H169520   1.906   6.396   4.621  0.9580  0.2139 -0.1031
16035TIP3    H269521   1.773   6.334   4.585  2.2174 -2.0823 -0.8800
16036TIP3   OH269522   0.633   2.749  14.665  0.2147 -0.4504  0.3824
16036TIP3    H169523   0.699   2.691  14.703 -0.4258 -1.7175 -0.4100
16036TIP3    H269524   0.552   2.699  14.668 -1.1925  1.8358  3.2033
16037TIP3   OH269525   2.954   3.970  16.038  0.1638 -0.3940  0.4217
16037TIP3    H169526   3.011   4.044  16.018  0.6468 -0.0367  2.9266
16037TIP3    H269527   3.012   3.904  16.076 -0.7406 -0.8626  1.0173
16038TIP3   OH269528   2.101   1.197  11.347 -0.5248  0.7029 -0.5198
16038TIP3    H169529   2.161   1.124  11.334 -0.8757  0.2805  0.2090
16038TIP3    H269530   2.065   1.215  11.260 -1.7797 -1.1525 -0.4054
16039TIP3   OH269531   5.059   4.865   0.378 -0.1154 -0.5138 -0.4346
16039TIP3    H169532   5.109   4.937   0.339 -0.9929  0.2554 -0.1657
16039TIP3    H269533   5.072   4.791   0.318 -1.8632  0.7846 -2.4963
16040TIP3   OH269534   6.347   6.278   5.076  0.4519  0.4021  0.1150
16040TIP3    H169535   6.418   6.225   5.041 -0.8688 -1.4612  0.2175
16040TIP3    H269536   6.350   6.263   5.171 -1.3217 -1.2974 -0.0645
16041TIP3   OH269537   6.199   1.203  13.015 -0.0354  0.7134 -0.2724
16041TIP3    H169538   6.273   1.263  13.009  1.0237 -0.7193 -2.0987
16041TIP3    H269539   6.236   1.124  13.056 -0.3482 -0.2978 -1.9125
16042TIP3   OH269540   1.517   6.169  10.873  0.8697  0.4946  0.1436
16042TIP3    H169541   1.605   6.144  10.902  0.8991  0.5107  0.0695
16042TIP3    H269542   1.513   6.141  10.782  1.3143  1.7679 -0.2900
16043TIP3   OH269543   0.875   5.881  10.751  0.1104  0.4630 -0.6115
16043TIP3    H169544   0.865   5.786  10.740  2.1241  0.3216 -1.5523
16043TIP3    H269545   0.799   5.918  10.706 -1.6702 -0.7424  1.3373
16044TIP3   OH269546   3.318   3.974   3.520  0.0522  0.2045  0.0040
16044TIP3    H169547   3.261   3.907   3.558 -1.5571  0.1964 -2.3362
16044TIP3    H269548   3.329   4.038   3.590 -4.8586  1.4324 -0.1663
16045TIP3   OH269549   6.347   1.441  12.324 -0.0387  0.4341 -0.0260
16045TIP3    H169550   6.355   1.501  12.249  0.4210 -0.6072 -0.8241
16045TIP3    H269551   6.363   1.497  12.400 -0.7619  1.5626 -0.6838
16046TIP3   OH269552   1.665   6.581   0.214 -0.3015  0.0507 -0.0180
16046TIP3    H169553   1.737   6.598   0.154 -0.9464 -0.2302 -0.8908
16046TIP3    H269554   1.705   6.580   0.301  0.7123  0.0612 -0.4797
16047TIP3   OH269555   3.194   3.977   3.293 -0.6100 -0.0757 -0.5641
16047TIP3    H169556   3.265   3.986   3.356 -1.3436  2.3720 -0.0295
16047TIP3    H269557   3.138   3.908   3.329  0.8995 -1.2599 -0.4440
16048TIP3   OH269558   0.272   2.798  15.414 -0.6064 -0.0897  0.5157
16048TIP3    H169559   0.188   2.758  15.434 -0.3853 -2.2277 -2.4862
16048TIP3    H269560   0.325   2.727  15.377  1.2499  2.0307 -1.0616
16049TIP3   OH269561   4.484   0.448  16.951  0.5086  0.7162  0.0964
16049TIP3    H169562   4.547   0.400  17.005  0.6226  1.5579  0.7162
16049TIP3    H269563   4.457   0.522  17.006 -0.5679  0.6922 -0.3960
16050TIP3   OH269564   3.620   0.965  14.139 -0.0453 -0.0250  0.7424
16050TIP3    H169565   3.682   1.032  14.111  1.4847 -1.8955 -0.5086
16050TIP3    H269566   3.538   1.012  14.151  0.4391  1.7283 -2.1659
16051TIP3   OH269567   4.288   4.363   5.844  0.0017 -0.4080 -0.2116
16051TIP3    H169568   4.316   4.363   5.935 -0.6540 -1.2319 -0.0028
16051TIP3    H269569   4.325   4.283   5.807  0.5529  0.0970 -0.7643
16052TIP3   OH269570   5.194   4.476  15.237  0.5052  0.3897  0.4890
16052TIP3    H169571   5.150   4.496  15.155  0.4084  1.1945  0.7283
16052TIP3    H269572   5.189   4.558  15.287  2.7257  0.6655  0.3047
16053TIP3   OH269573   1.247   4.140   4.406 -0.0350  0.5056 -0.2028
16053TIP3    H169574   1.249   4.194   4.327  0.1301  1.8085  0.6816
16053TIP3    H269575   1.317   4.077   4.393 -0.6406  0.0943 -1.5292
16054TIP3   OH269576   4.691   4.134  11.991  0.5646 -0.0368 -0.6758
16054TIP3    H169577   4.736   4.130  12.076  0.2031  0.6558 -0.4544
16054TIP3    H269578   4.715   4.220  11.955  0.5038 -0.2201 -1.1647
16055TIP3   OH269579   2.511   1.560   2.665 -0.1519  0.1358 -0.2252
16055TIP3    H169580   2.539   1.469   2.657  1.4501  0.6557 -0.7268
16055TIP3    H269581   2.420   1.555   2.693  0.8251 -1.6244  2.8447
16056TIP3   OH269582   2.262   4.306   3.072  0.3492  0.9692 -0.4057
16056TIP3    H169583   2.275   4.399   3.056 -0.9835  1.0516 -1.1351
16056TIP3    H269584   2.177   4.287   3.031 -0.8369  0.0946  2.3787
16057TIP3   OH269585   4.151   2.743   3.112  0.6418  0.3954 -0.1243
16057TIP3    H169586   4.131   2.783   3.027 -1.8728  1.8230  1.0528
16057TIP3    H269587   4.218   2.799   3.150  0.8100  0.5367 -0.6343
16058TIP3   OH269588   4.617   3.403  15.334  0.0314  0.3198 -0.5362
16058TIP3    H169589   4.532   3.447  15.328 -1.3492 -2.0516  0.9036
16058TIP3    H269590   4.665   3.434  15.257 -3.0346 -0.1456 -2.7589
16059TIP3   OH269591   3.582   0.293  10.936  0.1061 -0.5909  0.2255
16059TIP3    H169592   3.552   0.377  10.902 -1.3428 -1.4355 -0.6152
16059TIP3    H269593   3.677   0.298  10.931 -0.0256  0.2624 -1.6228
16060TIP3   OH269594   6.733   6.150   0.015 -0.1750 -0.2652  0.2634
16060TIP3    H169595   6.721   6.067  -0.032 -1.8184 -0.6987  1.4022
16060TIP3    H269596   6.645   6.176   0.040  0.3990  1.5005  0.5070
16061TIP3   OH269597   4.218   1.861   1.266  0.0268  0.9945  0.0477
16061TIP3    H169598   4.291   1.917   1.243  2.0299 -0.9881  1.3461
16061TIP3    H269599   4.236   1.778   1.221 -1.3489  0.4419  0.4793
16062TIP3   OH269600   4.750   5.147   0.033  0.2758  0.1005 -0.1292
16062TIP3    H169601   4.792   5.201   0.099  0.4207 -0.2486  0.0659
16062TIP3    H269602   4.696   5.208  -0.017  0.5584  0.4499 -0.0098
16063TIP3   OH269603   3.653   1.002   1.989 -0.4553 -0.5314 -0.2277
16063TIP3    H169604   3.712   0.955   2.049 -0.5972  0.8366  0.9992
16063TIP3    H269605   3.585   1.038   2.046 -1.2868 -0.2706 -1.3772
16064TIP3   OH269606   6.621   0.391   1.732 -0.3985 -0.3927  0.2412
16064TIP3    H169607   6.672   0.323   1.688  0.4826 -0.6568  1.6440
16064TIP3    H269608   6.530   0.363   1.722 -0.3774  0.4375 -2.8787
16065TIP3   OH269609   5.972   6.477  17.033  0.1835  0.1191  0.3514
16065TIP3    H169610   6.001   6.395  16.995  0.3464  0.0933  0.5357
16065TIP3    H269611   5.880   6.483  17.009 -0.1414 -0.7008  1.3772
16066TIP3   OH269612   1.939   1.718  12.231 -0.4889 -0.0237  0.0747
16066TIP3    H169613   1.883   1.640  12.229  0.2612 -0.5535 -2.7082
16066TIP3    H269614   2.025   1.687  12.203 -0.0653  1.7232 -0.6153
16067TIP3   OH269615   4.649   3.327   4.727 -0.3891 -0.2331 -0.2306
16067TIP3    H169616   4.573   3.358   4.679 -1.0992 -1.0409  0.3680
16067TIP3    H269617   4.718   3.391   4.706 -1.0270  0.1085 -1.3193
16068TIP3   OH269618   0.004   1.772   1.252 -0.7067  0.0896  0.0755
16068TIP3    H169619   0.033   1.761   1.162  1.3648 -1.0394  0.8378
16068TIP3    H269620  -0.089   1.748   1.251 -0.2071 -1.9090 -1.3939
16069TIP3   OH269621   1.076   1.237   2.756 -0.4902 -0.4737 -0.1755
16069TIP3    H169622   1.120   1.205   2.835  0.9929  0.4208 -0.6034
16069TIP3    H269623   1.076   1.163   2.696 -0.7488 -0.8684  0.3115
16070TIP3   OH269624   1.059   1.981   5.644 -0.6970  0.7235  0.5748
16070TIP3    H169625   0.993   1.969   5.712  0.2772  0.6161  1.5167
16070TIP3    H269626   1.122   1.911   5.659 -2.0966 -1.3047 -2.4267
16071TIP3   OH269627   4.940   0.315  12.670 -0.2419 -0.0677 -0.6849
16071TIP3    H169628   4.959   0.253  12.599  1.5992  0.4458 -0.6722
16071TIP3    H269629   4.936   0.400  12.627 -0.7629  0.0409 -0.4145
16072TIP3   OH269630   5.959   3.966  14.569  0.7078 -0.0162  0.1975
16072TIP3    H169631   5.917   3.960  14.655  0.6339  1.6223  0.2886
16072TIP3    H269632   5.954   3.877  14.534 -0.1208 -0.4955  1.4813
16073TIP3   OH269633   1.797   5.538  15.235  0.2225 -0.2225  0.2041
16073TIP3    H169634   1.892   5.539  15.236  0.2204  2.0353  0.0473
16073TIP3    H269635   1.774   5.498  15.151  1.0308 -0.0186 -0.1146
16074TIP3   OH269636   1.202   5.039   3.418 -0.2518  0.3412  0.3957
16074TIP3    H169637   1.221   5.023   3.511  0.0508  1.6060  0.5714
16074TIP3    H269638   1.233   5.129   3.403 -1.0059  0.4237 -0.7372
16075TIP3   OH269639   5.554   5.507  14.861  0.3330 -0.1998 -0.6817
16075TIP3    H169640   5.621   5.575  14.855  0.0351  0.0885 -0.7546
16075TIP3    H269641   5.603   5.425  14.867  0.6900  0.0062 -0.7951
16076TIP3   OH269642   6.227   1.446   5.029 -0.9953 -0.4117 -0.2012
16076TIP3    H169643   6.168   1.505   4.982 -0.3304 -0.5581 -1.2333
16076TIP3    H269644   6.267   1.392   4.961  0.0783 -0.5368  0.5061
16077TIP3   OH269645   1.383   4.105   4.776  0.3911  0.6424  0.2451
16077TIP3    H169646   1.359   4.196   4.759 -0.0942  0.7682  1.5515
16077TIP3    H269647   1.332   4.081   4.854  0.6365 -0.6926  0.0074
16078TIP3   OH269648   3.823   3.620  16.985  0.2477 -0.0263  0.3267
16078TIP3    H169649   3.745   3.666  17.016  0.7221  0.2206  1.2041
16078TIP3    H269650   3.791   3.537  16.951 -0.4426  0.2636  0.2602
16079TIP3   OH269651   3.294   2.250  11.035 -0.2507 -0.6854 -0.1006
16079TIP3    H169652   3.349   2.290  11.102 -1.6256  0.1673  0.5432
16079TIP3    H269653   3.324   2.159  11.030 -0.6653 -0.9679  2.2229
16080TIP3   OH269654   3.865   5.916   2.429 -0.5901  0.1631 -0.1335
16080TIP3    H169655   3.815   5.960   2.497 -1.3998  1.5694 -1.6091
16080TIP3    H269656   3.824   5.944   2.347  1.2953 -0.3098 -1.2695
16081TIP3   OH269657   6.229   5.539  15.982  0.3887 -0.1152 -0.1037
16081TIP3    H169658   6.190   5.582  15.905  0.4999 -2.9955 -1.8493
16081TIP3    H269659   6.170   5.465  15.999  1.4323 -0.6059  1.4064
16082TIP3   OH269660   1.490   3.042   6.602 -0.1205 -0.0852 -0.4064
16082TIP3    H169661   1.407   3.015   6.564 -0.4965 -0.6839  0.8020
16082TIP3    H269662   1.545   2.964   6.599  0.4088  0.3071 -1.1950
16083TIP3   OH269663   3.467   3.965   3.181  0.2496  0.7092 -0.3463
16083TIP3    H169664   3.553   3.961   3.223 -0.6292  2.0998  1.6595
16083TIP3    H269665   3.430   3.877   3.193  0.6369  0.6542  0.4632
16084TIP3   OH269666   3.726   1.041   1.720 -0.6609 -0.6883  0.6265
16084TIP3    H169667   3.635   1.038   1.692 -0.7010 -0.3037  0.7047
16084TIP3    H269668   3.721   1.044   1.816 -0.5168 -2.3544  0.7020
16085TIP3   OH269669   5.750   5.474   4.634 -0.0033  0.8594 -0.2658
16085TIP3    H169670   5.764   5.427   4.552  2.6614  0.1942  0.5215
16085TIP3    H269671   5.752   5.405   4.701  2.6785  1.9022  0.7870
16086TIP3   OH269672   1.262   1.762  13.369  0.3641  0.2097 -0.3102
16086TIP3    H169673   1.356   1.748  13.366  0.5013  0.9920  0.0526
16086TIP3    H269674   1.225   1.690  13.318  1.1210 -0.4254  0.0200
16087TIP3   OH269675   4.803   5.189   3.628 -0.2369 -0.5030  0.2112
16087TIP3    H169676   4.850   5.262   3.668 -0.2864 -1.2079  1.5930
16087TIP3    H269677   4.858   5.113   3.646 -1.3183 -1.1534  0.7988
16088TIP3   OH269678   5.089   1.420   3.938  0.1341  0.1043  0.1169
16088TIP3    H169679   5.087   1.439   4.032 -0.1448  1.2927 -0.1144
16088TIP3    H269680   5.182   1.426   3.915  0.3310 -1.3052  0.5275
16089TIP3   OH269681   1.098   0.433  15.819  0.4606 -0.6282  0.6283
16089TIP3    H169682   1.032   0.411  15.885 -1.1867  2.1130 -0.0212
16089TIP3    H269683   1.127   0.521  15.842 -1.1622  0.9796 -2.9973
16090TIP3   OH269684   1.144   6.786   5.116 -0.0284 -0.0212 -0.0432
16090TIP3    H169685   1.149   6.811   5.024  0.5392  1.6242  0.4169
16090TIP3    H269686   1.075   6.842   5.152  0.1951 -0.2043  0.6745
16091TIP3   OH269687   4.912   4.093  15.141 -0.4473  0.1503 -0.2108
16091TIP3    H169688   4.982   4.106  15.204  0.7280 -3.0183 -0.7493
16091TIP3    H269689   4.852   4.032  15.184  0.5745 -2.3576 -2.2188
16092TIP3   OH269690   5.383   3.866   4.769 -0.1655 -0.4044 -0.5285
16092TIP3    H169691   5.440   3.796   4.737  0.3760  0.2178 -0.9407
16092TIP3    H269692   5.379   3.928   4.696 -0.3535  0.1685 -0.0328
16093TIP3   OH269693   5.229   5.234   3.412  0.2352  0.0090 -0.2177
16093TIP3    H169694   5.311   5.273   3.382 -0.7770  3.5923  1.3965
16093TIP3    H269695   5.239   5.140   3.395  4.5039  0.4038 -0.3445
16094TIP3   OH269696   4.928   0.316   3.625 -0.0541 -0.1058 -0.1353
16094TIP3    H169697   4.876   0.276   3.695  0.1439 -0.5292 -0.2334
16094TIP3    H269698   4.938   0.247   3.560  0.1643  0.1463 -0.3684
16095TIP3   OH269699   2.516   2.709   0.366  0.2437  0.9865 -0.7655
16095TIP3    H169700   2.533   2.633   0.421  1.1886  0.8167 -1.2704
16095TIP3    H269701   2.498   2.781   0.427 -0.1421  0.4715 -0.2786
16096TIP3   OH269702   4.153   5.842  14.647 -0.0526 -0.0119  0.3994
16096TIP3    H169703   4.127   5.910  14.585  2.6649 -1.5142 -2.5052
16096TIP3    H269704   4.241   5.867  14.675 -0.5502 -0.3199  2.3254
16097TIP3   OH269705   0.621   0.256   4.322  0.0301 -0.2385  1.0768
16097TIP3    H169706   0.682   0.320   4.359  1.3397  2.1121 -4.6951
16097TIP3    H269707   0.661   0.171   4.340  1.7376  0.9167  2.9367
16098TIP3   OH269708   2.260   0.897   5.283  0.2176 -0.0329 -0.0997
16098TIP3    H169709   2.220   0.918   5.367  1.3702 -0.3844  0.5398
16098TIP3    H269710   2.281   0.804   5.288 -0.5605 -0.2785 -1.1370
16099TIP3   OH269711   2.400   0.595  14.177 -0.1669 -0.1271 -0.5036
16099TIP3    H169712   2.405   0.501  14.162  0.7204  0.0627 -1.5354
16099TIP3    H269713   2.384   0.632  14.090  0.3730  0.7183 -0.2554
16100TIP3   OH269714   2.500   6.000   4.342 -0.3065 -0.3821  0.0398
16100TIP3    H169715   2.589   6.035   4.344  0.1317 -1.4908  0.7379
16100TIP3    H269716   2.447   6.070   4.380  0.2232  0.3781 -0.5851
16101TIP3   OH269717   0.879   4.714  13.342  0.2738 -0.2310 -0.0677
16101TIP3    H169718   0.923   4.644  13.293 -0.4210 -0.2509 -0.6643
16101TIP3    H269719   0.848   4.672  13.422 -3.4704 -1.5506 -2.0943
16102TIP3   OH269720   1.563   2.461   1.456 -0.1147  0.0826 -0.3860
16102TIP3    H169721   1.655   2.440   1.470 -0.1741  0.0876  0.0095
16102TIP3    H269722   1.525   2.461   1.543 -0.3928  0.5394 -0.5067
16103TIP3   OH269723   3.404   5.660   4.260 -0.0390  0.0875  0.2875
16103TIP3    H169724   3.452   5.647   4.342 -0.7259 -0.4135  0.6173
16103TIP3    H269725   3.457   5.724   4.211  1.0376 -0.5707  0.5714
16104TIP3   OH269726   0.336   3.389  16.190 -0.3710  0.0843 -0.6557
16104TIP3    H169727   0.404   3.377  16.124 -0.4212  1.9559 -1.0741
16104TIP3    H269728   0.382   3.387  16.274  0.1448  0.8082 -0.9124
16105TIP3   OH269729   1.892   1.473   3.777  0.2478 -0.1865 -0.4449
16105TIP3    H169730   1.818   1.450   3.834  0.5007  1.2019  0.4624
16105TIP3    H269731   1.889   1.568   3.771  0.8338 -0.2508 -1.9603
16106TIP3   OH269732   1.280   0.851   5.464  0.5449  0.2062 -0.3958
16106TIP3    H169733   1.286   0.947   5.458 -0.8347  0.5132  2.2234
16106TIP3    H269734   1.217   0.836   5.535  0.4116 -2.6520 -1.0813
16107TIP3   OH269735   0.223   4.471   5.548  0.5210 -0.0580 -0.0416
16107TIP3    H169736   0.132   4.486   5.524  0.2599 -1.5866 -0.0470
16107TIP3    H269737   0.228   4.496   5.640 -0.1062 -0.7357  0.1806
16108TIP3   OH269738   4.475   4.895  11.709 -0.3451 -0.4691 -0.0520
16108TIP3    H169739   4.399   4.946  11.681  0.6644  0.3723 -1.3505
16108TIP3    H269740   4.480   4.823  11.646 -0.5499 -0.9994  0.5326
16109TIP3   OH269741   5.386   2.992   0.800 -0.6584 -0.7698 -0.3088
16109TIP3    H169742   5.385   3.011   0.706 -1.2570 -0.3638 -0.2244
16109TIP3    H269743   5.337   2.910   0.809  1.0551 -1.8353 -0.5610
16110TIP3   OH269744   5.146   0.702   1.596  0.1943  0.2306 -0.3418
16110TIP3    H169745   5.205   0.627   1.588  0.6618  0.5136  0.3633
16110TIP3    H269746   5.107   0.692   1.683 -0.9284 -0.0422 -0.8736
16111TIP3   OH269747   2.695   2.190   5.740  0.1270  0.1715  0.1410
16111TIP3    H169748   2.778   2.156   5.705  0.4885  1.2086 -0.0595
16111TIP3    H269749   2.718   2.225   5.826 -0.1070  0.4242  0.1021
16112TIP3   OH269750   2.398   0.230   5.259  0.0053  0.1978 -0.0504
16112TIP3    H169751   2.375   0.234   5.166 -1.4200  0.9166  0.3092
16112TIP3    H269752   2.392   0.138   5.281 -2.6773  0.3517  0.0248
16113TIP3   OH269753   0.345   4.661  12.800  0.8175  0.0452  0.1494
16113TIP3    H169754   0.269   4.695  12.848  2.4665  0.9969  2.1425
16113TIP3    H269755   0.325   4.568  12.788  0.5149 -0.3204  3.0949
16114TIP3   OH269756   2.482   2.178  16.362  0.1671  0.1013  0.1230
16114TIP3    H169757   2.571   2.209  16.381  0.5049  0.7579 -2.3455
16114TIP3    H269758   2.428   2.215  16.431  1.6153  0.7973  0.9034
16115TIP3   OH269759   1.154   1.361   5.420  0.0847  0.1093  0.3144
16115TIP3    H169760   1.223   1.373   5.485  0.3274 -1.1700  0.2924
16115TIP3    H269761   1.193   1.392   5.338 -0.7649  3.2772  1.0309
16116TIP3   OH269762   6.465   4.103  15.347 -0.6194 -0.6015  0.0388
16116TIP3    H169763   6.551   4.078  15.313 -1.1654 -0.7580 -1.2897
16116TIP3    H269764   6.438   4.029  15.400 -0.2535 -0.8849 -0.1669
16117TIP3   OH269765   4.743   1.623  16.933 -0.7033  0.0587  0.1132
16117TIP3    H169766   4.687   1.651  17.005  1.5827  2.9055  0.8922
16117TIP3    H269767   4.825   1.597  16.974 -0.3955 -1.2114 -1.2392
16118TIP3   OH269768   4.003   1.917  10.179  0.1266 -0.2161  0.8704
16118TIP3    H169769   4.043   1.840  10.140  0.0723 -0.8147  1.9727
16118TIP3    H269770   3.932   1.883  10.232 -1.5772  0.8028 -0.6970
16119TIP3   OH269771   4.517   3.909  10.920 -0.5855 -0.6749  0.2944
16119TIP3    H169772   4.518   3.894  10.825  0.0417  2.6827 -0.2824
16119TIP3    H269773   4.424   3.911  10.943 -0.7353 -2.3987 -0.0382
16120TIP3   OH269774   4.274   5.893  14.089  0.0421 -0.0111  0.6934
16120TIP3    H169775   4.369   5.881  14.083 -0.0608 -0.9065  0.8171
16120TIP3    H269776   4.248   5.840  14.165 -0.6491 -0.3324  0.2367
16121TIP3   OH269777   4.336   0.866   1.927  0.0874 -0.2382 -0.5642
16121TIP3    H169778   4.403   0.927   1.897 -1.2582  0.0376 -3.0988
16121TIP3    H269779   4.384   0.800   1.977  1.8867  1.4134 -0.0550
16122TIP3   OH269780   4.877   2.214   4.162 -0.0149 -0.0866 -0.2546
16122TIP3    H169781   4.815   2.280   4.129 -0.1017  1.1816  2.2864
16122TIP3    H269782   4.826   2.133   4.164 -0.8476  0.4182 -0.5538
16123TIP3   OH269783   5.477   3.343   1.867  0.0989 -0.8777  0.1668
16123TIP3    H169784   5.463   3.249   1.864 -0.6150 -0.8002  0.8535
16123TIP3    H269785   5.462   3.367   1.959 -1.3120  0.1330 -0.3065
16124TIP3   OH269786   5.413   0.287  14.028  1.1034 -0.2086  0.0776
16124TIP3    H169787   5.418   0.206  14.077  2.0005  0.9002  1.8373
16124TIP3    H269788   5.353   0.342  14.079 -0.7440 -0.2825 -1.9006
16125TIP3   OH269789   1.020   2.044  15.583  0.7083  0.1805 -0.0689
16125TIP3    H169790   1.058   2.118  15.535  0.0561  1.1355  0.8560
16125TIP3    H269791   0.968   2.085  15.652  0.5275 -1.1554  0.5999
16126TIP3   OH269792   0.862   0.907   0.055 -0.0785  0.3136 -0.1879
16126TIP3    H169793   0.796   0.951   0.003  1.7517  0.3598 -2.5704
16126TIP3    H269794   0.816   0.834   0.096 -1.6375  0.3968 -1.7331
16127TIP3   OH269795   0.713   2.603   0.365  0.5194 -0.1069 -0.9054
16127TIP3    H169796   0.690   2.670   0.301  1.7067 -0.0403 -1.2704
16127TIP3    H269797   0.680   2.522   0.327  2.5199 -0.2905 -2.3438
16128TIP3   OH269798   0.766   1.610   4.715  0.5265 -0.2671 -0.0496
16128TIP3    H169799   0.812   1.694   4.722  3.1091 -1.5491 -1.0632
16128TIP3    H269800   0.789   1.564   4.795 -1.3888  0.1675  0.7968
16129TIP3   OH269801   5.432   1.518  15.269  0.0996 -0.2169  0.2704
16129TIP3    H169802   5.442   1.582  15.198 -0.6245 -2.3749 -1.8702
16129TIP3    H269803   5.371   1.559  15.330  1.1571  1.9214 -0.0812
16130TIP3   OH269804   6.591   6.557  14.745 -0.7583  0.4912  0.1551
16130TIP3    H169805   6.649   6.482  14.729 -1.0144  0.2835  0.1790
16130TIP3    H269806   6.626   6.599  14.823 -0.2228  0.7842 -0.2398
16131TIP3   OH269807   1.430   3.567   0.279 -0.1944  0.2153 -0.2330
16131TIP3    H169808   1.502   3.610   0.325 -1.0982  2.8230 -1.1541
16131TIP3    H269809   1.445   3.587   0.187 -1.0194 -0.9148 -0.6257
16132TIP3   OH269810   2.096   0.312  13.032 -0.2173 -0.5330  0.4591
16132TIP3    H169811   2.166   0.369  13.064 -0.0355 -1.4616  1.7887
16132TIP3    H269812   2.059   0.274  13.112  0.2851 -2.9635 -0.4229
16133TIP3   OH269813   4.878   1.291   3.390 -0.0556 -0.1137 -0.6741
16133TIP3    H169814   4.939   1.224   3.420 -0.0297  1.6606  3.6288
16133TIP3    H269815   4.792   1.258   3.415  0.0991  2.1905  3.4670
16134TIP3   OH269816   3.055   1.906  11.186 -0.1860 -0.5902  0.0366
16134TIP3    H169817   3.130   1.912  11.126 -1.2555  1.6518 -1.1631
16134TIP3    H269818   3.089   1.936  11.270  0.0146  1.5171 -0.7722
16135TIP3   OH269819   2.988   5.308  15.748  0.6323  0.0379  0.0893
16135TIP3    H169820   2.916   5.366  15.773 -1.0278 -1.8282 -0.1795
16135TIP3    H269821   3.004   5.255  15.826  1.6818  0.4206  0.1302
16136TIP3   OH269822   4.174   5.656   3.300  0.4941  0.4010  0.8987
16136TIP3    H169823   4.156   5.575   3.346  1.4415 -0.2592  0.1350
16136TIP3    H269824   4.091   5.704   3.301 -0.0012 -0.4715  1.5518
16137TIP3   OH269825   1.151   2.531  13.125  0.6071 -0.2343 -0.5651
16137TIP3    H169826   1.214   2.587  13.079  0.3957 -0.1713 -0.7786
16137TIP3    H269827   1.170   2.544  13.218  1.1018 -0.4364 -0.6364
16138TIP3   OH269828   2.002   1.776  14.093 -0.1929  0.3608 -0.0787
16138TIP3    H169829   1.986   1.812  14.005 -0.9240 -1.2210 -0.6040
16138TIP3    H269830   2.049   1.695  14.077 -3.3184 -1.7145  0.7721
16139TIP3   OH269831   2.500   1.654  11.861 -0.5132 -0.1163  1.1989
16139TIP3    H169832   2.424   1.675  11.805  0.7302  0.1657 -0.4264
16139TIP3    H269833   2.502   1.725  11.925 -0.7950  0.6629  0.3628
16140TIP3   OH269834   5.998   6.115   5.672  0.3824 -0.5586 -0.1281
16140TIP3    H169835   5.968   6.121   5.581 -0.2888 -1.7759  0.0138
16140TIP3    H269836   5.935   6.167   5.722 -0.0670 -1.0502 -0.1750
16141TIP3   OH269837   4.484   6.215  16.172  0.4938 -0.2134 -0.5917
16141TIP3    H169838   4.412   6.170  16.128  0.0523  0.8107 -0.9410
16141TIP3    H269839   4.553   6.220  16.106  1.1045 -1.6577 -0.0928
16142TIP3   OH269840   5.780   0.285  16.665  0.2377 -0.4549  0.0092
16142TIP3    H169841   5.694   0.326  16.656  0.8010  1.1693  1.7722
16142TIP3    H269842   5.789   0.232  16.586 -1.6492  0.7032 -1.0335
16143TIP3   OH269843   0.994   0.480   1.690  0.3152 -0.2916 -0.1740
16143TIP3    H169844   1.080   0.522   1.690  0.7913 -1.2506 -1.0575
16143TIP3    H269845   0.998   0.418   1.618 -1.1469 -0.3005 -0.2531
16144TIP3   OH269846   3.572   0.951   4.344  0.2891 -0.2945  0.3541
16144TIP3    H169847   3.567   0.934   4.250  0.9022 -0.0662  0.2759
16144TIP3    H269848   3.636   1.023   4.352 -0.7269  0.5667  0.8339
16145TIP3   OH269849   5.662   4.482  13.645  0.2267  0.1060  0.6183
16145TIP3    H169850   5.746   4.451  13.612 -1.1703 -3.1181 -0.1005
16145TIP3    H269851   5.667   4.468  13.740  0.2740 -0.7597  0.4945
16146TIP3   OH269852   1.617   5.763  15.656 -0.3251  0.2857 -0.2430
16146TIP3    H169853   1.681   5.727  15.594 -0.5161  0.8968 -0.7859
16146TIP3    H269854   1.647   5.852  15.673 -0.2150  0.0911  0.6275
16147TIP3   OH269855   1.745   5.934   1.984 -0.3914 -0.0344 -0.3821
16147TIP3    H169856   1.759   5.946   2.078  1.0717 -1.1370 -0.4367
16147TIP3    H269857   1.652   5.950   1.971 -0.1087  2.7586  0.8340
16148TIP3   OH269858   6.575   3.898  12.331  0.2083 -0.4939 -0.6799
16148TIP3    H169859   6.482   3.904  12.350  0.0982 -0.2167 -1.3092
16148TIP3    H269860   6.595   3.976  12.280  0.6006 -0.9965 -1.3006
16149TIP3   OH269861   2.333   1.225   1.056 -0.0982  0.1839 -0.3465
16149TIP3    H169862   2.240   1.236   1.078 -0.6541  0.3546 -2.6951
16149TIP3    H269863   2.358   1.309   1.017  0.9218 -0.0170 -0.1243
16150TIP3   OH269864   3.651   5.235  12.400  0.5187 -0.4116  0.3539
16150TIP3    H169865   3.563   5.273  12.403  1.3010  1.3710  1.0562
16150TIP3    H269866   3.646   5.160  12.459 -0.8355 -0.9810 -0.4587
16151TIP3   OH269867   0.827   0.477  11.166  0.6910  0.5709 -0.3834
16151TIP3    H169868   0.782   0.398  11.136  0.2866  1.1459 -1.3051
16151TIP3    H269869   0.915   0.471  11.129  1.4181 -0.5893  1.4805
16152TIP3   OH269870   3.676   6.586  14.316  0.4030  0.2259  0.4342
16152TIP3    H169871   3.602   6.634  14.354 -0.0752  0.3645 -0.6480
16152TIP3    H269872   3.743   6.653  14.303 -0.3802  0.6999 -1.3787
16153TIP3   OH269873   2.203   0.242   1.963 -0.2556 -0.0399  0.4688
16153TIP3    H169874   2.298   0.240   1.951 -0.1458 -0.6942  1.3903
16153TIP3    H269875   2.170   0.293   1.889  0.6803 -1.1881 -0.7535
16154TIP3   OH269876   5.048   2.939  16.755  0.2201 -0.5864  0.7621
16154TIP3    H169877   5.095   2.904  16.680 -0.8049 -0.9208  0.2605
16154TIP3    H269878   4.997   2.865  16.788 -0.1521 -0.1654  1.1368
16155TIP3   OH269879   3.181   5.716   6.003  0.2191 -0.1260 -0.4040
16155TIP3    H169880   3.110   5.764   6.045 -0.5865 -1.9312  0.3551
16155TIP3    H269881   3.184   5.750   5.914 -0.7736  0.8382 -0.0771
16156TIP3   OH269882   1.950   4.117  11.901 -0.2285 -0.0710 -0.3740
16156TIP3    H169883   2.014   4.105  11.831 -0.3008  2.6468 -0.9596
16156TIP3    H269884   1.865   4.100  11.859 -0.2072  0.6382 -0.6993
16157TIP3   OH269885   0.498   3.561  14.875 -0.1739 -0.2157 -0.5065
16157TIP3    H169886   0.422   3.616  14.894  0.6824  1.0023 -0.5481
16157TIP3    H269887   0.539   3.546  14.960 -0.1627 -0.4172 -0.5480
16158TIP3   OH269888   6.569   2.807   1.559 -0.7735 -0.2469 -0.7059
16158TIP3    H169889   6.640   2.759   1.517 -2.4038 -2.5706 -0.9167
16158TIP3    H269890   6.577   2.785   1.652 -0.2415  0.8139 -0.4912
16159TIP3   OH269891   2.927   6.538  13.281  0.3558 -0.4021 -0.3930
16159TIP3    H169892   2.967   6.453  13.263 -0.1136 -0.4957 -0.9773
16159TIP3    H269893   2.999   6.592  13.314  0.3742 -1.4498  1.3274
16160TIP3   OH269894   2.140   0.616   1.120 -0.3186  0.1590  0.0637
16160TIP3    H169895   2.225   0.580   1.096 -0.1581 -0.1829  1.0803
16160TIP3    H269896   2.081   0.589   1.050  0.0173 -1.2498  0.3117
16161TIP3   OH269897   0.201   3.539  13.508  0.2150  0.8214  0.0528
16161TIP3    H169898   0.185   3.587  13.427 -0.9075  1.6714  0.7686
16161TIP3    H269899   0.158   3.591  13.576 -0.1377 -0.6635  0.9883
16162TIP3   OH269900   4.164   4.569  15.253  0.3353  0.1955 -0.6220
16162TIP3    H169901   4.087   4.515  15.267  1.5448 -1.3276  0.2931
16162TIP3    H269902   4.144   4.651  15.298  0.1318 -1.0091  1.5570
16163TIP3   OH269903   3.870   2.039   3.662  0.0511 -0.9369 -0.0749
16163TIP3    H169904   3.875   2.109   3.728  1.8024 -1.3021  0.2124
16163TIP3    H269905   3.935   2.064   3.596 -0.0304 -1.7736 -0.4784
16164TIP3   OH269906   1.271   6.576  13.702 -0.4643 -0.5440 -0.6398
16164TIP3    H169907   1.274   6.497  13.648 -1.2667 -0.2842 -1.0704
16164TIP3    H269908   1.341   6.564  13.766 -0.7586 -1.7262 -0.5426
16165TIP3   OH269909   5.480   1.096   3.869  0.3963 -0.2986 -0.8846
16165TIP3    H169910   5.570   1.123   3.850  0.4272 -0.0241 -0.3606
16165TIP3    H269911   5.488   1.010   3.909  0.6310  0.9012  1.7140
16166TIP3   OH269912   6.396   0.642  15.167  0.2988  0.1351 -0.7172
16166TIP3    H169913   6.360   0.594  15.241  0.0130  0.0744 -0.8919
16166TIP3    H269914   6.410   0.576  15.099 -0.4982  0.3619 -1.1065
16167TIP3   OH269915   6.617   4.370  16.837  0.2748  0.1081  0.0354
16167TIP3    H169916   6.552   4.324  16.785  0.5115 -0.0595 -0.1116
16167TIP3    H269917   6.699   4.325  16.819  0.4515  0.3828  0.1397
16168TIP3   OH269918   4.400   2.864  12.552  0.1917 -1.1362  0.6136
16168TIP3    H169919   4.358   2.946  12.577 -0.4809 -1.5974  0.9980
16168TIP3    H269920   4.458   2.888  12.480 -3.1426 -1.0681 -2.1503
16169TIP3   OH269921   4.878   4.379  15.511 -0.0468  0.5249 -0.3854
16169TIP3    H169922   4.811   4.436  15.548  0.2219  0.9309 -0.5272
16169TIP3    H269923   4.936   4.437  15.463 -0.1909  0.0468 -1.1514
16170TIP3   OH269924   4.950   1.951   0.137  0.0713  0.0072  0.0925
16170TIP3    H169925   5.027   2.008   0.139 -0.0375  0.1762 -0.4848
16170TIP3    H269926   4.876   2.011   0.123  0.0888 -0.3968 -1.8779
16171TIP3   OH269927   1.177   4.439   5.984  0.2723 -0.6295  0.2729
16171TIP3    H169928   1.196   4.511   5.924 -1.3210 -0.0097  0.4623
16171TIP3    H269929   1.237   4.369   5.958  0.2762 -0.0354 -1.4182
16172TIP3   OH269930   2.966   2.144   1.987 -0.0515 -0.3951 -0.4500
16172TIP3    H169931   3.048   2.113   1.949  0.4310  1.7134 -1.1953
16172TIP3    H269932   2.994   2.198   2.062 -0.7494  0.3419 -0.7200
16173TIP3   OH269933   4.242   2.370  15.441 -0.2963  0.2380 -0.3291
16173TIP3    H169934   4.327   2.382  15.483 -0.8711  1.3873  0.5427
16173TIP3    H269935   4.245   2.281  15.406  1.1773  0.1881 -0.1267
16174TIP3   OH269936   2.009   4.501   1.343 -0.0749  0.1241 -1.0102
16174TIP3    H169937   1.918   4.529   1.341 -0.2272 -0.1391  0.9061
16174TIP3    H269938   2.053   4.564   1.400  1.4332  1.5416 -3.6653
16175TIP3   OH269939   6.591   1.383  15.129 -0.3198 -0.6107  0.2235
16175TIP3    H169940   6.607   1.361  15.037 -0.0373 -1.9874  0.5899
16175TIP3    H269941   6.678   1.396  15.166 -0.3914 -0.9271  0.5042
16176TIP3   OH269942   3.532   1.878  11.236  0.3150  0.0583 -0.1342
16176TIP3    H169943   3.443   1.856  11.265 -0.4534  0.9811 -1.7092
16176TIP3    H269944   3.589   1.827  11.293 -1.2352 -0.7383  0.7432
16177TIP3   OH269945   1.087   6.683  15.530  0.1773  0.4772  0.3868
16177TIP3    H169946   1.052   6.659  15.444 -0.9375  0.3738  0.8576
16177TIP3    H269947   1.178   6.706  15.513  0.7739 -2.2575 -0.3614
16178TIP3   OH269948   1.994   3.387   6.192 -0.1058  0.2829 -0.4148
16178TIP3    H169949   1.946   3.304   6.194 -0.9435  0.7882  1.6037
16178TIP3    H269950   2.050   3.384   6.269  0.0567  1.4997 -0.4826
16179TIP3   OH269951   2.183   4.113  14.283 -0.0871 -0.6345 -0.0944
16179TIP3    H169952   2.211   4.094  14.193  0.4023 -1.7947  0.2919
16179TIP3    H269953   2.121   4.185  14.274 -1.1294 -1.6903 -1.4970
16180TIP3   OH269954   2.605   0.849  14.715 -0.7395 -0.0141 -0.4314
16180TIP3    H169955   2.551   0.921  14.682 -1.7516 -0.8550 -0.6187
16180TIP3    H269956   2.590   0.777  14.654  0.1308 -0.4476 -0.1468
16181TIP3   OH269957   0.344   5.445   5.633  0.4113  0.5189 -0.6366
16181TIP3    H169958   0.405   5.517   5.649  0.8571 -0.4901  2.5088
16181TIP3    H269959   0.282   5.448   5.706 -0.7632 -1.0621 -1.5193
16182TIP3   OH269960   0.309   5.977  11.363 -0.0960  0.0318  0.2902
16182TIP3    H169961   0.300   5.883  11.375  0.0788  0.2049  1.9538
16182TIP3    H269962   0.403   5.993  11.363 -0.1114  0.1234 -0.6964
16183TIP3   OH269963   6.246   3.927   2.107 -0.5501  0.1292 -0.0693
16183TIP3    H169964   6.212   4.016   2.113  1.1288  0.6468  2.8065
16183TIP3    H269965   6.192   3.884   2.041 -3.5743  2.3016  0.9219
16184TIP3   OH269966   0.395   3.344   5.205  0.4683 -0.0480 -0.3626
16184TIP3    H169967   0.391   3.396   5.286  0.2893 -1.1267  0.3436
16184TIP3    H269968   0.383   3.407   5.135  1.7630  1.0798  0.4072
16185TIP3   OH269969   0.640   1.502   4.246 -0.0281  0.1014 -0.8346
16185TIP3    H169970   0.658   1.471   4.157  0.9664 -0.2185 -0.5302
16185TIP3    H269971   0.695   1.579   4.256  0.4906 -0.3478 -0.2129
16186TIP3   OH269972   6.197   4.221   0.310 -0.5249 -0.4319 -0.3492
16186TIP3    H169973   6.290   4.221   0.330 -0.5772 -0.5963 -0.1032
16186TIP3    H269974   6.175   4.128   0.302 -0.5554 -0.3748 -0.9275
16187TIP3   OH269975   1.283   2.201  14.301  0.4238  0.2701 -0.3964
16187TIP3    H169976   1.268   2.176  14.210  1.2465 -0.2806 -0.3856
16187TIP3    H269977   1.231   2.140  14.353  0.5981  0.0613 -0.4668
16188TIP3   OH269978   5.923   1.337   1.228  0.3801 -0.1408  0.1427
16188TIP3    H169979   6.013   1.358   1.201 -0.2360  0.6494 -1.3889
16188TIP3    H269980   5.911   1.383   1.311  1.2148  0.1922  0.0863
16189TIP3   OH269981   1.889   2.961   1.104  0.2333 -0.4823  0.5342
16189TIP3    H169982   1.822   2.981   1.039  2.8586  1.1922 -1.7873
16189TIP3    H269983   1.867   3.017   1.179 -1.9405 -1.2824  0.5324
16190TIP3   OH269984   6.052   5.266  11.588 -0.3088 -0.3874  0.1742
16190TIP3    H169985   5.978   5.206  11.582  0.6138 -1.4575 -0.7478
16190TIP3    H269986   6.094   5.246  11.671  1.8031 -3.2035 -1.4832
16191TIP3   OH269987   4.745   5.782  11.781  0.2062 -0.5079 -0.3122
16191TIP3    H169988   4.832   5.778  11.820 -0.4846  0.4146  1.3853
16191TIP3    H269989   4.730   5.876  11.767  0.3613 -0.8110 -2.6692
16192TIP3   OH269990   2.757   3.957  16.885 -0.1491 -0.0358  0.0931
16192TIP3    H169991   2.751   4.044  16.846  0.4231 -0.3332 -0.6857
16192TIP3    H269992   2.816   3.909  16.827  1.7229 -0.1109  1.9891
16193TIP3   OH269993   4.763   0.249   5.636  0.4285 -0.3488  0.0610
16193TIP3    H169994   4.725   0.320   5.688 -0.7710 -0.0366 -1.2005
16193TIP3    H269995   4.832   0.213   5.691  1.8255  2.5321  0.2804
16194TIP3   OH269996   3.500   5.272  15.298  0.3318 -0.1797 -0.5047
16194TIP3    H169997   3.557   5.226  15.236  0.5891  0.5073 -0.7877
16194TIP3    H269998   3.535   5.250  15.384 -0.0516 -1.1751 -0.5967
16195TIP3   OH269999   0.540   4.692  11.617  0.1838 -0.3958  0.3214
16195TIP3    H170000   0.550   4.749  11.540 -0.3148 -0.2561  0.3600
16195TIP3    H270001   0.483   4.741  11.676 -1.3353 -1.4889 -0.2019
16196TIP3   OH270002   1.941   0.987   5.281  0.5995  0.2510 -0.1375
16196TIP3    H170003   2.021   0.934   5.289  1.9951  2.5019  1.3533
16196TIP3    H270004   1.924   1.019   5.369 -2.4759 -0.8286 -0.2716
16197TIP3   OH270005   3.806   0.785   2.194 -0.0705  0.3573  0.5837
16197TIP3    H170006   3.733   0.785   2.256  0.1863  0.6712  0.8873
16197TIP3    H270007   3.882   0.805   2.248  0.6307 -2.4099  0.7163
16198TIP3   OH270008   2.720   4.736  11.527  0.0201 -0.3862 -0.6734
16198TIP3    H170009   2.673   4.727  11.610 -0.2391 -1.7995 -0.9495
16198TIP3    H270010   2.785   4.666  11.529 -0.2118 -0.6492 -1.8066
16199TIP3   OH270011   1.661   3.438   4.544 -0.1868  0.7053  0.0541
16199TIP3    H170012   1.675   3.532   4.547  2.5513  0.3450 -0.1985
16199TIP3    H270013   1.727   3.406   4.482 -2.0098 -1.2174 -0.9456
16200TIP3   OH270014   4.815   6.386  14.895 -0.0118  0.0090 -0.0896
16200TIP3    H170015   4.793   6.465  14.945  2.1815  1.8735 -1.9599
16200TIP3    H270016   4.852   6.326  14.960 -1.2074  0.6943  1.2611
16201TIP3   OH270017   5.431   4.721   2.264 -0.6537 -0.6074  1.3427
16201TIP3    H170018   5.523   4.703   2.282 -0.2953  0.0506  0.1689
16201TIP3    H270019   5.389   4.719   2.350  0.9313  1.8957  2.2058
16202TIP3   OH270020   1.118   5.850   5.905 -0.4059 -0.4642 -0.0646
16202TIP3    H170021   1.022   5.858   5.899 -0.2857  0.9357 -0.3265
16202TIP3    H270022   1.142   5.905   5.979  0.4486  1.3988 -1.6692
16203TIP3   OH270023   3.524   4.946  15.787  0.0600 -1.0017 -0.3308
16203TIP3    H170024   3.507   4.997  15.708 -0.1938  0.7395  0.8091
16203TIP3    H270025   3.595   4.993  15.831 -0.1397 -1.6569  0.7157
16204TIP3   OH270026   4.275   2.750   1.584  0.2472 -0.1985 -0.6828
16204TIP3    H170027   4.291   2.839   1.615 -0.7671 -0.9717  2.2354
16204TIP3    H270028   4.305   2.750   1.493  1.9839  2.6071 -0.1590
16205TIP3   OH270029   0.537   6.743  14.840  0.3050  0.5137  0.7765
16205TIP3    H170030   0.561   6.677  14.906  3.5566  1.9980  1.1658
16205TIP3    H270031   0.495   6.812  14.891 -1.2687 -0.3340  0.6474
16206TIP3   OH270032   3.754   5.831   4.349 -0.1732  0.3182  0.3869
16206TIP3    H170033   3.845   5.827   4.379 -0.2645  0.6147  0.7019
16206TIP3    H270034   3.714   5.751   4.383 -0.2621  0.6259  1.0094
16207TIP3   OH270035   1.722   4.699   4.120  0.1715  0.2686  0.5937
16207TIP3    H170036   1.771   4.682   4.040 -1.1324  0.6071 -0.2807
16207TIP3    H270037   1.772   4.767   4.165  0.5133  0.5981 -0.2815
16208TIP3   OH270038   5.148   4.239   4.225 -0.2189 -0.2477  0.0674
16208TIP3    H170039   5.062   4.211   4.194  0.3032  0.3815 -2.0775
16208TIP3    H270040   5.131   4.285   4.307 -2.0319  0.6001 -0.7543
16209TIP3   OH270041   4.809   2.944   2.004 -0.1525 -0.1668  0.0183
16209TIP3    H170042   4.769   2.860   2.027 -1.8328  0.8664  1.0169
16209TIP3    H270043   4.739   3.008   2.020  1.0730  1.3976 -0.8321
16210TIP3   OH270044   4.528   1.042   1.466  0.0803  0.4313  0.0621
16210TIP3    H170045   4.504   1.092   1.544 -0.5143  1.0248 -0.4865
16210TIP3    H270046   4.451   1.047   1.410  0.3201 -0.4193 -0.3494
16211TIP3   OH270047   3.038   0.813   5.723  1.0657  0.2859 -0.2106
16211TIP3    H170048   2.955   0.786   5.683  0.8189 -0.8082  1.0081
16211TIP3    H270049   3.102   0.751   5.689  1.2538  0.6742 -0.5690
16212TIP3   OH270050   4.026   3.636  15.240  0.6778  0.3856 -0.2407
16212TIP3    H170051   3.940   3.593  15.246  2.1278 -2.6820 -0.3385
16212TIP3    H270052   4.069   3.614  15.322  2.0545  0.3279 -0.9662
16213TIP3   OH270053   1.019   0.149  14.192  0.2143  0.1028 -0.1389
16213TIP3    H170054   0.950   0.199  14.148  1.2772  1.8934  0.1930
16213TIP3    H270055   1.099   0.200  14.178  1.3680 -1.5923  0.0749
16214TIP3   OH270056   1.236   5.228   0.329 -0.5528  0.0433  0.1511
16214TIP3    H170057   1.183   5.153   0.304  1.1098 -0.8790 -0.6847
16214TIP3    H270058   1.326   5.203   0.307  0.3989  1.1053  2.5707
16215TIP3   OH270059   5.766   4.449  14.919 -0.8688 -0.3816 -0.1679
16215TIP3    H170060   5.733   4.361  14.937  2.1137 -1.3281  0.8294
16215TIP3    H270061   5.734   4.469  14.831 -1.3761 -2.5322 -0.4989
16216TIP3   OH270062   1.798   5.516   0.246 -0.1688 -0.3293 -0.1754
16216TIP3    H170063   1.754   5.506   0.330 -0.7588  1.2250 -0.2770
16216TIP3    H270064   1.842   5.601   0.252  0.6987 -0.7132 -1.0162
16217TIP3   OH270065   1.482   5.062  14.512  0.5314 -0.5052  0.5501
16217TIP3    H170066   1.501   5.111  14.592  3.2812  1.5507 -1.2712
16217TIP3    H270067   1.423   5.119  14.463  1.5388 -0.2341 -0.3588
16218TIP3   OH270068   0.048   2.376   3.949  0.1845  0.2324 -0.3702
16218TIP3    H170069   0.045   2.446   4.014 -0.4104  0.1822 -0.3440
16218TIP3    H270070   0.051   2.295   4.001 -0.2259  0.1949 -0.4033
16219TIP3   OH270071   4.836   6.499   4.564 -0.3633 -0.1584  0.8082
16219TIP3    H170072   4.757   6.484   4.616 -0.7618 -1.0973 -0.0599
16219TIP3    H270073   4.805   6.509   4.474  0.4647 -0.1019  0.5213
16220TIP3   OH270074   3.493   5.215   1.288 -0.2926  0.1207  0.0816
16220TIP3    H170075   3.512   5.207   1.381 -0.7649  4.1393  0.6102
16220TIP3    H270076   3.401   5.190   1.280 -0.2729 -0.1504  0.6966
16221TIP3   OH270077   1.486   6.579   1.571  0.2389 -0.0937  0.1719
16221TIP3    H170078   1.452   6.492   1.591 -1.2986  0.3894 -0.2867
16221TIP3    H270079   1.427   6.639   1.617  1.3752  0.7050  0.6133
16222TIP3   OH270080   5.988   4.779  13.466  0.0395  0.4747 -0.2572
16222TIP3    H170081   5.913   4.782  13.525  1.3029  2.1542  1.3232
16222TIP3    H270082   5.952   4.793  13.379 -1.6204 -0.0887  0.3256
16223TIP3   OH270083   3.175   3.684  17.070 -0.0979  0.6609  0.0431
16223TIP3    H170084   3.147   3.592  17.071 -0.2604  0.6868 -1.3329
16223TIP3    H270085   3.271   3.679  17.072 -0.0803  0.4309 -1.3588
16224TIP3   OH270086   4.415   3.727   1.599 -0.0987  0.6506 -0.1025
16224TIP3    H170087   4.452   3.773   1.524  1.2960 -0.6429 -0.2477
16224TIP3    H270088   4.488   3.675   1.633 -0.8739  0.7570  1.7826
16225TIP3   OH270089   2.015   3.408   5.932  1.3023  0.4418  0.0659
16225TIP3    H170090   1.952   3.464   5.886 -0.3178 -0.5170  1.0996
16225TIP3    H270091   1.989   3.413   6.024  1.0342 -2.1244  0.1622
16226TIP3   OH270092   2.286   0.248  11.118 -0.0713  0.1879 -0.4770
16226TIP3    H170093   2.209   0.271  11.066  0.0413  3.2234  0.5927
16226TIP3    H270094   2.298   0.323  11.178  1.1167 -2.1781  2.3756
16227TIP3   OH270095   1.258   5.301  14.547 -0.5065 -0.0832 -0.1233
16227TIP3    H170096   1.185   5.240  14.552 -0.7513  0.1294 -0.9392
16227TIP3    H270097   1.261   5.342  14.634 -0.6010 -0.9407  0.2938
16228TIP3   OH270098   2.599   6.516  17.179 -0.4291 -0.5413 -0.8512
16228TIP3    H170099   2.534   6.523  17.249  0.3993 -0.5071 -0.0732
16228TIP3    H270100   2.589   6.597  17.130 -0.1431  0.0324  0.0105
16229TIP3   OH270101   4.482   3.683   2.321 -0.4720  0.2653  0.1707
16229TIP3    H170102   4.397   3.675   2.278  0.3792  0.7548 -1.6991
16229TIP3    H270103   4.517   3.594   2.324 -0.2957  0.2916 -0.7394
16230TIP3   OH270104   2.000   3.702   5.391 -0.5132  0.4415  0.2200
16230TIP3    H170105   2.047   3.662   5.464  0.3897  0.2317 -0.4666
16230TIP3    H270106   2.046   3.785   5.375 -0.5509  0.3688 -0.2729
16231TIP3   OH270107   0.609   0.137  12.325  0.3643 -0.3965  0.0877
16231TIP3    H170108   0.530   0.117  12.275  2.0095 -1.5450 -2.1152
16231TIP3    H270109   0.641   0.219  12.288  0.6501 -0.3515  0.4287
16232TIP3   OH270110   1.193   6.279  11.552 -0.3317 -0.2652  0.1911
16232TIP3    H170111   1.191   6.371  11.579 -0.4552  0.0009 -0.7195
16232TIP3    H270112   1.239   6.279  11.468 -1.2973 -0.8924 -0.3432
16233TIP3   OH270113   2.167   1.061  10.857 -0.1960  0.3315  0.1354
16233TIP3    H170114   2.142   1.152  10.870  0.6591  0.5616  0.1533
16233TIP3    H270115   2.224   1.040  10.932  0.2815  0.0317 -0.3076
16234TIP3   OH270116   0.124   3.885  15.872 -0.5197 -0.2633  0.1579
16234TIP3    H170117   0.045   3.938  15.876 -2.1107 -2.6387  1.6934
16234TIP3    H270118   0.132   3.848  15.960  1.4666 -1.2483 -0.4097
16235TIP3   OH270119   5.627   1.714  11.325 -0.3241  0.2466 -0.0856
16235TIP3    H170120   5.698   1.714  11.390  0.8626 -1.6290 -1.3472
16235TIP3    H270121   5.662   1.665  11.251 -3.1020 -1.1366 -0.5633
16236TIP3   OH270122   4.382   2.976   5.328  0.6866  0.0359 -0.0217
16236TIP3    H170123   4.443   3.042   5.297  2.1458 -1.8737 -1.2842
16236TIP3    H270124   4.327   2.956   5.252  0.7697 -0.7831  0.1344
16237TIP3   OH270125   2.305   0.728   6.145  0.4544 -0.1200  0.0894
16237TIP3    H170126   2.397   0.743   6.123  0.5886 -1.2517 -0.1705
16237TIP3    H270127   2.269   0.816   6.160  1.4402  0.3658 -0.3349
16238TIP3   OH270128   4.208   4.514   1.313 -0.2614 -0.0667  0.0085
16238TIP3    H170129   4.118   4.520   1.347  0.3981  0.0040  1.8235
16238TIP3    H270130   4.234   4.605   1.300 -0.1863 -0.0540  0.2389
16239TIP3   OH270131   5.508   4.429  17.003  0.0351 -0.3537  0.6818
16239TIP3    H170132   5.600   4.431  17.029  0.2281 -0.2946  0.0199
16239TIP3    H270133   5.463   4.478  17.071  0.5142 -0.2772  0.9487
16240TIP3   OH270134   3.631   3.821  17.092  0.1664  0.3960 -0.0315
16240TIP3    H170135   3.573   3.782  17.157 -2.1229  2.2721 -0.9137
16240TIP3    H270136   3.635   3.913  17.115  0.4548  0.8250 -1.7129
16241TIP3   OH270137   3.765   3.002  12.315 -0.3246  0.2621  0.3442
16241TIP3    H170138   3.741   3.084  12.271 -1.2934 -0.8768 -1.3173
16241TIP3    H270139   3.681   2.963  12.338  0.1634  0.3767  2.3910
16242TIP3   OH270140   6.690   6.001  16.005 -0.2246  0.3967  0.7214
16242TIP3    H170141   6.756   6.068  16.022 -0.4581  1.4767 -2.4003
16242TIP3    H270142   6.738   5.928  15.968 -0.7531  1.1997 -1.5898
16243TIP3   OH270143   3.320   2.380   3.769 -0.2339  0.2289  0.3897
16243TIP3    H170144   3.360   2.427   3.842  1.0806  0.3160 -0.3525
16243TIP3    H270145   3.395   2.357   3.713 -1.2728  0.6446 -1.1952
16244TIP3   OH270146   3.240   3.645  13.535  0.1719 -0.3610 -0.3053
16244TIP3    H170147   3.206   3.583  13.600 -2.6200  1.5008  0.1184
16244TIP3    H270148   3.220   3.731  13.573  3.2788  0.8081 -1.2314
16245TIP3   OH270149   6.008   0.977  15.644 -0.0040 -0.0915  0.9399
16245TIP3    H170150   6.017   1.068  15.672  0.3363  0.2382 -0.2371
16245TIP3    H270151   6.079   0.932  15.689  0.6901  0.4831  0.4234
16246TIP3   OH270152   6.384   2.261   5.555 -0.1537 -0.1769  0.0425
16246TIP3    H170153   6.431   2.316   5.493 -0.4689  0.1569  0.0943
16246TIP3    H270154   6.425   2.175   5.547  1.0898  0.3414  0.7799
16247TIP3   OH270155   1.444   2.727   4.411 -0.2876 -0.1427 -0.3377
16247TIP3    H170156   1.454   2.646   4.361  0.3272 -0.3618  0.1283
16247TIP3    H270157   1.424   2.697   4.500 -1.6560  0.2426 -0.4969
16248TIP3   OH270158   5.551   1.254   1.344  0.0782 -0.0446 -0.3434
16248TIP3    H170159   5.563   1.330   1.402 -0.6033  0.1917 -0.5112
16248TIP3    H270160   5.558   1.291   1.256 -0.4506 -0.1411 -0.4274
16249TIP3   OH270161   1.444   2.345  15.974 -0.0168  0.1880 -0.2855
16249TIP3    H170162   1.463   2.266  15.923  0.2509 -1.0776  1.7510
16249TIP3    H270163   1.410   2.312  16.057 -1.6605  2.2614 -0.1054
16250TIP3   OH270164   0.848   5.884   5.232 -0.3359 -0.4085  0.3504
16250TIP3    H170165   0.763   5.844   5.252  0.2981 -1.4266  1.0607
16250TIP3    H270166   0.871   5.851   5.146 -1.9804  2.1315 -1.1147
16251TIP3   OH270167   0.491   2.193  16.037  0.1380  0.1532 -0.0658
16251TIP3    H170168   0.465   2.170  15.948  2.0239 -0.2882 -0.5243
16251TIP3    H270169   0.428   2.147  16.093 -0.2410 -0.6403 -1.1339
16252TIP3   OH270170   2.090   0.138  12.375  0.0388  0.0475  0.2509
16252TIP3    H170171   2.070   0.231  12.382  0.7544  0.1017  1.8213
16252TIP3    H270172   2.122   0.114  12.462 -1.3023 -1.9396  0.2303
16253TIP3   OH270173   2.535   5.389  15.426 -0.1588 -0.1671 -0.2080
16253TIP3    H170174   2.616   5.402  15.377  0.1646 -1.5215 -0.0369
16253TIP3    H270175   2.535   5.297  15.450  0.1052  0.6456  3.1375
16254TIP3   OH270176   5.402   4.544  12.494 -0.4657  0.1351 -0.0983
16254TIP3    H170177   5.435   4.530  12.583 -0.2194  0.4590 -0.1376
16254TIP3    H270178   5.367   4.458  12.468 -0.2070 -0.0558  0.1747
16255TIP3   OH270179   4.474   0.206  13.608  0.1592 -0.0969  0.4651
16255TIP3    H170180   4.460   0.192  13.514  0.9098 -0.0791  0.3415
16255TIP3    H270181   4.531   0.134  13.634  0.9697  0.5931  0.6382
16256TIP3   OH270182   0.109   6.497   5.484  0.3221  0.4322  0.5827
16256TIP3    H170183   0.120   6.588   5.455  0.6559  0.2360  0.1006
16256TIP3    H270184   0.022   6.472   5.452  0.6513  0.2469 -0.1737
16257TIP3   OH270185   6.577   0.512  14.665 -0.1050 -0.1689 -0.2658
16257TIP3    H170186   6.598   0.508  14.759  0.9656  1.2493 -0.4287
16257TIP3    H270187   6.586   0.421  14.635  0.1951 -0.5290  0.8732
16258TIP3   OH270188   4.599   4.547   3.953  0.3592  0.5400  0.1945
16258TIP3    H170189   4.664   4.511   4.014  1.6091  1.2320 -0.7153
16258TIP3    H270190   4.643   4.548   3.868 -0.3612  2.2661 -0.1896
16259TIP3   OH270191   2.489   2.934  17.086  0.0260 -0.4862  0.0527
16259TIP3    H170192   2.433   2.862  17.117  0.2786 -0.5772  0.2986
16259TIP3    H270193   2.576   2.895  17.077 -0.1872 -0.6383 -1.4518
16260TIP3   OH270194   0.374   1.523  13.809  0.0401 -0.1096 -0.2149
16260TIP3    H170195   0.348   1.567  13.727 -2.0954  1.7611  1.4054
16260TIP3    H270196   0.425   1.588  13.856 -0.0556 -0.6212  0.6138
16261TIP3   OH270197   2.499   4.824   1.800  0.6773  0.1103  0.5413
16261TIP3    H170198   2.448   4.902   1.823  0.3703 -0.3788  1.5451
16261TIP3    H270199   2.452   4.786   1.726 -1.1291 -0.9932  2.2043
16262TIP3   OH270200   3.644   2.012  17.014  0.2144 -0.1173 -0.4988
16262TIP3    H170201   3.681   1.924  17.023  0.3233  0.0351  0.6432
16262TIP3    H270202   3.551   1.996  16.994  0.3204 -0.4955 -0.6933
16263TIP3   OH270203   5.333   3.742   1.108  0.0771  1.0346  0.2885
16263TIP3    H170204   5.416   3.782   1.081 -0.1738  0.7689 -0.8785
16263TIP3    H270205   5.296   3.804   1.171  0.8146  1.4987  0.2714
16264TIP3   OH270206   5.413   0.971  14.000  0.2262  0.1870 -0.0262
16264TIP3    H170207   5.437   0.916  14.075  3.2763  0.5974 -0.6440
16264TIP3    H270208   5.496   1.006  13.968 -1.3521  2.8662 -1.4402
16265TIP3   OH270209   1.964   2.159  16.666 -0.1573  0.2120 -0.3003
16265TIP3    H170210   1.984   2.100  16.738 -0.1022  0.9472  0.2869
16265TIP3    H270211   2.034   2.143  16.602  0.7198  0.7503  0.5187
16266TIP3   OH270212   4.997   1.656   4.345 -0.3248  0.3808  0.3972
16266TIP3    H170213   5.065   1.700   4.396 -1.3836  0.9235  1.3454
16266TIP3    H270214   4.919   1.710   4.355 -1.1138 -0.6448 -0.0478
16267TIP3   OH270215   3.935   5.930   3.763 -0.2361  0.1927 -0.3579
16267TIP3    H170216   3.928   5.901   3.854  1.6331 -3.0747 -1.1700
16267TIP3    H270217   3.857   5.984   3.749 -1.0468  0.0024  2.8760
16268TIP3   OH270218   6.087   1.847  13.462  0.7423 -0.4007  0.1639
16268TIP3    H170219   6.176   1.863  13.494  0.4723 -0.2803  0.8444
16268TIP3    H270220   6.035   1.832  13.540 -0.1929  1.2582 -0.1231
16269TIP3   OH270221   5.054   1.561  15.219  0.5889  0.1013  0.2958
16269TIP3    H170222   5.025   1.626  15.154 -0.3596 -1.5397 -0.9626
16269TIP3    H270223   5.120   1.509  15.172  0.8723 -0.2599  1.0895
16270TIP3   OH270224   5.571   2.378   5.997  0.2410 -0.2223  0.1790
16270TIP3    H170225   5.597   2.370   6.089  0.8226 -0.5239 -0.0055
16270TIP3    H270226   5.653   2.399   5.951 -0.0349 -0.1440 -0.2778
16271TIP3   OH270227   3.534   5.454  16.300 -0.1476 -0.3522 -0.1114
16271TIP3    H170228   3.610   5.420  16.348  1.1363  1.4818 -0.7735
16271TIP3    H270229   3.530   5.401  16.221  1.0007  0.0833 -0.4814
16272TIP3   OH270230   1.042   6.456  16.819 -0.0006  0.0873  0.3002
16272TIP3    H170231   1.059   6.484  16.909 -1.4023  0.6923  0.3851
16272TIP3    H270232   1.129   6.441  16.782  0.5991  0.0546  1.6812
16273TIP3   OH270233   3.230   3.664  15.812  0.2527 -0.2151  0.0804
16273TIP3    H170234   3.289   3.697  15.880 -0.7552 -0.1711  0.9424
16273TIP3    H270235   3.176   3.599  15.856 -0.5116 -0.0819 -0.6405
16274TIP3   OH270236   3.408   2.108   4.914  0.0962 -0.0964 -0.0222
16274TIP3    H170237   3.352   2.037   4.944 -1.0700  0.2754 -1.3129
16274TIP3    H270238   3.393   2.179   4.977  0.2442 -0.5126  0.4848
16275TIP3   OH270239   6.030   2.708   5.524 -0.0385 -0.2078 -0.1863
16275TIP3    H170240   5.939   2.727   5.550  0.4793  0.9760  0.8489
16275TIP3    H270241   6.048   2.622   5.561 -0.4708 -0.0786  0.3425
16276TIP3   OH270242   1.775   0.187   2.732  0.2602  0.4064 -0.4545
16276TIP3    H170243   1.761   0.282   2.724  0.2528  0.3376 -1.3093
16276TIP3    H270244   1.699   0.156   2.782 -1.9446  0.2477 -3.7618
16277TIP3   OH270245   2.722   1.610   2.145  0.5948  0.2768 -0.5103
16277TIP3    H170246   2.651   1.614   2.210  1.2949  0.8629  0.2271
16277TIP3    H270247   2.725   1.699   2.108  0.2932 -0.0168 -1.2556
16278TIP3   OH270248   2.452   1.507   3.326  0.2756  0.0002 -0.3886
16278TIP3    H170249   2.542   1.476   3.316 -0.0957 -1.0618 -0.4782
16278TIP3    H270250   2.452   1.594   3.285  0.8490 -0.7170 -1.9428
16279TIP3   OH270251   5.502   1.922   6.129 -1.3336  0.1811 -0.3847
16279TIP3    H170252   5.573   1.985   6.140 -2.1022  1.2819 -1.5803
16279TIP3    H270253   5.543   1.837   6.143  0.1292  0.8242 -0.6640
16280TIP3   OH270254   0.339   3.504   2.243 -0.7064 -0.1804 -0.4082
16280TIP3    H170255   0.251   3.486   2.209 -1.5513 -0.8547  2.0011
16280TIP3    H270256   0.327   3.505   2.338  1.9544 -0.5412 -0.0571
16281TIP3   OH270257   6.388   2.969   4.721  0.1241 -0.0401  0.0795
16281TIP3    H170258   6.427   3.019   4.649  3.4155 -2.3992  0.1312
16281TIP3    H270259   6.324   2.912   4.678 -0.5765  1.1686 -0.5006
16282TIP3   OH270260   1.571   1.047  15.635  0.5090  0.0232  0.1750
16282TIP3    H170261   1.601   1.075  15.549  1.9058 -1.8873  0.0215
16282TIP3    H270262   1.508   0.977  15.616 -0.0730  0.3991  0.6882
16283TIP3   OH270263   0.175   5.821  14.648  0.1093  0.1725  0.4730
16283TIP3    H170264   0.139   5.788  14.565  0.1565  0.0851  0.4861
16283TIP3    H270265   0.112   5.792  14.714 -0.3907  1.0149  0.3679
16284TIP3   OH270266   4.414   5.482  16.981  0.3258  0.5789  0.1617
16284TIP3    H170267   4.387   5.566  16.945  1.3041  1.7905  2.1822
16284TIP3    H270268   4.346   5.459  17.044  0.7693  0.5455  0.6314
16285TIP3   OH270269   3.045   2.922  13.703  0.0342 -0.2172 -0.1146
16285TIP3    H170270   2.998   2.939  13.621  1.3415 -1.8705 -1.2360
16285TIP3    H270271   3.008   2.840  13.735  0.0013  0.0798  0.6188
16286TIP3   OH270272   0.396   2.548  14.623  0.3761  0.4206 -0.4668
16286TIP3    H170273   0.378   2.481  14.557  0.5350 -1.1672  1.0762
16286TIP3    H270274   0.323   2.540  14.685  2.3756 -0.9193  1.7674
16287TIP3   OH270275   0.067   0.214  16.547  0.8804 -0.5392  0.6341
16287TIP3    H170276   0.017   0.178  16.620 -1.2577  0.2044 -0.4109
16287TIP3    H270277   0.077   0.307  16.569 -1.6246  0.1570 -0.9616
16288TIP3   OH270278   0.877   2.465   4.635 -0.2925 -0.6526  0.3657
16288TIP3    H170279   0.785   2.477   4.614 -0.1164  1.6581  0.7958
16288TIP3    H270280   0.887   2.501   4.723  1.5016  1.4788 -0.6500
16289TIP3   OH270281   3.969   5.018   4.921  0.6626  0.4256  0.7572
16289TIP3    H170282   3.984   5.000   5.014 -0.1954 -0.8610  0.6464
16289TIP3    H270283   3.881   4.985   4.903 -0.0083  2.5446 -0.0376
16290TIP3   OH270284   1.957   6.469  16.254 -0.3441  0.3202 -0.3396
16290TIP3    H170285   1.998   6.511  16.178 -0.7657  0.3451 -0.5539
16290TIP3    H270286   1.951   6.539  16.319 -2.7238  1.1073 -1.3363
16291TIP3   OH270287   2.174   3.799   1.113  0.4774 -0.4641 -0.1887
16291TIP3    H170288   2.085   3.764   1.113 -1.0653  3.1791  0.1338
16291TIP3    H270289   2.208   3.778   1.026 -1.5220 -0.0915 -1.0974
16292TIP3   OH270290   2.802   0.609  13.864  0.0332  0.0930  0.2787
16292TIP3    H170291   2.853   0.562  13.930 -0.4453  0.6773  1.0788
16292TIP3    H270292   2.867   0.656  13.812  0.5684 -1.9836 -0.9719
16293TIP3   OH270293   2.056   6.621   2.859  0.3540 -0.2642 -0.0027
16293TIP3    H170294   2.023   6.557   2.796 -0.5487  0.5518 -0.3681
16293TIP3    H270295   2.145   6.640   2.829  0.2486 -0.5496 -0.5129
16294TIP3   OH270296   5.596   1.728   3.965  0.2458 -0.1010 -0.0110
16294TIP3    H170297   5.561   1.675   3.893 -1.4963  0.4629  0.3906
16294TIP3    H270298   5.525   1.788   3.986  1.1345  0.4266  1.4908
16295TIP3   OH270299   4.339   4.810  16.093 -0.5861  0.3309  0.0137
16295TIP3    H170300   4.385   4.891  16.114 -1.6508  1.3090 -1.3638
16295TIP3    H270301   4.391   4.770  16.023  1.1328 -1.2922  2.1271
16296TIP3   OH270302   3.866   4.531  14.736 -0.3814  0.2237  0.4343
16296TIP3    H170303   3.914   4.583  14.671 -0.7669  1.8615  1.4244
16296TIP3    H270304   3.921   4.533  14.814  0.3747 -2.2632  0.0098
16297TIP3   OH270305   3.746   1.799   3.663 -0.0274 -0.5133  0.1891
16297TIP3    H170306   3.701   1.784   3.579  2.8113 -1.2717 -1.2435
16297TIP3    H270307   3.774   1.891   3.659 -0.3807 -0.3834  0.5836
16298TIP3   OH270308   0.629   0.079  16.073 -0.0328  0.8107 -0.4699
16298TIP3    H170309   0.593   0.097  15.986 -0.1335 -0.3709 -0.6887
16298TIP3    H270310   0.700   0.016  16.057 -1.5029 -1.1658  0.4979
16299TIP3   OH270311   0.368   1.361  15.573 -0.1828 -0.5458 -0.2286
16299TIP3    H170312   0.449   1.311  15.566  0.7070  0.7418  0.5567
16299TIP3    H270313   0.386   1.444  15.528 -1.0159 -0.2038  0.0506
16300TIP3   OH270314   1.303   3.589   1.647  0.0356 -0.0362 -0.1084
16300TIP3    H170315   1.300   3.636   1.564  1.3148  0.0093 -0.1387
16300TIP3    H270316   1.392   3.600   1.678  1.0565 -4.2476 -1.1659
16301TIP3   OH270317   4.953   6.397   5.014  0.6282 -0.3952 -0.4018
16301TIP3    H170318   4.964   6.314   5.062 -2.8619 -0.9889 -0.4799
16301TIP3    H270319   4.914   6.456   5.078 -1.5041 -0.3501 -1.7040
16302TIP3   OH270320   2.287   6.296   2.351 -0.2752 -0.7317  0.5068
16302TIP3    H170321   2.378   6.268   2.335 -0.3646 -1.4918  1.2858
16302TIP3    H270322   2.285   6.320   2.443 -0.5931  0.3791  0.2127
16303TIP3   OH270323   5.866   2.759  16.412  0.6714  0.1787 -0.3942
16303TIP3    H170324   5.928   2.721  16.474 -0.8759 -0.3677  0.8267
16303TIP3    H270325   5.915   2.831  16.371  2.4419 -0.8693 -0.1886
16304TIP3   OH270326   3.704   5.791   1.183 -0.5886 -0.1217 -0.5206
16304TIP3    H170327   3.795   5.775   1.206 -0.8043 -1.6556 -0.6455
16304TIP3    H270328   3.673   5.707   1.149 -0.8418  1.4582 -4.5034
16305TIP3   OH270329   0.560   5.100   4.306 -0.3529 -0.2191 -0.4667
16305TIP3    H170330   0.469   5.076   4.289 -0.7592  0.0193  1.3532
16305TIP3    H270331   0.562   5.195   4.296 -0.8832  0.0794  2.0408
16306TIP3   OH270332   6.036   3.505   2.624 -0.5195  0.0311  0.2316
16306TIP3    H170333   6.065   3.578   2.677 -0.2698  0.4191 -0.4277
16306TIP3    H270334   6.111   3.485   2.568 -0.5390 -0.8144  0.5049
16307TIP3   OH270335   5.441   6.251  13.598 -0.0972 -0.0204  0.0221
16307TIP3    H170336   5.431   6.225  13.690  0.5598  0.3111  0.1948
16307TIP3    H270337   5.450   6.347  13.602 -1.5219  0.1486 -0.5159
16308TIP3   OH270338   0.573   4.064   1.064  0.4701  0.3239 -0.3384
16308TIP3    H170339   0.574   4.158   1.083  1.6433 -0.0101  1.4155
16308TIP3    H270340   0.656   4.032   1.099  0.4398 -1.2350 -1.6697
16309TIP3   OH270341   3.698   6.026   3.934  0.2632  0.6915  0.1842
16309TIP3    H170342   3.681   6.115   3.905 -1.7073  0.1701 -0.4155
16309TIP3    H270343   3.631   5.974   3.888  2.2112 -1.2615 -0.5028
16310TIP3   OH270344   0.210   2.727  13.953 -0.0517 -0.2694  0.1471
16310TIP3    H170345   0.233   2.650  13.901  1.1357 -1.0700  1.8294
16310TIP3    H270346   0.241   2.801  13.901  1.4379 -1.0788 -0.1465
16311TIP3   OH270347   0.639   4.740   2.898 -0.3957  0.3402 -0.4375
16311TIP3    H170348   0.581   4.704   2.831 -0.3295 -0.6923  0.0434
16311TIP3    H270349   0.702   4.793   2.850 -0.0566 -0.7722 -1.2341
16312TIP3   OH270350   1.083   1.922  10.678 -0.0642  0.3265 -0.2458
16312TIP3    H170351   1.151   1.989  10.678  0.1284  0.1393  0.6328
16312TIP3    H270352   1.127   1.844  10.713 -0.2660 -0.2856 -1.3159
16313TIP3   OH270353   4.049   4.176   3.981  0.2026 -0.1476 -0.0157
16313TIP3    H170354   3.974   4.226   4.011  0.7845  0.2966  0.7357
16313TIP3    H270355   4.047   4.183   3.886 -1.4438 -1.2378 -0.0610
16314TIP3   OH270356   2.922   4.650  13.306  0.3448  0.0470 -0.4790
16314TIP3    H170357   2.858   4.580  13.322 -0.5855  0.8463 -0.6457
16314TIP3    H270358   2.887   4.697  13.230  1.7457 -0.2218 -1.3088
16315TIP3   OH270359   1.983   1.092   1.703  0.0797  0.1401 -0.1808
16315TIP3    H170360   1.903   1.043   1.721  1.0171 -1.4324 -0.2419
16315TIP3    H270361   1.966   1.135   1.619 -0.5584 -0.4949 -0.3833
16316TIP3   OH270362   1.856   6.038   4.531  0.3129 -0.1032  0.3170
16316TIP3    H170363   1.905   6.107   4.575 -0.6630  1.4427 -0.9304
16316TIP3    H270364   1.919   5.968   4.517  2.2173  1.8602 -1.2882
16317TIP3   OH270365   0.068   3.451   2.234 -0.3746  0.6220 -0.0196
16317TIP3    H170366   0.057   3.359   2.256  0.5148  0.6369  0.5199
16317TIP3    H270367  -0.019   3.481   2.207 -0.7592 -0.2500  0.2685
16318TIP3   OH270368   5.712   4.031  15.576 -0.3819  0.0314 -0.5814
16318TIP3    H170369   5.689   3.939  15.570 -0.4355 -0.0053  0.1902
16318TIP3    H270370   5.794   4.039  15.526  0.1048 -0.6026  0.1038
16319TIP3   OH270371   5.188   4.121   2.385 -0.4347  0.3925  0.5644
16319TIP3    H170372   5.141   4.202   2.366  1.3777  1.3966  0.1988
16319TIP3    H270373   5.218   4.090   2.299  0.9256  0.6536  0.9188
16320TIP3   OH270374   4.306   3.299   0.993 -0.1745 -0.6846 -0.0442
16320TIP3    H170375   4.237   3.244   1.028 -1.0579 -0.2901 -1.1334
16320TIP3    H270376   4.275   3.389   1.008  0.4378 -0.4969  0.1209
16321TIP3   OH270377   0.528   2.424  14.011 -0.2328  0.5219  0.5839
16321TIP3    H170378   0.535   2.515  13.984 -1.2064  0.6300  0.6958
16321TIP3    H270379   0.459   2.423  14.078  0.5351 -0.1190  1.3735
16322TIP3   OH270380   0.458   6.099   4.982  0.5318 -0.4140  0.1309
16322TIP3    H170381   0.409   6.180   4.998 -0.2303 -0.8007 -0.1822
16322TIP3    H270382   0.549   6.122   4.998  0.1609  0.0894  1.6247
16323TIP3   OH270383   6.441   1.998   4.238  0.6101 -0.5003 -0.1762
16323TIP3    H170384   6.515   1.985   4.298  0.0576 -0.6447  0.4751
16323TIP3    H270385   6.472   1.962   4.154  1.8447  0.8550 -0.3209
16324TIP3   OH270386   4.532   1.788   6.070 -0.4703  0.3077  0.8127
16324TIP3    H170387   4.437   1.802   6.071 -0.8993 -2.3453  2.3233
16324TIP3    H270388   4.557   1.788   6.162  1.0555  1.2768  0.4118
16325TIP3   OH270389   2.556   0.600  10.816  0.2545  0.4632 -0.2501
16325TIP3    H170390   2.536   0.516  10.857  2.3185  0.4198  0.7507
16325TIP3    H270391   2.541   0.585  10.722 -0.7263 -0.6077  0.0735
16326TIP3   OH270392   0.965   0.288   3.297 -0.4155 -0.6248  0.3601
16326TIP3    H170393   0.927   0.212   3.340  0.3299 -0.6415  0.9975
16326TIP3    H270394   0.894   0.352   3.291 -1.0041 -1.3156 -0.0483
16327TIP3   OH270395   2.237   6.197  13.205  0.8087  0.6687  0.8179
16327TIP3    H170396   2.145   6.225  13.210  0.5500  0.2783 -1.2685
16327TIP3    H270397   2.250   6.174  13.113  2.8043  0.0093  1.2405
16328TIP3   OH270398   1.705   5.039  11.099 -0.7722 -0.5892  0.1939
16328TIP3    H170399   1.614   5.068  11.088 -1.0770 -1.1026  1.3346
16328TIP3    H270400   1.757   5.119  11.089 -1.5271  0.1459  2.0162
16329TIP3   OH270401   4.396   6.343  14.584 -0.2140 -0.2830  0.3682
16329TIP3    H170402   4.350   6.281  14.527 -0.3050  0.9059 -0.8787
16329TIP3    H270403   4.338   6.353  14.659 -2.0319  1.1108 -1.1358
16330TIP3   OH270404   1.254   1.356   0.444 -0.5663 -0.1760 -0.3798
16330TIP3    H170405   1.253   1.412   0.522 -1.3644  1.0920 -1.2791
16330TIP3    H270406   1.163   1.354   0.415 -0.5285 -1.8596 -0.4404
16331TIP3   OH270407   1.339   6.210  15.161 -0.8691  0.2926 -0.2098
16331TIP3    H170408   1.386   6.261  15.094  0.1787  0.1418  0.3921
16331TIP3    H270409   1.375   6.122  15.154  0.2029  0.5712  1.4141
16332TIP3   OH270410   4.015   5.946  11.217 -0.2162  0.2306  0.1629
16332TIP3    H170411   4.092   5.904  11.178  0.0934  1.0823 -0.1524
16332TIP3    H270412   3.946   5.880  11.211  0.2132 -0.1634 -0.5079
16333TIP3   OH270413   5.455   1.648  11.614 -0.2171 -0.2495  0.3060
16333TIP3    H170414   5.506   1.570  11.592 -1.7661 -1.5558  1.2699
16333TIP3    H270415   5.521   1.717  11.624  1.2306 -1.5501  0.0080
16334TIP3   OH270416   0.485   3.877   3.784 -0.1203 -0.1136  0.1744
16334TIP3    H170417   0.443   3.794   3.805 -0.1207  0.2113  1.5010
16334TIP3    H270418   0.578   3.857   3.778 -0.1961 -0.3455 -0.2107
16335TIP3   OH270419   4.776   5.107  15.743 -0.3950 -0.6369  0.7210
16335TIP3    H170420   4.849   5.147  15.696 -0.8745  0.9630  1.3183
16335TIP3    H270421   4.772   5.154  15.826 -0.6735 -2.2552  1.6337
16336TIP3   OH270422   6.304   3.651  15.663 -0.1637 -0.1277  0.0808
16336TIP3    H170423   6.297   3.682  15.753 -0.1216 -0.0215  0.0470
16336TIP3    H270424   6.288   3.556  15.669  3.1086 -0.6909  0.6384
16337TIP3   OH270425   4.327   2.221  14.487 -0.1373 -0.0025  0.5727
16337TIP3    H170426   4.302   2.159  14.418 -1.5339 -0.1189  1.1748
16337TIP3    H270427   4.378   2.288  14.441 -3.1341  1.2484 -1.0896
16338TIP3   OH270428   4.804   3.679  14.801  0.5382 -0.9361 -0.2266
16338TIP3    H170429   4.710   3.669  14.814  0.3118 -0.2435 -1.2185
16338TIP3    H270430   4.830   3.749  14.860  0.1117  0.0089 -1.1357
16339TIP3   OH270431   4.901   2.789  13.151 -0.0133 -0.0884 -0.1526
16339TIP3    H170432   4.806   2.796  13.144 -0.1132  0.9325  1.8860
16339TIP3    H270433   4.916   2.768  13.243  1.7265 -0.7617 -0.5719
16340TIP3   OH270434   2.653   4.984   5.791 -0.4707 -0.4055  0.1179
16340TIP3    H170435   2.740   4.944   5.792 -0.3278 -0.0860  0.9689
16340TIP3    H270436   2.664   5.066   5.840 -1.2826 -0.4408  0.3614
16341TIP3   OH270437   5.240   3.310   5.965  0.4258  0.4121  0.6198
16341TIP3    H170438   5.317   3.268   5.927 -0.3784 -1.4981  1.0765
16341TIP3    H270439   5.180   3.321   5.891  0.1718 -0.2809  0.7295
16342TIP3   OH270440   2.720   5.275   2.032 -0.2655 -0.3686  0.0800
16342TIP3    H170441   2.655   5.231   2.087 -0.5204  0.0197  0.0900
16342TIP3    H270442   2.725   5.221   1.953 -1.9319  0.5800 -0.6954
16343TIP3   OH270443   0.851   3.751   5.570  0.4967 -0.0069 -0.2219
16343TIP3    H170444   0.762   3.759   5.606  0.5091 -0.2557 -0.1373
16343TIP3    H270445   0.837   3.726   5.478  0.4694  0.4341 -0.3389
16344TIP3   OH270446   0.318   2.683  13.137 -0.1846 -0.1231 -1.0590
16344TIP3    H170447   0.373   2.655  13.064  0.1144  1.1340 -1.3366
16344TIP3    H270448   0.372   2.669  13.214 -0.0457 -0.3215 -1.1909
16345TIP3   OH270449   0.394   2.626   5.026 -0.0875 -0.1110 -0.3781
16345TIP3    H170450   0.383   2.687   5.098  2.2636 -1.0895  0.8563
16345TIP3    H270451   0.365   2.542   5.062  0.8508 -0.5519 -0.6484
16346TIP3   OH270452   1.723   3.734   5.408  0.2565 -0.3207  0.0147
16346TIP3    H170453   1.817   3.720   5.394  0.0168 -2.1581  0.1013
16346TIP3    H270454   1.707   3.823   5.376  2.0254  0.0271  0.0225
16347TIP3   OH270455   6.483   6.051   3.311 -0.0177  0.3640  0.1623
16347TIP3    H170456   6.510   6.032   3.222 -2.8318  1.7594 -1.0425
16347TIP3    H270457   6.433   5.974   3.338  1.8910 -0.6077  1.0476
16348TIP3   OH270458   6.641   5.983   3.086 -0.4511  0.5513 -0.1557
16348TIP3    H170459   6.618   6.016   2.999 -1.1034  0.3665 -0.0583
16348TIP3    H270460   6.691   6.054   3.127  0.4215  0.3932 -0.9171
16349TIP3   OH270461   5.712   6.674  15.119  0.0725 -0.4980 -0.6596
16349TIP3    H170462   5.784   6.613  15.108  1.4392  0.6202  1.5990
16349TIP3    H270463   5.651   6.629  15.178  0.8449  0.0946  0.6108
16350TIP3   OH270464   2.787   0.615   5.894 -0.1023  0.1694 -0.5740
16350TIP3    H170465   2.827   0.530   5.876 -0.6515 -0.6369  1.8853
16350TIP3    H270466   2.837   0.652   5.966 -0.9848  1.1554 -0.4368
16351TIP3   OH270467   5.359   6.170   4.538 -0.3711 -0.3803  0.4349
16351TIP3    H170468   5.305   6.138   4.466  1.5404 -2.0296 -0.3060
16351TIP3    H270469   5.298   6.177   4.612 -2.2294  0.7523 -1.1488
16352TIP3   OH270470   3.981   4.826  12.266 -0.1522 -0.0973 -0.1953
16352TIP3    H170471   3.962   4.817  12.172 -1.0193  2.2328 -0.2832
16352TIP3    H270472   4.036   4.750  12.287 -1.3603 -1.5806 -2.1923
16353TIP3   OH270473   6.328   4.402  13.289 -0.2432  0.4362  0.5020
16353TIP3    H170474   6.248   4.359  13.318 -0.3740 -0.1430 -0.7042
16353TIP3    H270475   6.303   4.494  13.280 -0.6082  0.3587  0.7005
16354TIP3   OH270476   5.790   5.818   3.249  0.0213  0.5720  0.3263
16354TIP3    H170477   5.886   5.816   3.257  0.0927  1.3459 -0.3448
16354TIP3    H270478   5.766   5.726   3.241  0.7900  0.4227 -0.3772
16355TIP3   OH270479   4.153   6.554   2.734  0.5350  0.3411  0.2396
16355TIP3    H170480   4.110   6.638   2.715 -1.3733 -0.4234  1.0670
16355TIP3    H270481   4.086   6.488   2.717  1.6123 -0.9403  0.8499
16356TIP3   OH270482   4.312   2.787   1.263  0.0028  0.1365 -0.8012
16356TIP3    H170483   4.253   2.807   1.191  0.2899  0.5303 -0.9302
16356TIP3    H270484   4.394   2.831   1.240 -0.4302  1.7752  0.5845
16357TIP3   OH270485   4.366   3.476   1.370 -0.6891 -0.0292 -0.2175
16357TIP3    H170486   4.426   3.407   1.343 -1.3541 -0.1454 -1.4325
16357TIP3    H270487   4.323   3.442   1.448 -0.1140 -0.4826 -0.1037
16358TIP3   OH270488   2.829   6.211   0.854 -0.3233  0.0624 -0.6508
16358TIP3    H170489   2.892   6.282   0.860  2.4938 -2.3583 -0.4692
16358TIP3    H270490   2.792   6.203   0.942  2.0548 -1.0407  0.2774
16359TIP3   OH270491   2.871   4.900  11.955 -0.6524  0.7131  0.6337
16359TIP3    H170492   2.926   4.929  11.882 -1.0916  0.1329  0.0572
16359TIP3    H270493   2.839   4.980  11.995  1.0426  1.0647  1.3037
16360TIP3   OH270494   0.495   2.103   0.040 -0.1376  0.8517  0.9316
16360TIP3    H170495   0.501   2.071   0.130  1.4086 -1.1231  0.1627
16360TIP3    H270496   0.585   2.109   0.011 -0.6510  0.9076 -0.6860
16361TIP3   OH270497   3.487   5.873  11.912  0.4025  0.0085  0.5545
16361TIP3    H170498   3.580   5.869  11.889  0.1043 -0.3559 -0.6548
16361TIP3    H270499   3.472   5.966  11.932  1.1501 -0.0293  1.3279
16362TIP3   OH270500   4.533   2.705  15.638  0.4825  0.6671  0.3523
16362TIP3    H170501   4.516   2.687  15.546 -1.8431 -1.9966  1.2460
16362TIP3    H270502   4.521   2.800  15.646 -1.1075  0.6810 -1.7471
16363TIP3   OH270503   1.510   2.215  11.638  0.4299 -0.4697  0.2697
16363TIP3    H170504   1.557   2.255  11.564 -1.9596  0.3636 -0.8341
16363TIP3    H270505   1.570   2.225  11.712  1.6191  1.4047 -0.9000
16364TIP3   OH270506   5.867   2.046   0.064  0.6426 -0.0245  0.1686
16364TIP3    H170507   5.817   2.047  -0.018  1.6127 -0.4321 -0.4423
16364TIP3    H270508   5.837   1.969   0.110 -1.1815  1.1556  1.0142
16365TIP3   OH270509   4.433   2.950   2.767  0.3024 -0.4030 -0.2274
16365TIP3    H170510   4.362   2.903   2.810  1.2871 -0.2388  1.5930
16365TIP3    H270511   4.405   3.041   2.766  0.7574 -0.2456  1.0557
16366TIP3   OH270512   2.762   5.678  14.131 -0.5094  0.1360  0.3070
16366TIP3    H170513   2.780   5.770  14.149  1.7474 -0.2809  0.3338
16366TIP3    H270514   2.802   5.631  14.204 -1.0414 -0.9076 -0.0605
16367TIP3   OH270515   0.124   4.880  11.392 -0.0496 -0.2197 -0.6282
16367TIP3    H170516   0.096   4.906  11.304  0.5290 -0.4806 -0.8978
16367TIP3    H270517   0.204   4.830  11.377 -0.2340 -0.7155  0.0099
16368TIP3   OH270518   2.524   2.090  15.632  0.0767  0.0532 -0.4160
16368TIP3    H170519   2.476   2.020  15.588 -1.7268  0.7889  0.3672
16368TIP3    H270520   2.464   2.164  15.633  0.9174  0.7256  1.3377
16369TIP3   OH270521   1.027   2.141  12.520  0.0616  0.5942 -0.3004
16369TIP3    H170522   0.976   2.065  12.492  1.7300 -0.3867 -0.8067
16369TIP3    H270523   0.969   2.189  12.578 -2.9175  1.7382 -3.9899
16370TIP3   OH270524   4.339   6.441  16.774 -0.5651 -0.6812  0.1310
16370TIP3    H170525   4.400   6.373  16.799  0.4766  0.3040  0.3094
16370TIP3    H270526   4.271   6.438  16.841  1.3550  0.8528  2.2124
16371TIP3   OH270527   2.039   4.367  16.534  0.1454  0.7392  0.3201
16371TIP3    H170528   2.116   4.347  16.481 -1.2959 -2.5718 -0.6416
16371TIP3    H270529   1.971   4.388  16.470 -0.9539 -0.8932  0.9139
16372TIP3   OH270530   4.626   1.781  13.397 -0.4683 -0.3285 -0.5545
16372TIP3    H170531   4.667   1.727  13.329  1.0414 -1.0288  0.8817
16372TIP3    H270532   4.574   1.720  13.448 -1.3620  0.1506 -0.8731
16373TIP3   OH270533   4.098   1.112  16.762  0.0742 -0.2530 -0.6117
16373TIP3    H170534   4.058   1.121  16.675 -1.4321 -0.9213 -0.0030
16373TIP3    H270535   4.142   1.196  16.777  0.0152  0.0106 -1.8592
16374TIP3   OH270536   6.030   3.250  12.865  0.1618 -0.4578  0.6698
16374TIP3    H170537   6.123   3.231  12.879  0.2395 -1.4992 -1.1423
16374TIP3    H270538   6.028   3.343  12.846  0.7523 -0.3061  1.2843
16375TIP3   OH270539   1.314   4.020   2.362  0.2973  0.1385  0.5760
16375TIP3    H170540   1.301   4.010   2.268  1.3530  1.6865  0.2475
16375TIP3    H270541   1.303   3.932   2.397 -0.0010 -0.4711 -1.0119
16376TIP3   OH270542   0.539   6.760  14.089 -0.1272  0.1349  0.2426
16376TIP3    H170543   0.563   6.812  14.012  0.5585 -0.9517 -0.2813
16376TIP3    H270544   0.619   6.714  14.114 -0.7080 -0.6156  0.7517
16377TIP3   OH270545   5.529   5.441  17.216  0.4612 -0.2069 -0.3057
16377TIP3    H170546   5.464   5.419  17.283 -1.0327  0.9106 -1.3321
16377TIP3    H270547   5.502   5.390  17.140  0.8494  0.1820 -0.7076
16378TIP3   OH270548   4.277   2.471  16.647 -0.6403  0.1069  0.0223
16378TIP3    H170549   4.284   2.565  16.632  0.6243 -0.1648 -1.2696
16378TIP3    H270550   4.247   2.436  16.564 -0.7657 -0.6756  0.3937
16379TIP3   OH270551   6.689   6.542  12.453 -0.3736  0.4187 -0.2863
16379TIP3    H170552   6.645   6.562  12.536 -0.1496  1.7137 -0.4779
16379TIP3    H270553   6.781   6.559  12.471 -0.2879  0.3858 -0.7074
16380TIP3   OH270554   4.339   4.978  14.499 -0.3578  0.6659  0.5227
16380TIP3    H170555   4.344   5.017  14.412 -2.6635  0.6652  0.3478
16380TIP3    H270556   4.401   5.027  14.551 -1.2390  2.7722 -0.3614
16381TIP3   OH270557   5.117   5.181  13.042  0.0922  0.1739 -0.0601
16381TIP3    H170558   5.066   5.256  13.074  0.7375  0.4468  0.3373
16381TIP3    H270559   5.161   5.213  12.964  1.5559  0.6628  0.9627
16382TIP3   OH270560   4.527   0.544   0.249 -0.1004  0.3788  0.7986
16382TIP3    H170561   4.569   0.627   0.228  0.2429 -0.3417 -1.4473
16382TIP3    H270562   4.599   0.483   0.261 -0.4211 -0.8319 -2.9430
16383TIP3   OH270563   0.221   3.877  17.075  0.4367  0.4959  0.2477
16383TIP3    H170564   0.132   3.847  17.060  0.9431 -1.4455  0.8979
16383TIP3    H270565   0.217   3.924  17.159  0.1775 -0.3807  0.7372
16384TIP3   OH270566   1.897   5.199   1.493 -0.6284 -0.0941  0.0080
16384TIP3    H170567   1.957   5.208   1.419 -0.9854  1.9247 -0.0738
16384TIP3    H270568   1.954   5.191   1.570 -0.2101  1.7504 -0.0760
16385TIP3   OH270569   4.187   3.156   4.963 -0.6108 -0.4603 -0.6617
16385TIP3    H170570   4.201   3.249   4.942  1.3797 -0.9547 -1.6733
16385TIP3    H270571   4.093   3.143   4.951 -0.6983  1.0987 -1.9280
16386TIP3   OH270572   6.508   5.497   1.568  0.1587  0.1448  0.1360
16386TIP3    H170573   6.579   5.558   1.589 -0.5659  0.8573  0.5961
16386TIP3    H270574   6.543   5.411   1.588  1.2602  0.3945 -0.6652
16387TIP3   OH270575   2.162   5.938   1.698  0.1658  0.4230 -0.2355
16387TIP3    H170576   2.215   6.018   1.695  1.1139 -0.2243 -1.1571
16387TIP3    H270577   2.080   5.965   1.740 -0.5120  2.4099 -2.7484
16388TIP3   OH270578   1.230   3.692  13.964  0.4095 -0.5915 -0.3399
16388TIP3    H170579   1.269   3.607  13.947 -0.5024 -1.0735 -0.0383
16388TIP3    H270580   1.155   3.674  14.020 -0.7930  0.2299 -1.6555
16389TIP3   OH270581   1.161   1.653  16.694 -0.1663  0.0111  0.6162
16389TIP3    H170582   1.208   1.599  16.757 -0.7416  1.7467  2.6217
16389TIP3    H270583   1.119   1.720  16.748  0.3072  2.2812 -1.7440
16390TIP3   OH270584   5.619   1.201   0.477 -0.1215 -0.3504  0.3600
16390TIP3    H170585   5.640   1.134   0.541 -1.0166 -0.5774  0.4109
16390TIP3    H270586   5.526   1.218   0.488 -0.8730 -2.2423 -2.6060
16391TIP3   OH270587   6.019   4.893  14.164  0.5629  0.3176  0.1992
16391TIP3    H170588   5.932   4.867  14.192  1.2110 -0.6120  1.3991
16391TIP3    H270589   6.006   4.931  14.077 -0.6238 -2.9278 -1.1342
16392TIP3   OH270590   0.694   0.976  17.085 -0.1313 -0.1432  0.1109
16392TIP3    H170591   0.749   0.921  17.030 -1.2022 -1.5947  0.4384
16392TIP3    H270592   0.666   1.047  17.028  2.1364  0.6601 -0.0258
16393TIP3   OH270593   4.053   5.655   5.816  0.6134  0.1977  0.3601
16393TIP3    H170594   3.994   5.585   5.789 -0.3742  0.6556  1.3114
16393TIP3    H270595   4.134   5.610   5.840  0.8301 -0.3852 -1.4401
16394TIP3   OH270596   0.738   4.158   2.099  0.2235 -0.0913  0.1638
16394TIP3    H170597   0.698   4.242   2.078 -0.2030 -0.1751  0.6507
16394TIP3    H270598   0.811   4.151   2.037 -0.4752  0.0807 -0.6875
16395TIP3   OH270599   5.467   0.760  11.356 -0.4136  0.8274  0.1617
16395TIP3    H170600   5.514   0.684  11.321 -0.6026  0.3375  0.9485
16395TIP3    H270601   5.502   0.770  11.445 -2.0712  0.2158  0.9006
16396TIP3   OH270602   6.210   6.004  12.144  0.6453 -0.3457 -0.0448
16396TIP3    H170603   6.260   6.083  12.164 -0.9508  0.3640  1.3094
16396TIP3    H270604   6.233   5.943  12.214 -1.4713  0.5227  1.4759
16397TIP3   OH270605   5.087   1.469  15.570  0.3627 -0.5211 -0.1032
16397TIP3    H170606   5.041   1.395  15.531  1.5963 -3.1279  3.2065
16397TIP3    H270607   5.180   1.445  15.565  0.6414 -0.2164  2.8764
16398TIP3   OH270608   6.760   1.826  13.134 -0.1433 -0.2107 -0.2125
16398TIP3    H170609   6.757   1.887  13.061 -1.4375 -1.3992 -1.1552
16398TIP3    H270610   6.752   1.740  13.095  0.8032 -0.9668  1.1896
16399TIP3   OH270611   6.747   3.477   3.432 -0.9553  0.0037  0.0390
16399TIP3    H170612   6.678   3.520   3.482 -1.2354 -0.4789  0.0636
16399TIP3    H270613   6.819   3.467   3.495 -1.1470 -0.2058  0.2236
16400TIP3   OH270614   0.306   3.580  15.274 -0.3476  0.6562 -0.4216
16400TIP3    H170615   0.288   3.671  15.297 -0.1630  0.9763 -1.5300
16400TIP3    H270616   0.220   3.539  15.271 -0.5096  1.0179 -0.8368
16401TIP3   OH270617   3.118   2.813   4.956 -0.1176  0.2258  0.8932
16401TIP3    H170618   3.138   2.785   5.045 -0.8687 -2.2775  0.3122
16401TIP3    H270619   3.038   2.863   4.963  0.9085  1.7509  1.8845
16402TIP3   OH270620   0.672   2.954   5.423 -0.5763  0.4361 -1.0724
16402TIP3    H170621   0.762   2.931   5.399 -0.4613  0.4146 -0.6351
16402TIP3    H270622   0.683   3.018   5.494 -0.9208 -0.8889  0.1899
16403TIP3   OH270623   2.921   5.752  13.214  0.7433 -0.0225 -0.5629
16403TIP3    H170624   2.899   5.662  13.192 -0.8387  0.0040  0.8254
16403TIP3    H270625   2.924   5.797  13.130  0.4979 -1.1373 -1.1806
16404TIP3   OH270626   3.810   6.259  12.401  0.3715 -0.2974 -0.1604
16404TIP3    H170627   3.889   6.303  12.372  0.5650 -1.1924 -1.0365
16404TIP3    H270628   3.752   6.329  12.430  0.6157  0.5376 -1.6519
16405TIP3   OH270629   5.648   2.564  13.051  0.1330 -0.6383  0.1180
16405TIP3    H170630   5.743   2.571  13.040  0.1026  0.4425  0.4983
16405TIP3    H270631   5.636   2.539  13.142  0.0986 -2.3110 -0.3242
16406TIP3   OH270632   3.381   6.340  15.287 -0.0784 -0.2859  0.1902
16406TIP3    H170633   3.328   6.307  15.215  0.4763 -0.0038 -0.3501
16406TIP3    H270634   3.421   6.420  15.252  0.3867 -0.2848  0.7310
16407TIP3   OH270635   2.599   2.680   6.405 -0.2243 -0.2140  0.6718
16407TIP3    H170636   2.687   2.686   6.367  1.2862  1.2397  4.2266
16407TIP3    H270637   2.587   2.587   6.422  0.5084 -0.4484 -0.0220
16408TIP3   OH270638   3.392   0.066   5.468 -0.7313 -0.2567 -0.5622
16408TIP3    H170639   3.471   0.079   5.415 -1.7075 -0.1166 -2.0058
16408TIP3    H270640   3.361   0.155   5.487 -2.2843 -0.3061 -2.6769
16409TIP3   OH270641   5.327   6.150  13.882  0.2424 -0.1707  0.0402
16409TIP3    H170642   5.312   6.060  13.855 -1.3526  0.0840 -0.0078
16409TIP3    H270643   5.240   6.183  13.903  0.6575  1.7163 -1.0988
16410TIP3   OH270644   4.325   2.308  16.941  0.1518  0.2187 -0.0789
16410TIP3    H170645   4.335   2.383  16.882 -1.2335 -0.0898 -0.7220
16410TIP3    H270646   4.336   2.346  17.029  0.3412  1.0148 -0.4393
16411TIP3   OH270647   6.559   4.929   1.284  0.3106 -0.4032 -0.1491
16411TIP3    H170648   6.643   4.911   1.242 -0.1621 -0.7913 -0.9259
16411TIP3    H270649   6.514   4.844   1.285  0.0931 -0.2829  0.6359
16412TIP3   OH270650   3.715   1.506  11.010  0.4289 -0.6542  0.2495
16412TIP3    H170651   3.774   1.454  10.956 -0.8351 -0.2779 -1.5141
16412TIP3    H270652   3.753   1.594  11.009  0.7140 -0.7757  0.4337
16413TIP3   OH270653   0.804   0.669   0.332  0.8019  0.0906  0.3434
16413TIP3    H170654   0.886   0.650   0.287 -0.0079 -4.2322  0.3911
16413TIP3    H270655   0.738   0.665   0.263  0.5615  3.5228  0.3084
16414TIP3   OH270656   4.061   5.155  15.195 -0.8058 -0.3205  0.1183
16414TIP3    H170657   4.035   5.232  15.144  0.1892 -0.4162 -0.5485
16414TIP3    H270658   4.151   5.173  15.222 -0.3158 -1.5423 -0.6383
16415TIP3   OH270659   1.353   4.418  13.795 -0.2380  0.0412 -0.3734
16415TIP3    H170660   1.368   4.411  13.701 -0.2489 -1.7466 -0.2643
16415TIP3    H270661   1.316   4.334  13.820 -2.1516  1.2153  0.8947
16416TIP3   OH270662   1.744   2.427   2.035 -0.2850 -0.0934  0.1777
16416TIP3    H170663   1.706   2.359   2.091 -2.5423 -0.0526 -1.2499
16416TIP3    H270664   1.692   2.505   2.053  1.2209  0.8242  0.5788
16417TIP3   OH270665   3.284   6.342   3.858  0.0253 -0.3992  0.2374
16417TIP3    H170666   3.371   6.307   3.878 -0.0787 -0.9057 -0.1743
16417TIP3    H270667   3.224   6.292   3.914  0.0040 -0.0087  0.5657
16418TIP3   OH270668   1.991   2.039  14.186 -0.5145 -0.0293 -0.0155
16418TIP3    H170669   1.928   2.058  14.256  0.2751 -0.0201  0.7055
16418TIP3    H270670   1.983   1.944  14.172 -0.2461 -0.1412  0.5308
16419TIP3   OH270671   3.982   4.073   2.895 -0.6116  0.0597 -0.0497
16419TIP3    H170672   3.987   3.979   2.911  0.6689 -0.3170 -2.3877
16419TIP3    H270673   3.927   4.081   2.817  1.0882  1.0751 -1.1688
16420TIP3   OH270674   0.866   4.503  10.462 -0.3111 -0.1835 -0.0998
16420TIP3    H170675   0.954   4.525  10.493  0.1572 -1.2989 -0.6437
16420TIP3    H270676   0.879   4.463  10.376 -1.3095 -0.8723  0.0565
16421TIP3   OH270677   5.439   0.314  15.333 -0.0842  0.2212  0.4256
16421TIP3    H170678   5.404   0.231  15.365 -1.9523  0.7255 -0.2601
16421TIP3    H270679   5.482   0.292  15.250 -0.6854 -0.0379  0.1829
16422TIP3   OH270680   2.001   2.833   2.897 -0.0933  0.0435 -0.7148
16422TIP3    H170681   1.969   2.918   2.869  0.7676  0.4130 -0.5874
16422TIP3    H270682   2.091   2.849   2.925  0.3277 -1.0513 -1.4184
16423TIP3   OH270683   4.198   2.036  14.300 -0.6766  0.0236 -0.5428
16423TIP3    H170684   4.208   1.942  14.308 -1.6957  0.0763  1.7574
16423TIP3    H270685   4.124   2.048  14.240  0.4688 -0.5884 -2.1034
16424TIP3   OH270686   5.742   4.752   3.714  0.2874 -0.5808  0.5517
16424TIP3    H170687   5.661   4.734   3.760 -1.3561  0.3635 -1.8584
16424TIP3    H270688   5.750   4.848   3.716  1.4529 -0.6733  0.9398
16425TIP3   OH270689   6.570   6.648  13.747  0.5201  0.0878 -0.5049
16425TIP3    H170690   6.518   6.597  13.809 -0.0453  2.1168  0.7363
16425TIP3    H270691   6.661   6.625  13.767  0.2400 -1.4890 -0.9342
16426TIP3   OH270692   2.721   5.523   3.187 -0.3357  0.7226  0.0521
16426TIP3    H170693   2.753   5.608   3.156 -0.2678  0.8742  0.5362
16426TIP3    H270694   2.792   5.462   3.167 -1.9594 -0.0268 -4.0723
16427TIP3   OH270695   6.293   0.045   0.731  0.7666  0.2408 -0.3060
16427TIP3    H170696   6.345   0.116   0.693 -2.1715  2.3927 -0.4171
16427TIP3    H270697   6.306   0.055   0.826  1.7544 -0.1815 -0.3923
16428TIP3   OH270698   5.309   5.365  11.386  1.0445  0.0691  0.1835
16428TIP3    H170699   5.257   5.329  11.315  2.2279  0.4102 -0.8646
16428TIP3    H270700   5.400   5.350  11.360  1.4874 -0.4962  1.9677
16429TIP3   OH270701   3.396   2.914   4.511 -0.2457  0.1081  0.1981
16429TIP3    H170702   3.478   2.901   4.462 -0.9999 -1.5150 -0.6420
16429TIP3    H270703   3.389   2.837   4.567 -1.1035  0.3501  0.4219
16430TIP3   OH270704   3.109   3.271  16.147 -0.3357 -0.4212  0.0534
16430TIP3    H170705   3.064   3.327  16.085  0.6750 -0.7340 -0.9789
16430TIP3    H270706   3.124   3.189  16.100 -0.3760 -0.9907  1.0161
16431TIP3   OH270707   1.462   0.330  13.840 -0.4174 -0.3311 -0.0361
16431TIP3    H170708   1.540   0.356  13.890 -1.0905  0.1663  0.7653
16431TIP3    H270709   1.491   0.330  13.749  0.5749 -0.3326  0.2771
16432TIP3   OH270710   0.055   3.103   0.039  0.3091 -0.1887  1.1147
16432TIP3    H170711  -0.006   3.048  -0.011  1.1066 -0.4385  0.4152
16432TIP3    H270712   0.080   3.172  -0.022 -0.6379  0.9350  1.9739
16433TIP3   OH270713   1.021   0.596  16.063  1.0157  0.3714 -0.1435
16433TIP3    H170714   1.001   0.568  16.153  1.0395  1.1583  0.1110
16433TIP3    H270715   1.115   0.612  16.063  0.8200  1.5639  0.0277
16434TIP3   OH270716   5.201   3.997   0.579 -0.0315  0.6113 -0.5492
16434TIP3    H170717   5.196   4.074   0.523 -0.7443 -0.0914 -1.4845
16434TIP3    H270718   5.171   4.027   0.665  0.9121  1.6611 -0.5652
16435TIP3   OH270719   6.286   2.133   1.003 -0.6847  0.6799 -0.3904
16435TIP3    H170720   6.353   2.174   0.947 -0.2727 -0.4802 -0.7486
16435TIP3    H270721   6.239   2.074   0.944 -0.9489  0.2517  0.2537
16436TIP3   OH270722   2.473   2.276   1.652 -0.3092  0.2589  0.1589
16436TIP3    H170723   2.393   2.296   1.604 -0.7441 -0.9325  0.3753
16436TIP3    H270724   2.543   2.296   1.590 -0.7873  0.8350 -0.2011
16437TIP3   OH270725   6.283   3.502  10.871  0.2786  0.0047  0.3026
16437TIP3    H170726   6.285   3.583  10.923 -1.0843  1.0070 -1.1370
16437TIP3    H270727   6.252   3.530  10.785  0.1330 -2.0110 -0.3274
16438TIP3   OH270728   6.345   0.553  15.576 -0.6161  0.1327 -0.0534
16438TIP3    H170729   6.265   0.597  15.606 -0.7433  0.2141 -0.5148
16438TIP3    H270730   6.322   0.515  15.491  1.0731  3.8975 -2.3336
16439TIP3   OH270731   2.851   5.922  15.705 -0.7232  0.1467  0.4153
16439TIP3    H170732   2.801   5.981  15.649 -0.4368 -0.2674 -0.2788
16439TIP3    H270733   2.847   5.837  15.661  1.2246  0.2638 -0.0635
16440TIP3   OH270734   1.635   5.111  14.756  1.0439  0.3578  0.3589
16440TIP3    H170735   1.619   5.148  14.843 -1.0611  0.3119  0.0019
16440TIP3    H270736   1.668   5.023  14.774  0.6280  0.3514  1.1076
16441TIP3   OH270737   4.410   5.349   1.978 -0.0030  0.7020 -0.4162
16441TIP3    H170738   4.383   5.357   1.887  0.0200 -0.0434 -0.4914
16441TIP3    H270739   4.398   5.437   2.015 -3.2481  0.2717 -0.2627
16442TIP3   OH270740   3.569   3.126  13.737 -0.3730  0.1762  0.0856
16442TIP3    H170741   3.529   3.121  13.824  0.0772  0.2316  0.2959
16442TIP3    H270742   3.496   3.150  13.679 -0.3370  1.9242  0.7139
16443TIP3   OH270743   5.173   0.275  11.287  0.0328 -0.4499 -0.2286
16443TIP3    H170744   5.120   0.231  11.353 -1.1334  0.8335 -0.2880
16443TIP3    H270745   5.250   0.305  11.334 -1.7084  2.2206  1.0498
16444TIP3   OH270746   3.073   6.293   1.263 -0.7076  0.0425 -0.2590
16444TIP3    H170747   3.075   6.251   1.177  0.4045  1.8020 -1.1319
16444TIP3    H270748   3.092   6.223   1.325 -2.3709 -1.4061 -1.3793
16445TIP3   OH270749   5.946   1.238   5.274  0.2691 -0.5489 -0.0171
16445TIP3    H170750   5.929   1.281   5.191 -1.1462 -1.0928 -0.0132
16445TIP3    H270751   5.875   1.268   5.332  0.5486 -1.1350  0.6324
16446TIP3   OH270752   1.629   3.209  14.364 -0.1018 -0.0908 -0.7576
16446TIP3    H170753   1.617   3.149  14.290 -1.3927  0.0135 -0.6562
16446TIP3    H270754   1.599   3.158  14.440 -2.1973  1.0124 -0.8127
16447TIP3   OH270755   5.402   5.707   5.927  0.1227 -0.3306  0.5699
16447TIP3    H170756   5.387   5.634   5.986 -0.1200 -0.7150  0.0348
16447TIP3    H270757   5.495   5.703   5.906 -0.0448 -0.9609 -0.0769
16448TIP3   OH270758   0.271   2.590  11.897 -0.7066 -0.3954  0.0551
16448TIP3    H170759   0.360   2.555  11.898 -0.7375 -0.4630  0.6809
16448TIP3    H270760   0.250   2.599  11.804  0.7748  1.7220 -0.1085
16449TIP3   OH270761   6.479   4.111  14.200  0.1838  0.7624  0.0727
16449TIP3    H170762   6.502   4.127  14.291  0.4689  2.2055 -0.2338
16449TIP3    H270763   6.561   4.083  14.159  0.1480  0.5080  0.1793
16450TIP3   OH270764   4.641   5.992  11.980 -0.4923 -0.3339 -0.1551
16450TIP3    H170765   4.728   5.956  11.996 -0.6719 -0.7471 -0.1083
16450TIP3    H270766   4.592   5.920  11.941  0.3118  1.0140 -3.9079
16451TIP3   OH270767   5.883   1.576  13.844  0.1926  0.6533  0.2132
16451TIP3    H170768   5.964   1.623  13.863  1.8827 -2.7886  2.0665
16451TIP3    H270769   5.816   1.624  13.893  1.0967  3.4235 -1.1634
16452TIP3   OH270770   5.517   2.770   0.419  0.3445 -0.1451 -0.7950
16452TIP3    H170771   5.502   2.734   0.331 -0.1613 -0.4925 -0.5643
16452TIP3    H270772   5.537   2.693   0.473 -0.7834 -0.0861 -0.2892
16453TIP3   OH270773   3.634   6.012  16.152  0.1110 -0.4261  0.2418
16453TIP3    H170774   3.658   6.105  16.159  0.4159 -0.4043 -1.0221
16453TIP3    H270775   3.715   5.965  16.170  0.2155 -0.4210 -0.2021
16454TIP3   OH270776   2.105   6.601  13.125  0.6762  0.1545  0.1352
16454TIP3    H170777   2.145   6.542  13.189  1.3268  3.0509  2.5208
16454TIP3    H270778   2.020   6.561  13.105  0.8579 -1.2782  2.1047
16455TIP3   OH270779   0.722   1.057   5.854 -0.2634 -0.0744  0.1524
16455TIP3    H170780   0.736   1.086   5.944  0.1072 -2.4504  0.9005
16455TIP3    H270781   0.652   1.113   5.822  1.2692  2.4750  1.0682
16456TIP3   OH270782   0.972   2.491   1.425 -0.2037 -0.1456  0.7685
16456TIP3    H170783   1.016   2.411   1.455  0.5545 -0.3047 -0.7400
16456TIP3    H270784   1.023   2.562   1.463 -0.0936 -0.3580  1.0235
16457TIP3   OH270785   6.703   2.917  13.736 -1.1543 -0.2325 -0.4541
16457TIP3    H170786   6.651   2.885  13.810  1.0449  1.3051  1.8354
16457TIP3    H270787   6.754   2.841  13.708 -2.7056 -1.0738 -1.0620
16458TIP3   OH270788   1.047   1.464   4.646  0.0991 -0.2984 -0.4008
16458TIP3    H170789   1.056   1.410   4.567 -1.5944  1.1908 -1.6332
16458TIP3    H270790   0.955   1.491   4.647  0.4894  1.0655  1.1945
16459TIP3   OH270791   2.103   1.510  14.153  0.0318  0.2367 -0.2822
16459TIP3    H170792   2.140   1.430  14.191 -1.5243 -1.2742 -1.8054
16459TIP3    H270793   2.089   1.568  14.228  0.2097 -1.3242  0.9975
16460TIP3   OH270794   5.095   6.075   2.899 -0.3389 -0.6507 -0.5559
16460TIP3    H170795   5.138   6.159   2.882 -0.9443 -0.6173 -2.0192
16460TIP3    H270796   5.003   6.097   2.909 -0.6325 -1.2272 -1.8508
16461TIP3   OH270797   4.754   5.778   4.377  0.1129  0.2692 -0.9852
16461TIP3    H170798   4.687   5.788   4.309  0.2629 -0.4014 -1.2395
16461TIP3    H270799   4.706   5.788   4.459 -0.6151 -1.7610 -1.1253
16462TIP3   OH270800   2.872   0.538   4.299  0.1108  0.5386  0.2620
16462TIP3    H170801   2.805   0.515   4.235  0.3256 -0.0338  0.2400
16462TIP3    H270802   2.823   0.561   4.378 -0.0889 -0.5394  0.4533
16463TIP3   OH270803   0.433   6.723  15.840 -0.2524 -0.2925  0.6500
16463TIP3    H170804   0.455   6.630  15.840  0.7624 -0.0640  1.1563
16463TIP3    H270805   0.386   6.737  15.922 -0.1652 -0.3101  0.7042
16464TIP3   OH270806   5.092   1.012  16.120 -0.1269 -0.2754 -0.0002
16464TIP3    H170807   5.123   1.075  16.184 -2.2652  0.0414  0.7708
16464TIP3    H270808   5.152   1.021  16.046 -0.5455  2.8490 -0.0025
16465TIP3   OH270809   6.662   3.334   5.916  0.1108  0.0840  0.2517
16465TIP3    H170810   6.752   3.336   5.947  0.2012  1.4553 -0.0987
16465TIP3    H270811   6.668   3.307   5.824  0.2333  1.1154 -0.0409
16466TIP3   OH270812   4.334   4.826   3.487 -0.5148  0.0496  0.5455
16466TIP3    H170813   4.358   4.907   3.532 -1.2771 -0.8756  2.6961
16466TIP3    H270814   4.396   4.819   3.415  0.5211  1.7780  1.2370
16467TIP3   OH270815   3.049   6.474  15.091  0.5118  0.1112  0.0238
16467TIP3    H170816   2.989   6.447  15.021  0.0214  0.6513  0.2246
16467TIP3    H270817   3.005   6.446  15.172  1.1592 -0.6677  0.1044
16468TIP3   OH270818   0.666   0.467  13.364 -0.7217  0.0600  0.0940
16468TIP3    H170819   0.627   0.384  13.336  2.6715 -0.9715 -1.8724
16468TIP3    H270820   0.733   0.442  13.427 -1.5107  1.5610  1.5483
16469TIP3   OH270821   4.826   1.602  16.380  0.3131 -0.3138 -0.4344
16469TIP3    H170822   4.782   1.651  16.449  0.4861  2.9261 -2.5071
16469TIP3    H270823   4.798   1.511  16.393  0.1148  0.2625  3.6316
16470TIP3   OH270824   5.146   0.062   5.312  0.0912  0.0100  0.2573
16470TIP3    H170825   5.183  -0.026   5.319 -1.1754 -0.7646 -2.2174
16470TIP3    H270826   5.214   0.113   5.267  1.1811  0.5506  2.4678
16471TIP3   OH270827   4.581   4.410   0.677 -0.4293 -0.5622 -0.2302
16471TIP3    H170828   4.571   4.470   0.750 -1.0752 -0.5228 -0.3486
16471TIP3    H270829   4.588   4.323   0.718 -0.9751 -0.5600 -0.1304
16472TIP3   OH270830   1.633   3.995   5.376  0.1006  0.3173  0.0039
16472TIP3    H170831   1.589   3.997   5.461 -0.1406  1.4204 -0.1381
16472TIP3    H270832   1.561   3.987   5.312  0.3704 -2.4093 -0.0430
16473TIP3   OH270833   3.180   3.868   1.731 -0.0094 -0.0068  0.0012
16473TIP3    H170834   3.232   3.879   1.651 -0.3143  0.7480 -0.1001
16473TIP3    H270835   3.225   3.799   1.780 -0.7979 -1.7314 -1.6249
16474TIP3   OH270836   4.154   4.712   1.751  0.2721  0.1441  0.0413
16474TIP3    H170837   4.121   4.802   1.757 -3.5158 -1.2688  2.2660
16474TIP3    H270838   4.147   4.678   1.840  0.5248 -2.6918 -0.9823
16475TIP3   OH270839   5.201   4.825   5.847 -0.4885 -0.1468  0.3280
16475TIP3    H170840   5.296   4.839   5.847 -0.2943 -1.0268  3.3317
16475TIP3    H270841   5.168   4.885   5.915 -1.9682 -0.4643 -0.0954
16476TIP3   OH270842   6.180   0.963   3.295 -0.1746  0.3534  0.8518
16476TIP3    H170843   6.169   0.924   3.208  3.0377 -0.1825  0.6264
16476TIP3    H270844   6.180   0.888   3.355  0.4864  0.4685  0.9997
16477TIP3   OH270845   1.351   6.588  16.571  0.1028  0.0936 -0.2973
16477TIP3    H170846   1.342   6.655  16.639 -0.0622  1.3012 -1.4811
16477TIP3    H270847   1.327   6.507  16.615  1.3363  0.6236  1.4600
16478TIP3   OH270848   0.626   5.290   6.268  0.0041 -0.8720  0.2988
16478TIP3    H170849   0.648   5.333   6.350 -1.0239 -0.8905  0.5895
16478TIP3    H270850   0.531   5.296   6.262 -0.0234 -1.8145 -0.3727
16479TIP3   OH270851   4.536   0.070  13.095  0.0263  0.0055  0.3318
16479TIP3    H170852   4.582  -0.004  13.055 -0.5988 -0.5082  0.5584
16479TIP3    H270853   4.465   0.091  13.034 -1.2323 -1.0993  1.3880
16480TIP3   OH270854   6.663   4.839  10.815  0.3710 -0.1790 -0.3778
16480TIP3    H170855   6.706   4.876  10.737  0.0721 -0.5640 -0.7298
16480TIP3    H270856   6.727   4.777  10.849  1.9925  2.5575  1.7676
16481TIP3   OH270857   1.857   0.716   3.536  0.5159 -1.0756 -0.0243
16481TIP3    H170858   1.826   0.711   3.445 -0.5245  1.2661  0.1559
16481TIP3    H270859   1.799   0.658   3.585 -0.7203 -0.2208 -0.4333
16482TIP3   OH270860   0.905   3.262  12.768  0.3102 -0.8621  0.3463
16482TIP3    H170861   0.948   3.301  12.844 -0.3431  0.0599  0.2659
16482TIP3    H270862   0.814   3.251  12.796  0.3601 -1.7579  0.1468
16483TIP3   OH270863   3.863   0.720  11.870  0.4883  0.3228  0.3677
16483TIP3    H170864   3.795   0.663  11.834  3.1107 -2.6531 -0.0921
16483TIP3    H270865   3.888   0.776  11.796  0.3676 -0.4033 -0.2411
16484TIP3   OH270866   3.598   0.948  12.665  0.1595 -0.4028 -0.6670
16484TIP3    H170867   3.559   0.982  12.745  0.5451  2.1780 -1.5374
16484TIP3    H270868   3.527   0.948  12.601  0.7210  0.9711 -1.2977
16485TIP3   OH270869   6.054   6.053  14.427 -0.0421  0.0458 -0.5172
16485TIP3    H170870   6.046   6.063  14.332 -2.1073 -1.4862 -0.5509
16485TIP3    H270871   6.133   6.102  14.450  0.0808  1.0469 -2.9171
16486TIP3   OH270872   0.633   1.130  14.763  0.5749  0.7732  0.3930
16486TIP3    H170873   0.601   1.095  14.846  1.1530 -0.2161  0.2072
16486TIP3    H270874   0.575   1.204  14.744 -1.5207 -0.8914  0.1227
16487TIP3   OH270875   1.871   6.380  11.671  0.1428 -0.2648 -0.2484
16487TIP3    H170876   1.798   6.435  11.642  0.0468  0.8373  2.0030
16487TIP3    H270877   1.849   6.292  11.638 -1.6097  0.2875 -0.6062
16488TIP3   OH270878   3.665   6.779  11.208  0.1737  0.0867  0.3085
16488TIP3    H170879   3.609   6.721  11.258  0.4378  0.4619  1.0431
16488TIP3    H270880   3.638   6.766  11.117  0.1747 -1.1049  0.4775
16489TIP3   OH270881   6.292   5.627   0.764  0.4652  0.3065  0.4885
16489TIP3    H170882   6.276   5.611   0.857 -0.7731 -1.2243  0.0256
16489TIP3    H270883   6.217   5.681   0.736 -0.6748 -1.6090 -0.2457
16490TIP3   OH270884   2.183   3.107  12.474  0.3220 -0.0483  0.2218
16490TIP3    H170885   2.186   3.199  12.448 -1.6939  0.1470  0.5613
16490TIP3    H270886   2.251   3.098  12.540 -0.6092  1.6483  1.4663
16491TIP3   OH270887   1.307   6.450   5.480 -0.3110 -0.9167 -0.1484
16491TIP3    H170888   1.324   6.467   5.388  1.4063  0.5201  0.4109
16491TIP3    H270889   1.393   6.455   5.522 -1.4195  1.4501  1.9703
16492TIP3   OH270890   4.780   0.354   0.204  0.2064 -0.1735  0.5901
16492TIP3    H170891   4.823   0.439   0.210  0.5042 -0.4522  2.8406
16492TIP3    H270892   4.845   0.297   0.163  0.0282  0.6348 -0.8732
16493TIP3   OH270893   0.098   0.304   5.999 -0.0236 -0.4596 -0.0496
16493TIP3    H170894   0.070   0.333   6.086  0.1577 -1.2189  0.2619
16493TIP3    H270895   0.171   0.245   6.015 -0.9916 -1.8507 -0.6128
16494TIP3   OH270896   2.183   3.825  15.237  0.1090 -0.2195 -0.1377
16494TIP3    H170897   2.115   3.887  15.212 -0.9829 -2.1140 -2.0673
16494TIP3    H270898   2.195   3.839  15.331 -1.5542  1.4852 -0.1608
16495TIP3   OH270899   4.030   2.995  12.415  0.1849  0.3877 -0.0305
16495TIP3    H170900   4.024   3.045  12.334 -0.3092 -0.0159 -0.2413
16495TIP3    H270901   3.940   2.986  12.446  0.4163  1.0609  0.8864
16496TIP3   OH270902   6.592   4.188  16.179 -0.4482  0.4791 -0.1945
16496TIP3    H170903   6.514   4.243  16.183 -1.0010 -0.3362  0.2085
16496TIP3    H270904   6.563   4.106  16.141 -0.0187 -0.2121  0.9499
16497TIP3   OH270905   2.242   2.549   5.117  0.3331  0.3350  0.3699
16497TIP3    H170906   2.327   2.521   5.150  0.6628  1.0116  0.0917
16497TIP3    H270907   2.180   2.486   5.154  0.6261  1.3643  2.6678
16498TIP3   OH270908   5.826   3.478   2.892  0.3545 -0.4588  0.6723
16498TIP3    H170909   5.850   3.570   2.878 -0.2637 -0.5309 -0.8940
16498TIP3    H270910   5.907   3.437   2.921  0.6399  0.5723  1.3888
16499TIP3   OH270911   2.657   1.623   1.392 -0.0326 -0.1994  0.2339
16499TIP3    H170912   2.701   1.560   1.449  2.2678  0.0746 -1.1784
16499TIP3    H270913   2.646   1.701   1.447 -0.2248 -0.8152  1.0818
16500TIP3   OH270914   5.272   5.394  14.427 -0.0323 -0.3566 -0.3155
16500TIP3    H170915   5.256   5.340  14.505  0.4036 -1.1624 -0.7704
16500TIP3    H270916   5.336   5.343  14.376  4.4040  2.9119  1.6385
16501TIP3   OH270917   4.787   1.397   5.177 -0.6752 -0.0308 -0.0208
16501TIP3    H170918   4.741   1.371   5.256  0.0418 -0.2677  0.3265
16501TIP3    H270919   4.867   1.439   5.209 -1.0770  1.2130 -0.5904
16502TIP3   OH270920   0.734   2.747   5.980 -0.1812 -0.3764  0.0208
16502TIP3    H170921   0.706   2.835   6.004  3.1506  0.1118  2.5760
16502TIP3    H270922   0.737   2.747   5.885 -0.7428  2.1032 -0.0236
16503TIP3   OH270923   5.094   5.949   1.847 -0.6070 -0.4910 -0.2292
16503TIP3    H170924   5.011   5.919   1.811 -0.7218 -1.8021  1.0663
16503TIP3    H270925   5.079   6.040   1.871 -1.2117 -0.2822 -1.3817
16504TIP3   OH270926   4.165   1.320  12.810 -0.2748  0.0268  0.4798
16504TIP3    H170927   4.114   1.330  12.729  1.0932  1.4908 -0.2255
16504TIP3    H270928   4.126   1.383  12.871 -1.0572 -0.8033  0.8518
16505TIP3   OH270929   3.321   3.694   1.875 -0.1548 -0.3769 -0.3639
16505TIP3    H170930   3.338   3.656   1.961 -0.0844  0.3090 -0.0711
16505TIP3    H270931   3.392   3.661   1.820 -0.6360 -1.4408 -0.3592
16506TIP3   OH270932   2.991   3.355   1.163 -0.5819  0.0833  0.0088
16506TIP3    H170933   2.965   3.442   1.192  0.4005  0.8008 -1.2177
16506TIP3    H270934   3.027   3.314   1.241 -3.0407 -0.0417  1.1369
16507TIP3   OH270935   6.200   0.007  10.912  0.0341 -0.1817 -0.6001
16507TIP3    H170936   6.119  -0.042  10.923 -0.4698  0.8304  0.2799
16507TIP3    H270937   6.211   0.014  10.817 -0.8598 -0.4033 -0.7245
16508TIP3   OH270938   5.785   3.636  15.829 -0.0384 -0.3796 -0.2657
16508TIP3    H170939   5.716   3.603  15.771 -1.3552  0.3619  0.8637
16508TIP3    H270940   5.769   3.730  15.835 -0.1770 -0.5080  1.6448
16509TIP3   OH270941   6.058   6.025   2.959 -0.0841 -0.1706  0.2386
16509TIP3    H170942   6.072   6.031   3.053 -1.2589  1.8506  0.3022
16509TIP3    H270943   5.967   5.997   2.950 -0.4953  1.2893 -0.2920
16510TIP3   OH270944   6.163   3.629   3.301  0.3274  0.5163 -0.3148
16510TIP3    H170945   6.110   3.606   3.378  1.1588 -0.1513  0.0723
16510TIP3    H270946   6.207   3.710   3.326  3.1035 -1.3759  1.2101
16511TIP3   OH270947   0.951   2.672   0.479 -0.1983 -0.1201 -0.2266
16511TIP3    H170948   0.869   2.642   0.439  0.1208  0.0193 -0.9751
16511TIP3    H270949   0.997   2.718   0.409  0.5710 -0.2921  0.1681
16512TIP3   OH270950   4.702   6.103  14.752  0.6765  0.3044 -0.1614
16512TIP3    H170951   4.730   6.133  14.665 -1.1715 -0.3175 -0.9877
16512TIP3    H270952   4.666   6.016  14.738  0.0348  0.3360  1.1728
16513TIP3   OH270953   2.072   3.556   2.928  0.5341  0.0760  0.4261
16513TIP3    H170954   2.057   3.642   2.890  2.4368  0.8017  1.2644
16513TIP3    H270955   2.167   3.544   2.924  0.1364 -2.9068 -1.6440
16514TIP3   OH270956   5.163   6.498   4.786 -0.2522  0.1117  0.2700
16514TIP3    H170957   5.190   6.427   4.845 -1.0536 -0.4664 -0.0407
16514TIP3    H270958   5.078   6.526   4.820  0.2174  1.1541  0.5847
16515TIP3   OH270959   2.162   3.634  15.615 -0.0297 -0.2549  0.1897
16515TIP3    H170960   2.210   3.696  15.671  0.8672 -0.4945 -0.2950
16515TIP3    H270961   2.075   3.672  15.605  0.5026  0.8992 -0.0816
16516TIP3   OH270962   4.438   4.725  13.465 -0.3330  0.4309 -0.5589
16516TIP3    H170963   4.357   4.775  13.460  0.2111  1.5256  1.1423
16516TIP3    H270964   4.411   4.634  13.457 -1.6312  0.8358 -0.8243
16517TIP3   OH270965   2.061   3.727  17.069 -0.3762  0.1034  0.4815
16517TIP3    H170966   2.044   3.814  17.033  0.0436  0.5355  1.3147
16517TIP3    H270967   2.046   3.668  16.995 -0.8724  0.8590 -0.0353
16518TIP3   OH270968   4.031   4.432   3.499 -0.2000  0.6035  0.5147
16518TIP3    H170969   4.040   4.468   3.587 -0.9415 -1.8103  1.6142
16518TIP3    H270970   4.035   4.508   3.442 -2.2012  2.4768  2.7822
16519TIP3   OH270971   0.591   5.375   3.923  0.2948  0.5742 -0.2478
16519TIP3    H170972   0.630   5.451   3.880  0.9145 -0.9977 -2.5717
16519TIP3    H270973   0.650   5.302   3.901 -0.6346 -0.6953  1.3520
16520TIP3   OH270974   1.394   6.599   0.280 -0.1401 -0.0913  0.8339
16520TIP3    H170975   1.485   6.614   0.257 -0.5003  1.3898  0.3470
16520TIP3    H270976   1.346   6.669   0.235 -1.6470 -1.5818  0.0480
16521TIP3   OH270977   0.608   3.759   5.695 -0.5013  0.4007  0.4058
16521TIP3    H170978   0.568   3.678   5.726 -2.0812  1.3527  0.9052
16521TIP3    H270979   0.535   3.810   5.660  0.8044  0.6712 -2.0341
16522TIP3   OH270980   3.608   0.858   5.944 -0.1750 -0.4725  0.0677
16522TIP3    H170981   3.518   0.826   5.936 -1.0268  1.2583  2.1451
16522TIP3    H270982   3.649   0.800   6.007 -0.5562  0.1409  0.8911
16523TIP3   OH270983   2.489   2.464  13.418  1.3392 -0.2525 -0.8125
16523TIP3    H170984   2.424   2.534  13.409 -0.7792 -2.2898 -1.7415
16523TIP3    H270985   2.514   2.467  13.511 -0.3746  0.3344 -0.3466
16524TIP3   OH270986   6.288   0.552  14.394 -0.0752  0.0824 -0.3530
16524TIP3    H170987   6.288   0.647  14.381  1.2124  0.0989 -0.3687
16524TIP3    H270988   6.361   0.520  14.340  0.6383 -0.6948  1.0133
16525TIP3   OH270989   2.765   5.818  12.940  0.1884 -0.0712  0.6365
16525TIP3    H170990   2.850   5.855  12.916  0.1768  0.5840  1.5735
16525TIP3    H270991   2.717   5.891  12.980  0.1451 -1.0851  2.4937
16526TIP3   OH270992   2.647   2.766   1.131  0.0626 -0.0847 -0.7830
16526TIP3    H170993   2.637   2.688   1.186 -1.6752  0.0509 -0.8822
16526TIP3    H270994   2.581   2.756   1.062  0.8634  0.7305 -1.6857
16527TIP3   OH270995   0.867   5.506   0.050  0.0845 -0.1817 -0.0270
16527TIP3    H170996   0.889   5.578  -0.010 -1.5163  0.5852  0.2754
16527TIP3    H270997   0.771   5.506   0.054  0.0577 -2.3799 -0.0536
16528TIP3   OH270998   0.963   1.156   5.764 -0.0680 -0.3008 -0.1161
16528TIP3    H170999   0.882   1.123   5.804  0.3747 -2.5799 -1.0444
16528TIP3    H271000   0.993   1.224   5.825 -2.4126  0.2681  0.4864
16529TIP3   OH271001   1.807   3.198  15.091  0.3674 -0.5435 -0.4741
16529TIP3    H171002   1.850   3.257  15.152 -2.3791  0.0609  0.9909
16529TIP3    H271003   1.828   3.232  15.005  1.2948  0.7791  0.2573
16530TIP3   OH271004   1.713   5.505  13.428  0.0030  0.1117  0.4435
16530TIP3    H171005   1.775   5.578  13.427 -1.8933  1.7885  1.2971
16530TIP3    H271006   1.731   5.457  13.348  2.8430  0.1720  0.9792
16531TIP3   OH271007   5.177   4.612   3.261  0.1991 -0.5331 -0.0215
16531TIP3    H171008   5.241   4.604   3.332 -1.5626 -1.9449  1.4722
16531TIP3    H271009   5.125   4.532   3.267 -1.9536  0.7479 -0.9524
16532TIP3   OH271010   4.689   6.475  17.135 -0.5658 -0.3122 -0.5123
16532TIP3    H171011   4.662   6.560  17.100 -1.9954  0.0551  1.3959
16532TIP3    H271012   4.715   6.493  17.225 -0.3005 -1.7978 -0.2730
16533TIP3   OH271013   0.823   2.102   2.020  0.0673  0.2674  0.7424
16533TIP3    H171014   0.863   2.047   2.088 -0.3954  0.4142  1.1404
16533TIP3    H271015   0.745   2.054   1.994  0.1632  0.2877  0.4193
16534TIP3   OH271016   0.799   0.267  11.957  0.2975  0.2731  0.0328
16534TIP3    H171017   0.852   0.200  11.914  1.1687  0.9405  0.0590
16534TIP3    H271018   0.840   0.349  11.933 -0.8796  0.8206 -0.1466
16535TIP3   OH271019   1.244   6.539  15.834  0.2365 -0.1017  0.5990
16535TIP3    H171020   1.339   6.550  15.842  0.4618  1.2202 -3.0385
16535TIP3    H271021   1.209   6.628  15.847 -0.4789 -0.4619  1.1931
16536TIP3   OH271022   2.426   5.082   4.008 -0.3540  0.3422 -0.3801
16536TIP3    H171023   2.361   5.123   3.951  2.1989  2.0094 -2.1867
16536TIP3    H271024   2.434   5.144   4.081 -2.3059 -0.9207  0.9640
16537TIP3   OH271025   3.060   2.044  11.451 -0.4769 -0.1143  0.0199
16537TIP3    H171026   2.966   2.046  11.431 -0.4928  0.1235  0.1256
16537TIP3    H271027   3.089   2.134  11.441 -0.4782  0.0084  1.0559
16538TIP3   OH271028   5.347   3.924  13.836  0.9188 -0.3523  0.3569
16538TIP3    H171029   5.439   3.949  13.824  1.2373 -1.8569 -0.3071
16538TIP3    H271030   5.298   3.996  13.797  1.7906  0.8714  1.4581
16539TIP3   OH271031   0.713   6.460   1.948  0.3834  0.0160  0.0493
16539TIP3    H171032   0.662   6.413   1.882  0.9648 -0.1438 -0.2876
16539TIP3    H271033   0.743   6.539   1.903  2.0842 -0.8439 -0.3587
16540TIP3   OH271034   2.510   5.651  15.222  0.1710 -0.0167 -0.0719
16540TIP3    H171035   2.605   5.653  15.239 -0.0321  1.1853  0.9708
16540TIP3    H271036   2.498   5.572  15.168  1.9223  0.4530 -1.2159
16541TIP3   OH271037   1.970   1.721  10.349 -0.1513 -0.8245  0.7155
16541TIP3    H171038   1.940   1.806  10.317 -0.6523 -1.2153  0.1295
16541TIP3    H271039   1.939   1.716  10.440 -1.2654 -0.9331  0.3291
16542TIP3   OH271040   6.539   5.741  14.529 -0.1001 -0.4472 -0.3589
16542TIP3    H171041   6.535   5.793  14.610  2.8654 -0.1411 -0.3434
16542TIP3    H271042   6.499   5.658  14.552  0.4553 -0.2647  1.3742
16543TIP3   OH271043   3.109   1.862   4.858 -0.6377  0.3168 -0.0236
16543TIP3    H171044   3.193   1.842   4.818 -0.7016  0.1693 -0.0861
16543TIP3    H271045   3.063   1.778   4.861 -1.0313  0.5157 -0.5752
16544TIP3   OH271046   4.546   5.612  10.695 -0.1799 -0.2809  0.4339
16544TIP3    H171047   4.518   5.521  10.697 -2.1605  0.2816 -0.5949
16544TIP3    H271048   4.498   5.654  10.767 -0.1798  0.1862  0.1681
16545TIP3   OH271049   3.307   3.816   3.801 -0.0753  0.0645 -0.3305
16545TIP3    H171050   3.246   3.799   3.729 -3.5631 -0.6761  2.6465
16545TIP3    H271051   3.322   3.910   3.799 -0.5979  0.1244 -1.6501
16546TIP3   OH271052   3.061   5.779   4.261  0.3073  0.0221  0.5826
16546TIP3    H171053   3.099   5.754   4.345  2.4457  1.2906  0.0231
16546TIP3    H271054   3.095   5.715   4.199  1.1674  0.8737  0.1657
16547TIP3   OH271055   2.618   5.929   0.887  0.0214  0.3850 -0.2992
16547TIP3    H171056   2.655   5.858   0.834  0.0766  1.0542 -1.1558
16547TIP3    H271057   2.619   5.894   0.976 -0.1779 -0.7848 -0.7453
16548TIP3   OH271058   4.933   4.913   3.470  0.5613  0.2136 -0.6181
16548TIP3    H171059   4.974   4.915   3.556  1.2116  0.4283 -0.9290
16548TIP3    H271060   5.000   4.878   3.412  0.4137  0.8705 -1.1912
16549TIP3   OH271061   4.034   2.722  11.103 -0.3977  0.0341 -0.0219
16549TIP3    H171062   4.053   2.811  11.133 -0.8792  1.0125 -2.5010
16549TIP3    H271063   4.113   2.694  11.058 -0.9491 -0.0054 -0.9860
16550TIP3   OH271064   4.718   3.503  15.078 -0.2144  0.3490 -0.6307
16550TIP3    H171065   4.694   3.595  15.088  2.3445  1.3633 -3.1130
16550TIP3    H271066   4.654   3.468  15.017 -2.9490 -0.3436  2.5065
16551TIP3   OH271067   2.478   2.359  15.156 -0.5873  0.0107  0.2323
16551TIP3    H171068   2.424   2.387  15.082  0.1249 -0.6449 -0.5579
16551TIP3    H271069   2.529   2.437  15.179 -1.3771  0.4407  0.5479
16552TIP3   OH271070   5.147   3.780   0.260 -0.2166  0.6802 -0.0020
16552TIP3    H171071   5.093   3.715   0.215  0.5542 -0.2814  0.4401
16552TIP3    H271072   5.087   3.852   0.278 -0.7139  0.7887 -1.9228
16553TIP3   OH271073   6.167   0.093   5.789  0.1929 -0.1157  0.3230
16553TIP3    H171074   6.229   0.021   5.779 -0.5278 -0.8823  1.3527
16553TIP3    H271075   6.207   0.151   5.853  0.5962  0.2185 -0.2255
16554TIP3   OH271076   5.217   2.406   0.051 -0.0931 -0.3101 -0.1308
16554TIP3    H171077   5.228   2.450  -0.033 -0.0182 -0.4558 -0.1989
16554TIP3    H271078   5.123   2.407   0.066  0.1382  2.5730  1.3368
16555TIP3   OH271079   4.318   3.095   1.784  0.2578 -0.3024 -0.1477
16555TIP3    H171080   4.227   3.066   1.777  1.0753 -3.2339  0.8722
16555TIP3    H271081   4.318   3.154   1.860 -0.9672  0.4524 -0.7255
16556TIP3   OH271082   2.591   1.080   0.095 -0.4296  0.2547  0.3001
16556TIP3    H171083   2.591   1.042   0.007  0.7687 -1.7332  1.1222
16556TIP3    H271084   2.657   1.149   0.092  1.2970 -1.3491  0.2253
16557TIP3   OH271085   0.251   6.097  14.541 -0.2891 -0.3533  0.0664
16557TIP3    H171086   0.312   6.112  14.614  0.6621 -1.7269 -0.4351
16557TIP3    H271087   0.230   6.004  14.546 -1.8369 -0.0388 -0.1919
16558TIP3   OH271088   2.321   3.525  11.479  0.5441  0.3330  0.6192
16558TIP3    H171089   2.306   3.590  11.411  0.4414  1.6873  1.9140
16558TIP3    H271090   2.416   3.518  11.485  0.5558 -0.9186 -0.6987
16559TIP3   OH271091   0.670   4.414  16.066 -0.1994 -0.2567  0.3053
16559TIP3    H171092   0.640   4.328  16.038 -1.3030  0.4502 -0.7315
16559TIP3    H271093   0.606   4.442  16.132 -0.5970  0.3239 -0.3196
16560TIP3   OH271094   1.182   6.732   0.084  0.3281  0.3208 -0.0123
16560TIP3    H171095   1.124   6.801   0.113 -0.1022 -0.6322  1.4597
16560TIP3    H271096   1.124   6.660   0.059  0.8293 -0.3587  0.7403
16561TIP3   OH271097   4.151   0.468   0.521 -0.4133  0.5858 -0.2845
16561TIP3    H171098   4.073   0.460   0.467 -1.1621  1.2408  0.6856
16561TIP3    H271099   4.212   0.520   0.469 -0.8511  0.5922 -0.7894
16562TIP3   OH271100   2.623   0.808  13.987 -0.3958  0.4613 -0.4550
16562TIP3    H171101   2.685   0.743  13.952 -0.6494 -0.2514  0.3931
16562TIP3    H271102   2.537   0.777  13.957 -0.5424  0.2471  0.1688
16563TIP3   OH271103   5.826   0.122  10.270  0.1805  0.4524  0.3573
16563TIP3    H171104   5.787   0.067  10.202 -2.1824  2.1369  0.3134
16563TIP3    H271105   5.902   0.162  10.228 -1.8543  2.2975 -1.6794
16564TIP3   OH271106   2.537   0.399   1.936  0.1646  0.0447 -0.1909
16564TIP3    H171107   2.543   0.409   2.031  0.5646  0.3733 -0.2448
16564TIP3    H271108   2.499   0.313   1.922  0.2683 -0.0725  0.2676
16565TIP3   OH271109   1.718   1.488   0.027  0.0840 -0.5139  0.0703
16565TIP3    H171110   1.638   1.534   0.047 -0.9100 -1.5157 -1.4481
16565TIP3    H271111   1.760   1.540  -0.042  1.4643  0.7596  1.8311
16566TIP3   OH271112   4.932   2.187   2.447 -0.3104 -0.4659 -0.3824
16566TIP3    H171113   4.964   2.103   2.416  1.0805 -0.1475  0.1214
16566TIP3    H271114   4.983   2.204   2.526  1.5828  2.2072 -2.0842
16567TIP3   OH271115   5.400   3.898   0.833  0.3120 -0.1728  0.4465
16567TIP3    H171116   5.307   3.882   0.850  0.9765 -1.7243  2.9157
16567TIP3    H271117   5.406   3.993   0.822 -1.5897 -0.0777  0.0604
16568TIP3   OH271118   3.461   5.449  11.588  0.4658 -0.9146 -0.0057
16568TIP3    H171119   3.521   5.523  11.580 -0.1845 -0.4431 -0.4763
16568TIP3    H271120   3.519   5.374  11.603  1.0946 -0.2495  0.9065
16569TIP3   OH271121   2.240   2.371  15.360  0.3168 -0.2632 -0.3160
16569TIP3    H171122   2.183   2.442  15.330  0.1358  0.3773  1.4544
16569TIP3    H271123   2.328   2.399  15.334  0.0921 -0.0778 -0.8881
16570TIP3   OH271124   3.216   5.009  13.664 -0.2403 -0.9423  0.2300
16570TIP3    H171125   3.130   5.049  13.648 -0.8427 -2.2989 -0.0351
16570TIP3    H271126   3.270   5.081  13.697 -1.1832  0.1624 -0.5863
16571TIP3   OH271127   1.009   1.362   0.007 -0.0895  0.3592  0.0663
16571TIP3    H171128   0.936   1.399   0.056 -1.0602 -0.2598 -0.8846
16571TIP3    H271129   1.045   1.294   0.064 -0.7005  0.1854  0.2415
16572TIP3   OH271130   2.937   6.199  13.861  0.0411 -0.3218 -0.4554
16572TIP3    H171131   2.937   6.193  13.766  2.3488  1.5088 -0.6168
16572TIP3    H271132   2.928   6.292  13.879 -0.8079 -0.6994  1.1454
16573TIP3   OH271133   4.890   4.444   6.322 -0.1459  0.2802  0.0651
16573TIP3    H171134   4.938   4.419   6.243 -2.2711 -0.6467 -0.9475
16573TIP3    H271135   4.864   4.535   6.307  1.7379  0.9987  0.8800
16574TIP3   OH271136   2.252   6.447  13.316 -0.0254  0.8373  0.5261
16574TIP3    H171137   2.265   6.352  13.309 -0.6822  0.7602  0.2715
16574TIP3    H271138   2.318   6.476  13.379 -1.1140 -0.0877  2.1183
16575TIP3   OH271139   2.264   3.999   5.571 -0.9869 -0.4963  0.0171
16575TIP3    H171140   2.229   4.056   5.502 -1.3518  0.6147  1.0970
16575TIP3    H271141   2.292   3.920   5.525  0.8320  1.1064 -1.7063
16576TIP3   OH271142   3.220   2.927   1.960 -0.0793 -0.5112 -0.0281
16576TIP3    H171143   3.236   2.950   2.052 -1.8852 -0.7692  0.3705
16576TIP3    H271144   3.169   3.001   1.926  2.0985  0.4322 -1.3375
16577TIP3   OH271145   4.154   6.608  11.495  0.0883 -0.4025 -0.2627
16577TIP3    H171146   4.248   6.595  11.483 -0.2322 -1.8379 -1.2979
16577TIP3    H271147   4.141   6.702  11.480  1.3777 -0.1561  0.0814
16578TIP3   OH271148   6.710   0.023   4.791 -0.5361 -0.3665 -0.1589
16578TIP3    H171149   6.763   0.009   4.870  0.4487  1.5881 -0.4456
16578TIP3    H271150   6.644  -0.046   4.794 -0.8419 -0.0021  2.6698
16579TIP3   OH271151   4.881   2.193   5.444 -0.2783 -0.2790 -0.5481
16579TIP3    H171152   4.934   2.121   5.479 -0.4159 -0.9217 -1.6194
16579TIP3    H271153   4.898   2.191   5.349 -1.0528  0.4659 -0.7091
16580TIP3   OH271154   2.408   2.651   1.574 -0.0143 -0.0804  0.5344
16580TIP3    H171155   2.433   2.612   1.657 -0.8334  0.9816  1.3003
16580TIP3    H271156   2.369   2.579   1.524  0.2400 -0.6593  1.1692
16581TIP3   OH271157   4.424   1.886  10.686  0.1421  0.0017 -1.1689
16581TIP3    H171158   4.456   1.878  10.596  0.2922  0.4875 -1.1559
16581TIP3    H271159   4.329   1.882  10.678  0.1364  0.5150 -1.3963
16582TIP3   OH271160   2.076   6.091   4.720 -0.7873  0.2765  0.2110
16582TIP3    H171161   2.082   6.183   4.745  1.9277  0.5581 -1.2585
16582TIP3    H271162   2.135   6.047   4.781  1.7795  0.2480 -2.1885
16583TIP3   OH271163   2.212   3.846   2.634 -0.3428  0.2044 -0.2432
16583TIP3    H171164   2.122   3.833   2.604 -0.4366  0.5523 -0.1225
16583TIP3    H271165   2.265   3.841   2.555 -0.7194  2.4623 -0.6973
16584TIP3   OH271166   4.538   1.152  11.637 -1.0637  0.0128  0.7738
16584TIP3    H171167   4.573   1.118  11.554 -2.8005 -0.4588  0.2128
16584TIP3    H271168   4.583   1.235  11.649 -0.5707 -0.0536 -0.5077
16585TIP3   OH271169   2.533   0.478   4.775 -0.0968  0.1979 -0.0766
16585TIP3    H171170   2.581   0.561   4.768 -2.2753  1.4324 -0.5986
16585TIP3    H271171   2.462   0.486   4.711 -0.6588 -1.8529  0.2713
16586TIP3   OH271172   3.070   5.479   4.803  0.1998  0.1847 -0.1889
16586TIP3    H171173   3.149   5.494   4.750  0.8934  0.1679  0.8143
16586TIP3    H271174   3.080   5.540   4.877 -0.6579  0.0710  0.0213
16587TIP3   OH271175   6.291   3.842  16.249 -0.1343  0.6674  0.0067
16587TIP3    H171176   6.248   3.757  16.255  0.6924  0.2833  0.6566
16587TIP3    H271177   6.228   3.898  16.203 -1.3684  0.1545  1.0433
16588TIP3   OH271178   2.135   6.257  11.504 -0.0478  0.5107 -0.7163
16588TIP3    H171179   2.152   6.172  11.544 -1.2363  0.0888 -1.0950
16588TIP3    H271180   2.108   6.313  11.577 -1.5598 -0.0789 -0.8056
16589TIP3   OH271181   0.243   1.877  14.561 -0.3351  0.2543 -0.5121
16589TIP3    H171182   0.227   1.910  14.473  1.3034  1.3698 -0.4146
16589TIP3    H271183   0.199   1.940  14.619 -1.0778 -0.2640 -0.5003
16590TIP3   OH271184   5.010   1.921   2.375  0.0471 -0.0302 -0.4590
16590TIP3    H171185   4.921   1.905   2.406  0.5681 -0.3555  0.9142
16590TIP3    H271186   5.035   1.840   2.331  0.4825 -0.7863  1.1608
16591TIP3   OH271187   0.436   0.465   3.270  0.2112  0.5805  0.0463
16591TIP3    H171188   0.433   0.401   3.341  1.4119 -1.7334 -1.9606
16591TIP3    H271189   0.464   0.546   3.314 -0.8449 -0.3320  2.5190
16592TIP3   OH271190   5.403   0.722   6.030 -0.2904  0.3183  0.4490
16592TIP3    H171191   5.378   0.644   6.078  1.6471 -0.4096  0.3342
16592TIP3    H271192   5.433   0.783   6.097  1.4637 -0.3282  0.2760
16593TIP3   OH271193   2.320   5.238  12.567 -0.3103  0.3166 -0.3257
16593TIP3    H171194   2.372   5.176  12.620 -0.9077  0.6819  0.6960
16593TIP3    H271195   2.299   5.189  12.488 -0.2160 -0.5696  0.1865
16594TIP3   OH271196   1.457   6.583  12.174 -0.3022  0.4808 -0.0424
16594TIP3    H171197   1.535   6.580  12.229 -0.4959  1.7240  0.3195
16594TIP3    H271198   1.480   6.643  12.103  0.0122 -1.2600 -1.4361
16595TIP3   OH271199   3.842   5.601  14.144 -0.7306 -0.9050  0.4774
16595TIP3    H171200   3.909   5.670  14.144 -1.3296 -0.3071  0.0359
16595TIP3    H271201   3.849   5.561  14.058 -1.0967 -0.6757  0.3384
16596TIP3   OH271202   0.965   0.407  11.791 -0.1193 -0.4443  0.0485
16596TIP3    H171203   0.943   0.433  11.702 -1.0306 -0.2030  0.3339
16596TIP3    H271204   1.044   0.458  11.812  0.5656 -1.1007 -0.8905
16597TIP3   OH271205   5.119   5.274  17.150 -0.0818  0.0698 -0.3167
16597TIP3    H171206   5.147   5.282  17.241 -0.4471  0.0742 -0.2052
16597TIP3    H271207   5.153   5.353  17.108 -2.1854  1.4152  0.4143
16598TIP3   OH271208   4.362   5.259   4.317  0.6957 -0.2476 -1.0662
16598TIP3    H171209   4.286   5.243   4.373  2.2381 -0.9836  0.8481
16598TIP3    H271210   4.415   5.179   4.325  2.6856  1.0746 -0.7517
16599TIP3   OH271211   6.585   5.856   1.689  0.1833  0.0367  0.0065
16599TIP3    H171212   6.510   5.911   1.713  0.3240  0.6042 -0.8481
16599TIP3    H271213   6.561   5.769   1.720 -1.6865 -0.1948 -1.9600
16600TIP3   OH271214   4.000   5.363  14.696  0.0570 -0.3816 -0.0701
16600TIP3    H171215   4.006   5.350  14.602 -0.5684  0.0492 -0.1682
16600TIP3    H271216   4.059   5.436  14.714 -0.1243 -0.2116 -0.1759
16601TIP3   OH271217   3.297   3.643  15.557  0.9987 -0.1852  0.0085
16601TIP3    H171218   3.210   3.664  15.525  0.9548 -0.7385 -0.2432
16601TIP3    H271219   3.291   3.655  15.652  0.9804  0.9278 -0.1312
16602TIP3   OH271220   0.659   3.715  15.464 -0.2998  0.0418 -0.0959
16602TIP3    H171221   0.645   3.767  15.385 -1.9108 -0.3884 -0.1128
16602TIP3    H271222   0.592   3.647  15.461  1.1306 -1.3993  0.4677
16603TIP3   OH271223   2.682   2.212  13.771 -0.2357  0.1737 -0.1510
16603TIP3    H171224   2.620   2.280  13.747 -1.9361 -1.2007  0.2188
16603TIP3    H271225   2.630   2.148  13.820  2.0139  0.2565  2.4536
16604TIP3   OH271226   5.413   0.839  16.545  0.1669 -0.1937 -0.6968
16604TIP3    H171227   5.478   0.908  16.533  1.4561 -1.5655 -1.8778
16604TIP3    H271228   5.444   0.788  16.619  0.5291 -0.9197 -1.3325
16605TIP3   OH271229   3.732   2.030  11.070  0.8510 -1.5809  0.1658
16605TIP3    H171230   3.672   1.995  11.136  2.2877 -0.8551  1.9041
16605TIP3    H271231   3.675   2.058  10.999 -1.2044  1.5865  2.8927
16606TIP3   OH271232   0.785   1.978  12.481  0.1229  0.0691  1.4891
16606TIP3    H171233   0.723   1.977  12.554 -0.4769 -1.1928  0.9681
16606TIP3    H271234   0.860   1.929  12.513  0.0910  0.0049  1.4666
16607TIP3   OH271235   3.051   2.703   1.639 -0.3733  0.4128 -0.3632
16607TIP3    H171236   3.086   2.786   1.671 -0.9721  1.0685 -1.4178
16607TIP3    H271237   3.121   2.639   1.658 -0.4275  0.8925  1.6224
16608TIP3   OH271238   1.351   0.086   0.377 -0.2686  0.1211 -0.0461
16608TIP3    H171239   1.286   0.154   0.393 -0.5512 -0.2934  0.5615
16608TIP3    H271240   1.403   0.119   0.303 -0.7685  0.7314 -0.1227
16609TIP3   OH271241   3.197   5.275  12.608 -0.0343 -0.3530  0.1892
16609TIP3    H171242   3.164   5.185  12.604  0.1188 -0.3766 -0.4620
16609TIP3    H271243   3.241   5.280  12.693 -2.0043 -0.2291  1.2536
16610TIP3   OH271244   6.172   3.292   2.935 -0.2473 -0.0208  0.5273
16610TIP3    H171245   6.243   3.273   2.996 -0.3319  1.1131  0.9785
16610TIP3    H271246   6.163   3.387   2.937  0.6059  0.1751 -2.2054
16611TIP3   OH271247   5.300   4.187   3.290 -0.5325  0.0603 -0.2709
16611TIP3    H171248   5.395   4.200   3.296 -0.4627 -0.5856  0.0444
16611TIP3    H271249   5.270   4.190   3.380 -0.5892 -1.3871 -0.2340
16612TIP3   OH271250   0.376   5.308  12.944  0.2403 -0.2147 -0.3478
16612TIP3    H171251   0.372   5.286  13.037  1.6700 -1.7010 -0.6207
16612TIP3    H271252   0.405   5.227  12.901  0.7986  0.8107 -1.9454
16613TIP3   OH271253   3.119   3.565  12.824  0.1009  0.0317 -0.3467
16613TIP3    H171254   3.148   3.589  12.912  2.7761  0.3997 -1.2914
16613TIP3    H271255   3.073   3.642  12.791  0.7939  0.5834 -0.0064
16614TIP3   OH271256   3.362   2.903   4.850  0.3439  0.4996 -0.3599
16614TIP3    H171257   3.351   2.820   4.803  1.3323 -0.6547  1.4063
16614TIP3    H271258   3.280   2.913   4.900 -0.0504  0.9478 -1.0735
16615TIP3   OH271259   1.652   4.588   2.376 -0.1205  0.1709 -0.1347
16615TIP3    H171260   1.597   4.532   2.430  1.3213 -1.4136 -0.2803
16615TIP3    H271261   1.655   4.544   2.291  0.6680  0.7110 -0.3905
16616TIP3   OH271262   5.351   5.187   4.148 -0.2404  0.3315  0.0008
16616TIP3    H171263   5.346   5.145   4.063  2.1059  1.0555 -0.5168
16616TIP3    H271264   5.410   5.132   4.199 -1.0622  0.3027  0.9347
16617TIP3   OH271265   2.550   0.763  11.508  0.2046  0.1659 -0.3129
16617TIP3    H171266   2.643   0.771  11.486  0.1785  1.6699  0.0404
16617TIP3    H271267   2.530   0.844  11.556 -1.7179  0.7121 -1.9695
16618TIP3   OH271268   3.384   4.900  13.482  0.0819 -0.1785  0.0067
16618TIP3    H171269   3.386   4.923  13.389  0.5039 -0.6635 -0.1046
16618TIP3    H271270   3.308   4.946  13.517  1.9560  2.9619  0.1845
16619TIP3   OH271271   4.565   0.272  16.415  0.8187 -0.5811 -0.2500
16619TIP3    H171272   4.548   0.180  16.434  4.0325 -1.0811  0.5616
16619TIP3    H271273   4.578   0.312  16.501  2.9212 -0.1404 -0.7514
16620TIP3   OH271274   4.311   2.126  13.928  0.2576 -0.6622  0.3542
16620TIP3    H171275   4.330   2.180  13.851  2.6061 -1.0883  0.6115
16620TIP3    H271276   4.227   2.159  13.960 -0.7708 -0.5104 -2.3954
16621TIP3   OH271277   3.113   3.808  14.503  0.1122 -0.3588  0.6098
16621TIP3    H171278   3.049   3.848  14.561 -0.6612  0.3734 -0.7167
16621TIP3    H271279   3.139   3.879  14.444  1.7151 -0.7956  0.7603
16622TIP3   OH271280   4.336   5.126  17.071 -0.2902  0.0646 -0.0031
16622TIP3    H171281   4.305   5.082  17.150 -1.0535 -0.9049 -0.8179
16622TIP3    H271282   4.340   5.056  17.005  0.9560  0.7259 -0.6525
16623TIP3   OH271283   2.300   6.437   6.435 -0.6744 -0.4477 -0.2754
16623TIP3    H171284   2.258   6.502   6.491  0.8646  0.9090 -0.6613
16623TIP3    H271285   2.259   6.448   6.349  0.2732  0.6944 -0.5868
16624TIP3   OH271286   1.664   0.651   3.743 -0.0208 -0.0967 -0.3100
16624TIP3    H171287   1.595   0.712   3.719  0.5393  0.6485 -0.0569
16624TIP3    H271288   1.659   0.644   3.838 -0.4204 -0.8584 -0.3819
16625TIP3   OH271289   4.210   0.421   0.931  0.6681 -0.0227 -0.3720
16625TIP3    H171290   4.288   0.468   0.902  1.7659 -1.4380  0.2288
16625TIP3    H271291   4.139   0.486   0.924  2.0237  1.5214 -0.1324
16626TIP3   OH271292   3.560   0.625   5.732  0.6543 -0.4725  0.2813
16626TIP3    H171293   3.514   0.618   5.815  1.5133  1.4769  0.9542
16626TIP3    H271294   3.530   0.707   5.694  1.2054 -0.7340 -0.7494
16627TIP3   OH271295   4.598   6.655   2.116  0.1765  0.8416  0.6254
16627TIP3    H171296   4.588   6.707   2.196 -0.5725  0.2557  0.9111
16627TIP3    H271297   4.632   6.718   2.052  1.4245  1.1613  1.5626
16628TIP3   OH271298   2.999   4.727   3.081 -0.2280  0.3806  0.1198
16628TIP3    H171299   2.933   4.778   3.128 -1.2909 -1.6121  0.8811
16628TIP3    H271300   3.015   4.651   3.138  0.3887 -0.7575 -1.5416
16629TIP3   OH271301   2.952   4.235  11.132  0.4528 -0.0041  0.2505
16629TIP3    H171302   2.978   4.144  11.119 -2.0291 -0.5818 -0.9031
16629TIP3    H271303   3.022   4.285  11.089  1.0115 -1.4057 -0.5307
16630TIP3   OH271304   3.585   1.556  15.038 -0.1938 -0.5304  0.3435
16630TIP3    H171305   3.516   1.622  15.036  0.1748 -0.1640 -1.6185
16630TIP3    H271306   3.644   1.584  15.108 -0.5682  0.6715  0.1842
16631TIP3   OH271307   1.580   0.266   4.291 -0.2921  0.4797 -0.1237
16631TIP3    H171308   1.600   0.344   4.343  0.1114 -0.1099  0.6116
16631TIP3    H271309   1.663   0.242   4.250  0.2820 -1.2672  1.9791
16632TIP3   OH271310   1.154   2.252   5.656 -0.0036  0.8390  0.4157
16632TIP3    H171311   1.140   2.280   5.746 -0.2075 -2.9366  1.6488
16632TIP3    H271312   1.120   2.162   5.653  0.1059  0.8291 -3.3946
16633TIP3   OH271313   5.765   1.133  15.789  0.1216 -0.2169  0.3191
16633TIP3    H171314   5.751   1.188  15.866 -0.3374  0.0135  0.0743
16633TIP3    H271315   5.839   1.174  15.743 -0.5280  0.4712 -0.1134
16634TIP3   OH271316   2.631   6.687   5.594  0.8912 -0.3289  0.4577
16634TIP3    H171317   2.576   6.648   5.662  0.1472  0.6146  0.4068
16634TIP3    H271318   2.624   6.627   5.520 -0.4778  0.0568  0.2746
16635TIP3   OH271319   5.526   4.636   3.864  0.2133 -0.0787 -0.1768
16635TIP3    H171320   5.537   4.592   3.949  0.3134  1.0680  0.4173
16635TIP3    H271321   5.482   4.718   3.886  0.5508  0.3769 -1.2102
16636TIP3   OH271322   3.437   3.503  13.009  0.0173 -0.5617  0.3610
16636TIP3    H171323   3.495   3.500  13.085  0.3309 -0.7423  0.1152
16636TIP3    H271324   3.494   3.525  12.935 -0.5567  1.3744  0.4445
16637TIP3   OH271325   5.415   5.936  17.139 -0.7525 -0.6760  0.7693
16637TIP3    H171326   5.475   6.009  17.156  0.4037 -0.6561 -2.8805
16637TIP3    H271327   5.328   5.975  17.143 -0.1475  0.9685 -1.2124
16638TIP3   OH271328   3.412   6.572  12.621 -0.1556 -0.3227  0.2520
16638TIP3    H171329   3.434   6.612  12.706 -1.0834 -0.3805  0.5240
16638TIP3    H271330   3.318   6.560  12.625 -0.0874 -1.0638 -0.4799
16639TIP3   OH271331   5.104   0.907  12.665 -0.1641 -0.0840 -0.4281
16639TIP3    H171332   5.168   0.970  12.632  1.5003 -0.7986  1.3480
16639TIP3    H271333   5.156   0.840  12.708 -2.1221 -0.5518  1.3056
16640TIP3   OH271334   4.084   4.602  15.786 -0.6225  0.4235  0.2844
16640TIP3    H171335   4.031   4.523  15.799 -0.7797  0.3760 -0.6707
16640TIP3    H271336   4.140   4.605  15.864  0.1802 -1.2493 -0.1967
16641TIP3   OH271337   6.740   0.900   0.551  0.7589 -0.2703  0.3297
16641TIP3    H171338   6.663   0.895   0.608  0.3882  0.2253 -0.1127
16641TIP3    H271339   6.804   0.842   0.591  0.1333 -0.7236  0.6826
16642TIP3   OH271340   4.044   3.380  12.750  0.3871 -0.3465  0.3584
16642TIP3    H171341   4.099   3.319  12.799  1.2487 -0.4274 -0.6904
16642TIP3    H271342   4.017   3.331  12.673  0.3998  0.3251 -0.0777
16643TIP3   OH271343   2.008   3.029   0.707  0.5432 -0.4602  0.1470
16643TIP3    H171344   2.063   3.087   0.760 -0.0870 -0.6673  1.0334
16643TIP3    H271345   1.920   3.065   0.716  0.0740 -1.7824  1.0429
16644TIP3   OH271346   3.511   5.977   2.999 -0.3447 -0.4153 -0.1107
16644TIP3    H171347   3.520   6.058   2.949  0.1261 -1.4075 -1.6691
16644TIP3    H271348   3.449   5.998   3.068 -2.6119  0.4267 -2.3482
16645TIP3   OH271349   2.417   5.258  15.806 -0.0631 -0.0184  0.0233
16645TIP3    H171350   2.506   5.277  15.774  0.0774  0.5897  0.7632
16645TIP3    H271351   2.430   5.191  15.873 -0.3152 -0.9898 -0.8924
16646TIP3   OH271352   3.974   3.823  11.548  0.0855 -0.3612  0.0925
16646TIP3    H171353   4.023   3.904  11.534 -1.3487  0.2949 -1.1642
16646TIP3    H271354   4.034   3.768  11.599  1.3013  1.2415  0.4329
16647TIP3   OH271355   2.409   6.054  12.175  0.5456  0.2558  0.3980
16647TIP3    H171356   2.347   6.015  12.236 -0.0713 -1.3816 -1.2057
16647TIP3    H271357   2.391   6.148  12.178 -4.1151 -0.4021 -2.1987
16648TIP3   OH271358   2.249   2.549   2.937  0.6576  0.0610 -0.3094
16648TIP3    H171359   2.315   2.586   2.879 -2.4023  1.2804 -3.1520
16648TIP3    H271360   2.213   2.625   2.984 -0.8799 -0.1329 -1.1285
16649TIP3   OH271361   6.532   4.697  13.128 -0.2141  0.0706 -0.4497
16649TIP3    H171362   6.460   4.669  13.186 -0.3161 -2.2049 -1.6308
16649TIP3    H271363   6.489   4.753  13.063 -0.6996 -0.1968 -0.3669
16650TIP3   OH271364   3.245   6.091   4.505  0.7176  0.6833 -0.2651
16650TIP3    H171365   3.171   6.046   4.464 -0.4415  0.2310  2.2319
16650TIP3    H271366   3.316   6.027   4.503 -0.3423 -0.6048  1.4629
16651TIP3   OH271367   1.252   5.364   0.882  0.2205  0.3789  0.2925
16651TIP3    H171368   1.238   5.457   0.864  0.4226  0.0475 -1.6621
16651TIP3    H271369   1.215   5.319   0.806  0.4910 -1.1218  1.0394
16652TIP3   OH271370   6.057   3.677   2.135  0.4381 -0.6698 -0.2524
16652TIP3    H171371   6.080   3.680   2.228 -1.0196  0.8000  0.0897
16652TIP3    H271372   6.081   3.589   2.107  1.3173 -0.9850  1.4006
16653TIP3   OH271373   2.971   5.068  15.514 -0.7079  0.0077 -0.9618
16653TIP3    H171374   2.915   5.106  15.582  0.3626 -0.4535  0.2052
16653TIP3    H271375   2.996   5.143  15.460  0.7446  0.8955  0.8483
16654TIP3   OH271376   5.812   2.062  11.459  0.2597  0.0371  0.8103
16654TIP3    H171377   5.902   2.084  11.484  1.1227 -1.1320 -1.1818
16654TIP3    H271378   5.781   2.139  11.411  0.6536 -0.0762  0.3687
16655TIP3   OH271379   2.558   3.687   4.695  1.0297  0.6081  0.3051
16655TIP3    H171380   2.561   3.767   4.748 -0.3132  0.0321  1.2964
16655TIP3    H271381   2.556   3.616   4.760  1.6031 -0.1984 -0.5549
16656TIP3   OH271382   3.043   4.388  16.788 -0.0570  0.1831 -0.0367
16656TIP3    H171383   3.036   4.435  16.872  0.7157 -0.0301  0.1491
16656TIP3    H271384   3.106   4.440  16.737  0.2249 -0.2352 -0.1157
16657TIP3   OH271385   1.050   4.290  12.469  0.2060 -0.3844 -0.9139
16657TIP3    H171386   0.972   4.273  12.417  1.4049 -0.1469 -2.8438
16657TIP3    H271387   1.121   4.247  12.421  1.6284  1.3647 -0.4543
16658TIP3   OH271388   6.785   5.849  11.114  0.3939  0.6116 -0.3337
16658TIP3    H171389   6.735   5.769  11.128  1.8580 -0.0978  1.1069
16658TIP3    H271390   6.740   5.915  11.168  2.5641 -0.7122  3.3295
16659TIP3   OH271391   0.117   1.983  15.537  0.2117 -0.3986 -0.2326
16659TIP3    H171392   0.077   2.034  15.608  0.0883 -1.2441  0.3039
16659TIP3    H271393   0.211   1.985  15.556  0.1001 -1.3427  0.4270
16660TIP3   OH271394   4.351   5.881  11.847  0.7114  0.0746  0.0047
16660TIP3    H171395   4.310   5.905  11.930 -0.1672 -0.2972 -0.3170
16660TIP3    H271396   4.284   5.832  11.800  1.6853 -0.9364 -0.3487
16661TIP3   OH271397   5.125   2.828   1.884 -0.7295 -0.0245 -0.1431
16661TIP3    H171398   5.104   2.904   1.938  1.6710  0.6685 -0.1561
16661TIP3    H271399   5.106   2.753   1.939  0.0576  0.6522  1.0682
16662TIP3   OH271400   2.265   0.133  17.025 -0.1150  0.5869  0.1233
16662TIP3    H171401   2.194   0.197  17.037  0.3121  1.2238 -0.6358
16662TIP3    H271402   2.300   0.153  16.938 -0.3762 -1.1028 -0.3730
16663TIP3   OH271403   5.943   5.383  16.910 -0.5787  0.3011  0.0933
16663TIP3    H171404   5.969   5.467  16.948  0.8198 -0.8003  1.6520
16663TIP3    H271405   5.975   5.318  16.972  0.6759 -1.5363 -2.4124
16664TIP3   OH271406   6.718   6.342  12.956 -0.0312 -0.9359 -0.3571
16664TIP3    H171407   6.627   6.335  12.984 -0.1235  0.2328 -0.3552
16664TIP3    H271408   6.768   6.345  13.037 -0.3504  3.1807 -0.2291
16665TIP3   OH271409   0.737   1.652  15.137 -0.1918  0.2630  0.2065
16665TIP3    H171410   0.728   1.593  15.061 -1.6155 -1.3288  1.5729
16665TIP3    H271411   0.674   1.722  15.121 -0.7754 -0.2801  0.0993
16666TIP3   OH271412   0.869   3.900  14.784  0.1946 -0.6127  0.0306
16666TIP3    H171413   0.904   3.811  14.786 -0.3003 -0.8019  0.2841
16666TIP3    H271414   0.824   3.906  14.700  1.4991 -0.1077 -0.6525
16667TIP3   OH271415   0.161   2.750  15.974 -0.0096  0.0047  0.1636
16667TIP3    H171416   0.092   2.701  16.020  0.8900 -2.8658 -1.4476
16667TIP3    H271417   0.240   2.731  16.024 -0.3702  3.6293  2.2457
16668TIP3   OH271418   1.814   6.605  10.570 -0.3949  0.5141 -0.0740
16668TIP3    H171419   1.882   6.673  10.561 -0.3635  0.5867  0.7131
16668TIP3    H271420   1.862   6.523  10.562 -0.1613  0.5607  0.7871
16669TIP3   OH271421   0.108   1.000  11.257 -0.1330 -0.5120 -0.0685
16669TIP3    H171422   0.159   1.061  11.203  0.5692 -1.2923 -0.2927
16669TIP3    H271423   0.020   1.037  11.258  0.3565  0.6723  0.0429
16670TIP3   OH271424   5.757   4.368  11.789 -0.0795 -0.6066  0.3414
16670TIP3    H171425   5.813   4.294  11.814 -0.4380 -1.0058 -0.0272
16670TIP3    H271426   5.806   4.414  11.721  0.4943 -0.0463  1.1176
16671TIP3   OH271427   3.124   4.757   0.865  0.2386 -0.7758  0.1811
16671TIP3    H171428   3.217   4.761   0.845  0.0039 -2.0524 -1.2374
16671TIP3    H271429   3.108   4.834   0.920  1.2737  1.8342 -3.0208
16672TIP3   OH271430   2.334   1.536   3.665 -0.3470 -0.8662 -0.3935
16672TIP3    H171431   2.312   1.506   3.753  1.3398 -0.9876  0.0010
16672TIP3    H271432   2.395   1.470   3.632  0.1283 -0.0779 -1.1195
16673TIP3   OH271433   3.857   5.639   0.914  0.4390 -0.5731  0.4647
16673TIP3    H171434   3.918   5.680   0.852 -0.2619  2.4596  1.6749
16673TIP3    H271435   3.893   5.552   0.929  3.1637  0.2915 -0.6857
16674TIP3   OH271436   0.589   4.583  10.403 -0.0108  0.1020  0.2966
16674TIP3    H171437   0.528   4.515  10.432  0.8701 -0.5885  0.5445
16674TIP3    H271438   0.676   4.546  10.417  0.5116  1.5908  1.2244
16675TIP3   OH271439   5.500   0.323  14.615  0.0436 -0.3447  0.2820
16675TIP3    H171440   5.500   0.239  14.568 -1.7473  0.1384 -0.6132
16675TIP3    H271441   5.451   0.306  14.695  0.1912 -0.3018  0.3821
16676TIP3   OH271442   4.455   0.626   5.520  0.3126 -0.3941  0.2265
16676TIP3    H171443   4.536   0.639   5.469  0.8142  0.2390  1.1681
16676TIP3    H271444   4.407   0.558   5.472  1.2725 -0.5765 -0.4957
16677TIP3   OH271445   2.024   5.171  16.980  0.6540 -0.1700 -0.2929
16677TIP3    H171446   1.991   5.107  16.917  0.6606  0.5697 -1.0573
16677TIP3    H271447   1.971   5.157  17.059 -0.0497 -0.4039 -0.8009
16678TIP3   OH271448   1.280   1.069  15.336 -0.2840  0.7621  0.6410
16678TIP3    H171449   1.374   1.066  15.356 -0.1478  1.6206  0.1561
16678TIP3    H271450   1.267   1.154  15.294 -1.1265  0.2675 -0.1115
16679TIP3   OH271451   5.311   2.544   2.590 -0.6432  0.4911 -0.4112
16679TIP3    H171452   5.305   2.478   2.660  1.5356  0.3644 -0.3186
16679TIP3    H271453   5.386   2.599   2.615 -1.3806  1.9670 -1.3809
16680TIP3   OH271454   5.576   6.207   2.248  0.2875  0.5928 -0.0516
16680TIP3    H171455   5.664   6.172   2.235  0.5640  1.4900 -0.6436
16680TIP3    H271456   5.577   6.292   2.204 -1.1480  0.2157 -0.8650
16681TIP3   OH271457   5.547   1.795   0.996 -0.7394  0.3395  0.5760
16681TIP3    H171458   5.603   1.823   0.923 -1.5214  0.2151 -0.0675
16681TIP3    H271459   5.540   1.873   1.051  0.5158  0.2030  0.9501
16682TIP3   OH271460   4.047   1.180  14.834 -0.1868  0.1084  0.2742
16682TIP3    H171461   4.101   1.169  14.755  0.5213  0.0016  0.7658
16682TIP3    H271462   3.979   1.113  14.826  0.5763 -0.6887  0.3221
16683TIP3   OH271463   3.806   0.187   5.071 -0.1742  0.4088  0.1054
16683TIP3    H171464   3.878   0.250   5.073  0.2156 -0.0557  1.9420
16683TIP3    H271465   3.836   0.116   5.127 -1.3887 -0.5624 -0.4538
16684TIP3   OH271466   4.412   2.746   2.240 -0.0144  0.3893  0.0649
16684TIP3    H171467   4.477   2.709   2.300  0.2592 -0.1811 -0.5804
16684TIP3    H271468   4.455   2.748   2.155 -0.5654  0.7521 -0.2136
16685TIP3   OH271469   3.207   0.180  13.765  0.0505  0.2902  0.1437
16685TIP3    H171470   3.270   0.155  13.697  0.5673  0.3165  0.6073
16685TIP3    H271471   3.122   0.156  13.729  0.5638 -2.7894  0.8603
16686TIP3   OH271472   4.440   2.715   4.553 -0.0144 -0.1583  0.0603
16686TIP3    H171473   4.358   2.668   4.537 -1.7153  2.4371  0.7621
16686TIP3    H271474   4.456   2.763   4.471  0.8028 -0.6155 -0.0564
16687TIP3   OH271475   3.778   1.675   0.509 -0.3101 -0.5032  0.5732
16687TIP3    H171476   3.806   1.604   0.451 -0.7448 -1.4020  1.4440
16687TIP3    H271477   3.738   1.740   0.451 -1.8731 -1.9536 -0.0058
16688TIP3   OH271478   3.684   5.658  13.746 -0.4341 -0.4402 -0.1235
16688TIP3    H171479   3.608   5.716  13.736 -0.4054 -0.4435 -0.3705
16688TIP3    H271480   3.759   5.718  13.748 -0.4255 -0.4513 -0.0998
16689TIP3   OH271481   6.285   5.147  14.481 -0.0954  0.2337  0.3092
16689TIP3    H171482   6.298   5.216  14.546 -0.3944 -0.3293  0.9864
16689TIP3    H271483   6.298   5.066  14.530  0.6663 -0.1873 -0.5737
16690TIP3   OH271484   6.740   4.728   5.237  0.0172  0.4347  0.6861
16690TIP3    H171485   6.773   4.693   5.320  0.7022  2.5384  1.3560
16690TIP3    H271486   6.800   4.694   5.171  0.0596 -0.4584  1.1720
16691TIP3   OH271487   5.976   3.261  16.791  0.8728  0.6383 -0.0959
16691TIP3    H171488   5.928   3.237  16.712  1.4335  0.4967 -0.3931
16691TIP3    H271489   6.023   3.182  16.816  3.5055  1.6553 -1.6312
16692TIP3   OH271490   3.327   5.652   6.295 -0.1986 -0.2528  0.0766
16692TIP3    H171491   3.376   5.733   6.284 -2.2504  1.2782  1.7980
16692TIP3    H271492   3.334   5.608   6.210  1.2983  1.5276 -0.7437
16693TIP3   OH271493   6.367   6.635   2.072  0.6217 -0.0618  0.1306
16693TIP3    H171494   6.285   6.680   2.053  1.7387  2.0984  0.2470
16693TIP3    H271495   6.343   6.563   2.130 -0.9668  1.5918  1.5844
16694TIP3   OH271496   2.662   1.989   5.238  0.0954  0.0870 -0.1609
16694TIP3    H171497   2.705   1.908   5.265 -0.5843  0.2831  1.5913
16694TIP3    H271498   2.588   1.960   5.185  0.2519 -0.3965 -0.1184
16695TIP3   OH271499   4.293   3.009  12.298  0.3135  0.1598 -0.1078
16695TIP3    H171500   4.306   2.996  12.204  0.9344 -1.1549  0.1458
16695TIP3    H271501   4.198   3.022  12.307  0.3306  0.9888 -0.9775
16696TIP3   OH271502   0.466   3.750   2.158 -0.1557  0.5334  0.1725
16696TIP3    H171503   0.481   3.812   2.229  2.9149  0.3336 -0.2319
16696TIP3    H271504   0.447   3.668   2.202 -1.6616  1.1666  0.7275
16697TIP3   OH271505   0.640   1.255  15.629 -0.2480  0.3090  0.7482
16697TIP3    H171506   0.716   1.255  15.570  0.1660  0.6755  1.2762
16697TIP3    H271507   0.672   1.295  15.709 -1.0976  0.7421  0.8705
16698TIP3   OH271508   5.208   6.127  14.459  0.4843  0.0315  0.4995
16698TIP3    H171509   5.170   6.213  14.439  0.5472 -0.2391 -0.7909
16698TIP3    H271510   5.274   6.113  14.391 -0.3182 -1.5516  0.0251
16699TIP3   OH271511   2.107   6.080   6.470  0.4164 -0.4066  0.1934
16699TIP3    H171512   2.130   6.149   6.408  0.4994 -0.0347  0.6431
16699TIP3    H271513   2.025   6.044   6.436 -0.7136  1.2703  1.0793
16700TIP3   OH271514   4.315   1.753   2.213  0.1861  0.0908  1.0191
16700TIP3    H171515   4.370   1.817   2.257  2.0066  0.3262 -1.4815
16700TIP3    H271516   4.286   1.797   2.133 -2.0179 -0.7494  1.3200
16701TIP3   OH271517   1.829   1.527  16.601  0.2262 -0.2760  0.5222
16701TIP3    H171518   1.843   1.621  16.589  0.0462 -0.1670  1.1830
16701TIP3    H271519   1.765   1.521  16.672 -1.4818 -0.8290 -1.0226
16702TIP3   OH271520   3.084   6.104  12.735  0.1476  0.4914 -0.1211
16702TIP3    H171521   3.115   6.017  12.709 -1.8712 -0.2002 -0.3053
16702TIP3    H271522   2.990   6.092  12.749 -0.0282  2.5072  0.4920
16703TIP3   OH271523   1.080   1.455   4.311 -0.1347 -0.0849  0.0224
16703TIP3    H171524   1.022   1.384   4.282  0.5415 -0.9647  0.8108
16703TIP3    H271525   1.166   1.414   4.319  0.2562  0.8227  0.5050
16704TIP3   OH271526   5.530   0.551   2.933  0.3516 -0.2806 -0.6941
16704TIP3    H171527   5.624   0.540   2.916  0.9611  2.2424  0.7397
16704TIP3    H271528   5.501   0.465   2.964  2.8815 -0.3545  1.7069
16705TIP3   OH271529   4.190   5.938  16.497 -0.5216 -0.9850  0.2528
16705TIP3    H171530   4.141   6.007  16.451  1.6473 -0.0084 -0.6724
16705TIP3    H271531   4.188   5.965  16.589  0.1598  0.2671 -0.0813
16706TIP3   OH271532   2.348   4.533   1.823  0.0920 -0.3904 -0.1036
16706TIP3    H171533   2.306   4.456   1.785 -0.8414  0.0862 -0.0452
16706TIP3    H271534   2.442   4.516   1.814 -0.1160 -0.9699 -1.2065
16707TIP3   OH271535   1.554   4.245   5.759  0.3174  0.0905  0.3793
16707TIP3    H171536   1.547   4.212   5.669  1.1839 -0.5095  0.5242
16707TIP3    H271537   1.530   4.337   5.753 -0.0926 -0.0636 -0.3916
16708TIP3   OH271538   2.663   1.334  16.683  0.0538 -0.2681  0.6534
16708TIP3    H171539   2.627   1.275  16.749 -1.0525 -1.7348 -1.2120
16708TIP3    H271540   2.592   1.344  16.619  0.8697  1.6654  0.0215
16709TIP3   OH271541   5.431   1.769  14.430 -0.4637  0.2629  0.2577
16709TIP3    H171542   5.446   1.770  14.524  0.8201  0.6296  0.0656
16709TIP3    H271543   5.464   1.684  14.401  0.2563  0.6290 -0.0193
16710TIP3   OH271544   4.554   3.842   6.576 -0.6494  0.1500 -0.3227
16710TIP3    H171545   4.548   3.916   6.516 -0.2348  0.5102  0.0797
16710TIP3    H271546   4.614   3.780   6.534  1.4683  1.3979  0.7501
16711TIP3   OH271547   4.159   6.089   3.665  0.3405  0.5825 -0.6248
16711TIP3    H171548   4.102   6.163   3.684  0.1844  0.0107  1.2124
16711TIP3    H271549   4.137   6.024   3.731  0.6179 -1.0442 -2.0949
16712TIP3   OH271550   0.782   4.179  17.115 -0.2831 -0.3365 -0.1166
16712TIP3    H171551   0.757   4.164  17.024  0.8583 -0.2538 -0.4466
16712TIP3    H271552   0.771   4.274  17.127  1.1348 -0.0975 -0.6496
16713TIP3   OH271553   1.446   6.498  15.370  0.1715 -0.1819 -0.1594
16713TIP3    H171554   1.383   6.453  15.426  0.7500 -0.9913 -0.1556
16713TIP3    H271555   1.480   6.430  15.312  0.9002  0.2892 -0.2904
16714TIP3   OH271556   2.429   3.521  16.471 -0.2610  0.3513 -0.0440
16714TIP3    H171557   2.512   3.568  16.481  0.7882 -1.3615 -0.5053
16714TIP3    H271558   2.365   3.575  16.519  1.9198 -0.4828  4.0035
16715TIP3   OH271559   1.835   5.838  12.804 -0.0636 -0.0455  0.1564
16715TIP3    H171560   1.760   5.854  12.861 -0.1795 -1.8764  0.5525
16715TIP3    H271561   1.893   5.912  12.819 -1.1631  0.6841  0.8853
16716TIP3   OH271562   4.588   1.917  14.539 -0.2438 -0.7316 -0.2872
16716TIP3    H171563   4.545   1.977  14.599 -0.7497 -0.9502 -0.4223
16716TIP3    H271564   4.666   1.886  14.586 -0.4860 -0.6856  0.1420
16717TIP3   OH271565   4.022   3.538  17.161  0.2638  0.0754  0.6935
16717TIP3    H171566   3.948   3.580  17.118 -0.7522  0.4148  2.6969
16717TIP3    H271567   3.984   3.498  17.240  2.1314 -0.1123  1.5201
16718TIP3   OH271568   0.110   4.148   1.546  0.1668 -0.1085 -0.7018
16718TIP3    H171569   0.030   4.104   1.519 -1.5837  2.0158  0.8303
16718TIP3    H271570   0.145   4.093   1.616 -1.0391 -0.0153 -0.0085
16719TIP3   OH271571   5.395   3.381  10.906 -0.1435  0.2990 -0.0198
16719TIP3    H171572   5.481   3.422  10.903 -0.0929  0.2535  0.6858
16719TIP3    H271573   5.338   3.441  10.857 -0.2648  1.7125  1.7728
16720TIP3   OH271574   5.224   1.158  16.309  0.2969  0.0717  0.0157
16720TIP3    H171575   5.287   1.217  16.267  0.3218  0.9465  1.2603
16720TIP3    H271576   5.201   1.202  16.391  0.0224 -1.4712  0.7776
16721TIP3   OH271577   2.101   0.534  14.867  0.1137  0.2742  0.7401
16721TIP3    H171578   2.006   0.547  14.866 -0.2817 -2.4425 -1.8409
16721TIP3    H271579   2.137   0.610  14.822 -0.8741  1.0483  1.2605
16722TIP3   OH271580   0.454   5.960   4.761 -0.0075  0.2052  0.3655
16722TIP3    H171581   0.417   5.887   4.810  2.6770 -1.0846  0.5187
16722TIP3    H271582   0.478   6.024   4.828  1.2425 -0.4450  0.5484
16723TIP3   OH271583   1.954   0.734  14.450 -0.5898 -0.2756  0.4069
16723TIP3    H171584   1.923   0.816  14.487 -1.8967  0.0276 -1.2960
16723TIP3    H271585   2.037   0.755  14.407 -1.0769  0.2296 -0.2922
16724TIP3   OH271586   2.757   4.126   2.796  0.1649 -0.3854  0.4955
16724TIP3    H171587   2.842   4.082   2.798 -0.7381 -2.1297  1.2226
16724TIP3    H271588   2.696   4.061   2.831 -1.6073  0.5309 -0.8525
16725TIP3   OH271589   2.150   6.523  14.580 -0.0306  0.0185  0.2888
16725TIP3    H171590   2.063   6.531  14.542 -0.1076 -1.1752  0.2070
16725TIP3    H271591   2.206   6.575  14.522 -0.3431 -0.8719 -0.8366
16726TIP3   OH271592   1.391   1.668   1.197 -0.1805 -0.3681  0.3872
16726TIP3    H171593   1.369   1.761   1.198 -1.0935 -0.5615  2.5536
16726TIP3    H271594   1.486   1.665   1.192 -0.1656  0.6787  0.0517
16727TIP3   OH271595   0.988   2.588   0.796  0.7968 -0.2457 -0.2646
16727TIP3    H171596   1.064   2.575   0.738  1.6117  0.1933  0.6879
16727TIP3    H271597   1.020   2.647   0.864 -0.6259  0.5378 -0.2523
16728TIP3   OH271598   3.899   5.968  13.371  0.5506  0.0548  0.2100
16728TIP3    H171599   3.921   5.903  13.305 -1.4205  2.0552 -2.5169
16728TIP3    H271600   3.978   6.022  13.377  0.9889 -0.5556  0.0225
16729TIP3   OH271601   3.387   4.189   4.292  0.7497  0.1575  1.1048
16729TIP3    H171602   3.344   4.272   4.312  2.1884  0.6113  2.3184
16729TIP3    H271603   3.478   4.201   4.318  1.0891 -1.6334  0.8221
16730TIP3   OH271604   1.556   4.166  15.995 -0.1272  0.0398 -0.4708
16730TIP3    H171605   1.552   4.074  16.018  0.2575  0.3179  0.7599
16730TIP3    H271606   1.643   4.177  15.956 -0.5575 -0.3169 -1.5375
16731TIP3   OH271607   1.716   0.725   1.422  0.6069  0.1429 -0.0330
16731TIP3    H171608   1.789   0.667   1.400 -0.6768 -1.9404  1.0695
16731TIP3    H271609   1.649   0.705   1.357 -0.0956 -0.1355  0.7635
16732TIP3   OH271610   0.488   4.611   2.396 -0.1990  0.2576  0.6768
16732TIP3    H171611   0.584   4.612   2.399 -0.1927 -0.6954  0.9516
16732TIP3    H271612   0.462   4.696   2.433  0.5210 -0.0052  1.8293
16733TIP3   OH271613   2.146   2.705  13.177 -0.0249 -0.0416  0.7363
16733TIP3    H171614   2.147   2.611  13.160  1.5403 -0.1010  1.1136
16733TIP3    H271615   2.184   2.713  13.264  0.3682  0.9973  0.4677
16734TIP3   OH271616   5.024   1.473   0.792  0.0187 -0.0652 -0.2009
16734TIP3    H171617   5.011   1.517   0.876  2.0565  0.8834 -0.3530
16734TIP3    H271618   5.093   1.410   0.808  1.0418  0.7329 -1.3530
16735TIP3   OH271619   4.827   1.364  14.071  1.4075  0.1336 -0.3176
16735TIP3    H171620   4.843   1.270  14.073  0.5789 -0.0150 -0.8145
16735TIP3    H271621   4.905   1.402  14.112  1.7740 -0.7593 -0.1806
16736TIP3   OH271622   3.890   4.293   0.054 -0.0567 -0.4042  0.6184
16736TIP3    H171623   3.939   4.211   0.046  0.2475 -0.2665  1.0370
16736TIP3    H271624   3.887   4.310   0.149 -2.4396 -1.3280  0.7372
16737TIP3   OH271625   2.365   3.414  13.820  0.3329 -0.6211 -0.6786
16737TIP3    H171626   2.386   3.336  13.770 -1.3499 -1.9068  0.5593
16737TIP3    H271627   2.400   3.397  13.907  2.4169  1.2100 -1.0991
16738TIP3   OH271628   6.073   4.513  12.337  0.0905  0.6086 -0.2381
16738TIP3    H171629   5.996   4.456  12.334 -0.3243  1.1084  0.6256
16738TIP3    H271630   6.144   4.456  12.365 -0.0179  0.2036 -0.7753
16739TIP3   OH271631   4.440   1.472  13.810 -0.6296 -0.0593 -0.1797
16739TIP3    H171632   4.375   1.411  13.775 -1.6885  1.4091 -0.8384
16739TIP3    H271633   4.522   1.422  13.813 -2.0066 -2.2680  1.6827
16740TIP3   OH271634   0.634   5.395   4.537  0.4356 -0.2037  0.0010
16740TIP3    H171635   0.556   5.394   4.593  0.9664  0.9278  0.7860
16740TIP3    H271636   0.601   5.409   4.449 -0.1002  2.5823  0.6162
16741TIP3   OH271637   1.406   3.509  15.488  0.0428 -0.0442 -0.2052
16741TIP3    H171638   1.449   3.575  15.542  1.3634 -0.4717 -0.6986
16741TIP3    H271639   1.406   3.430  15.542 -0.9646  0.1861  0.1422
16742TIP3   OH271640   3.064   6.114  14.088  0.2291  0.1450  0.7757
16742TIP3    H171641   3.050   6.185  14.152  0.9787  1.2215 -0.2403
16742TIP3    H271642   3.013   6.141  14.012  1.3356  0.0977  0.0146
16743TIP3   OH271643   6.532   6.725  14.530 -0.2939 -0.2655 -0.3518
16743TIP3    H171644   6.599   6.758  14.470 -0.9514 -0.1923 -1.0678
16743TIP3    H271645   6.578   6.706  14.611  0.4534  0.5121 -0.5891
16744TIP3   OH271646   2.034   3.283   2.967  0.0790  0.1554  0.0490
16744TIP3    H171647   2.030   3.376   2.946 -0.6205 -0.3000 -2.0262
16744TIP3    H271648   1.969   3.270   3.036  2.4011  1.7238  2.6391
16745TIP3   OH271649   1.533   1.989  12.427 -0.4962  0.6065  0.1053
16745TIP3    H171650   1.505   2.017  12.340 -1.4664  1.6738  0.7473
16745TIP3    H271651   1.452   1.983  12.478  0.0464 -0.2033  0.8868
16746TIP3   OH271652   3.300   5.164  15.953  0.6397 -0.3838  0.6075
16746TIP3    H171653   3.295   5.180  15.859  3.1132 -2.7888 -0.0148
16746TIP3    H271654   3.243   5.088  15.968  1.3813 -0.9253  0.7569
16747TIP3   OH271655   2.508   2.991  16.778 -0.1369 -0.7192 -0.2603
16747TIP3    H171656   2.468   2.933  16.843 -1.6059 -0.4136 -0.8685
16747TIP3    H271657   2.452   2.982  16.700  1.7241 -1.2413 -1.5608
16748TIP3   OH271658   1.584   3.144  16.281  0.0433  0.0267 -0.3213
16748TIP3    H171659   1.507   3.198  16.296  0.2699  0.5002 -0.8906
16748TIP3    H271660   1.627   3.139  16.367 -2.0997 -2.5460  0.6936
16749TIP3   OH271661   6.318   2.144  15.312  0.1260  0.2681 -0.1799
16749TIP3    H171662   6.237   2.195  15.304 -0.1638 -0.1588  0.0287
16749TIP3    H271663   6.345   2.126  15.222 -2.0246 -2.7947 -0.2914
16750TIP3   OH271664   5.919   2.984  15.286  0.1955  0.5382  0.7354
16750TIP3    H171665   5.954   3.070  15.310  2.1419 -0.5765  2.0001
16750TIP3    H271666   5.996   2.927  15.281 -1.1191 -1.2433  0.3912
16751TIP3   OH271667   6.205   0.248   4.716  0.4982  0.8356  0.2227
16751TIP3    H171668   6.223   0.331   4.760 -0.8173  1.3683 -0.2182
16751TIP3    H271669   6.141   0.204   4.771  1.2175  0.0859  0.4719
16752TIP3   OH271670   6.557   2.705   5.704  0.7607  0.5456  0.2322
16752TIP3    H171671   6.463   2.721   5.694  0.6970 -0.8320 -1.6305
16752TIP3    H271672   6.565   2.660   5.788 -0.4299 -0.6624 -0.2853
16753TIP3   OH271673   0.413   5.941  15.475  0.0389 -0.0218  0.0253
16753TIP3    H171674   0.465   6.021  15.482  0.2342 -0.0402 -1.2267
16753TIP3    H271675   0.359   5.942  15.554 -1.0435  2.1100 -0.6892
16754TIP3   OH271676   0.421   1.216   4.450 -0.3931 -0.0192  0.3742
16754TIP3    H171677   0.474   1.274   4.505 -0.8400  0.8851 -0.1373
16754TIP3    H271678   0.466   1.132   4.454  0.3140  0.3856  1.0595
16755TIP3   OH271679   4.521   3.582   4.439  0.2472 -0.4614 -0.0404
16755TIP3    H171680   4.543   3.563   4.530  0.3183 -0.1364  0.0120
16755TIP3    H271681   4.435   3.543   4.426 -0.1493  0.2395  0.4209
16756TIP3   OH271682   4.082   2.943  12.700  0.8247  0.2838  0.2050
16756TIP3    H171683   4.084   2.880  12.628  0.5026 -1.4537  1.6922
16756TIP3    H271684   3.991   2.972  12.704  0.8399  0.3750 -0.0645
16757TIP3   OH271685   1.601   6.328   1.225  0.5583 -0.5515  0.5906
16757TIP3    H171686   1.694   6.328   1.203 -0.2343 -0.7126 -3.0852
16757TIP3    H271687   1.578   6.421   1.231  0.6401 -0.4822 -0.0865
16758TIP3   OH271688   3.529   3.564  14.719 -0.4283 -0.6303 -0.8563
16758TIP3    H171689   3.470   3.490  14.731 -0.7793 -0.0184  1.4959
16758TIP3    H271690   3.573   3.573  14.804 -0.1531  1.6453 -1.2192
16759TIP3   OH271691   0.914   1.772  15.289 -0.0561  0.1658  0.1664
16759TIP3    H171692   0.921   1.728  15.374  0.5956 -0.4500 -0.2062
16759TIP3    H271693   0.862   1.713  15.236  1.3022 -0.4342 -0.5137
16760TIP3   OH271694   6.372   6.184  10.487 -0.4571 -0.0081 -0.1845
16760TIP3    H171695   6.457   6.164  10.527  0.0334  0.8001 -0.8076
16760TIP3    H271696   6.386   6.267  10.442 -1.5588  0.0828 -0.3738
16761TIP3   OH271697   3.005   1.145  14.873 -0.1177  0.0503 -0.3576
16761TIP3    H171698   2.912   1.142  14.847 -0.1952  0.3409 -0.1209
16761TIP3    H271699   3.013   1.079  14.941 -0.6365  1.4814  1.1390
16762TIP3   OH271700   3.254   1.452  15.103 -0.2033 -0.0412  0.5347
16762TIP3    H171701   3.183   1.424  15.161 -0.1750 -0.7651  0.2149
16762TIP3    H271702   3.246   1.397  15.026 -0.7752  1.5189 -0.5349
16763TIP3   OH271703   1.064   6.496  14.729  0.1079 -0.2214 -0.1660
16763TIP3    H171704   0.978   6.464  14.700  0.6152  0.1774 -2.1926
16763TIP3    H271705   1.044   6.578  14.776 -0.4662  1.1002 -2.6278
16764TIP3   OH271706   1.850   1.997   1.086  0.0845 -0.4572 -0.3335
16764TIP3    H171707   1.796   1.973   1.162 -1.3727 -0.8921 -1.4906
16764TIP3    H271708   1.834   1.927   1.023  1.3771 -0.1482 -1.0094
16765TIP3   OH271709   6.283   0.747  17.045 -0.5629  0.3512 -0.0865
16765TIP3    H171710   6.353   0.723  16.985 -0.8617 -0.3736 -0.1509
16765TIP3    H271711   6.258   0.836  17.019  0.2219  0.5490 -0.1658
16766TIP3   OH271712   5.927   2.463  15.581  0.2411  0.0106 -1.0335
16766TIP3    H171713   5.882   2.487  15.662  0.6255  0.1732 -0.8692
16766TIP3    H271714   5.902   2.372  15.566 -0.2690  0.1473 -1.0246
16767TIP3   OH271715   6.233   4.362   2.348  0.0957 -1.2254 -0.4857
16767TIP3    H171716   6.266   4.407   2.425  1.2682  1.1590 -2.3203
16767TIP3    H271717   6.302   4.374   2.282 -2.4595  0.0431 -3.0378
16768TIP3   OH271718   2.258   3.786   0.845 -0.0770 -0.1226 -0.3314
16768TIP3    H171719   2.298   3.760   0.762  0.3396  1.1238 -0.5432
16768TIP3    H271720   2.269   3.882   0.847 -2.4535  0.1763 -0.0862
16769TIP3   OH271721   4.973   4.606  16.299 -0.1079 -0.7362 -0.3891
16769TIP3    H171722   4.946   4.535  16.358 -1.5416 -1.9810 -2.4500
16769TIP3    H271723   5.060   4.581  16.270  1.7882  1.3024  3.2824
16770TIP3   OH271724   4.515   6.007  15.792  0.2829 -0.1601  0.6163
16770TIP3    H171725   4.580   6.076  15.809  0.9477 -0.2166 -1.5375
16770TIP3    H271726   4.431   6.050  15.808  0.6666  1.3349 -1.1257
16771TIP3   OH271727   3.496   6.285   2.648 -0.4957  0.2273  0.0333
16771TIP3    H171728   3.485   6.274   2.742 -0.5729  0.5502  0.0637
16771TIP3    H271729   3.589   6.306   2.637 -0.4678  0.0990  0.0291
16772TIP3   OH271730   4.662   6.653   1.821  0.1151 -0.4331 -0.0464
16772TIP3    H171731   4.585   6.598   1.832 -1.0691  1.1351 -0.3078
16772TIP3    H271732   4.735   6.592   1.815 -1.3615 -2.0702 -2.1102
16773TIP3   OH271733   0.422   4.448  15.057  0.3433  0.2085  0.0801
16773TIP3    H171734   0.364   4.519  15.030 -0.3156  0.2538  1.5624
16773TIP3    H271735   0.491   4.491  15.107  0.4918 -0.0779  0.1239
16774TIP3   OH271736   2.701   6.629   2.933  0.5743  0.2445 -0.1821
16774TIP3    H171737   2.702   6.534   2.946 -0.6630  0.1108 -0.9397
16774TIP3    H271738   2.609   6.653   2.944  0.7462  1.2162 -0.8752
16775TIP3   OH271739   5.339   3.268  11.529  0.0685  0.0408 -0.9898
16775TIP3    H171740   5.296   3.346  11.564  1.1047  0.2376 -0.1117
16775TIP3    H271741   5.292   3.195  11.569  1.3167  0.2665  0.9392
16776TIP3   OH271742   4.272   1.330  12.326 -0.3501 -0.6707  0.5549
16776TIP3    H171743   4.362   1.351  12.304 -0.2899  1.2672  2.4780
16776TIP3    H271744   4.259   1.240  12.296  1.3969 -0.0538 -2.1270
16777TIP3   OH271745   3.698   5.212  16.051 -0.0533  0.0308 -0.1039
16777TIP3    H171746   3.700   5.202  15.956 -2.2042 -0.4239 -0.1344
16777TIP3    H271747   3.767   5.276  16.070  0.3126  0.2280 -1.9702
16778TIP3   OH271748   3.150   6.447  14.527 -0.6947 -0.0257  0.0900
16778TIP3    H171749   3.055   6.455  14.536 -0.5090  1.3931  1.0254
16778TIP3    H271750   3.185   6.489  14.605  0.7487  1.6709 -1.3977
16779TIP3   OH271751   6.081   5.941  13.284 -0.1303 -0.1187 -0.3795
16779TIP3    H171752   6.000   5.891  13.291  0.2332 -0.4790  1.7226
16779TIP3    H271753   6.150   5.875  13.281  0.2075  0.2210 -0.1471
16780TIP3   OH271754   3.472   1.626  15.713 -0.0564 -0.2942  0.1203
16780TIP3    H171755   3.561   1.662  15.707  0.0454 -0.4095  0.9205
16780TIP3    H271756   3.485   1.531  15.710 -0.3444 -0.3010 -2.2906
16781TIP3   OH271757   1.203   5.433   3.960 -0.6146  0.1993  0.3050
16781TIP3    H171758   1.249   5.351   3.941 -1.2708  0.1124 -0.8889
16781TIP3    H271759   1.184   5.428   4.054  0.4524 -0.4463  0.5009
16782TIP3   OH271760   5.356   5.809   3.311 -0.2328 -0.2553  0.3758
16782TIP3    H171761   5.356   5.774   3.222  1.3927  2.1484 -0.6093
16782TIP3    H271762   5.440   5.780   3.348 -0.7428 -0.9402  1.0102
16783TIP3   OH271763   2.255   6.206   1.660 -0.1080 -0.2368 -0.4504
16783TIP3    H171764   2.270   6.185   1.568 -2.1597  0.0820 -0.8883
16783TIP3    H271765   2.327   6.264   1.684  0.3940 -0.2574 -1.8707
16784TIP3   OH271766   3.769   4.157  15.058 -0.2012 -0.3932 -0.1085
16784TIP3    H171767   3.815   4.076  15.036 -1.8347 -1.2630 -0.4559
16784TIP3    H271768   3.809   4.224  15.002  1.7773 -0.7611  0.8358
16785TIP3   OH271769   4.088   2.353  12.785  0.7137  0.4778 -0.6846
16785TIP3    H171770   4.100   2.411  12.710  0.9058 -0.1059 -1.1065
16785TIP3    H271771   4.036   2.280  12.751  0.1002  0.6072 -0.0535
16786TIP3   OH271772   4.519   3.186  16.231  0.0183  0.3098  0.1743
16786TIP3    H171773   4.520   3.142  16.146 -0.4921  0.3828  0.1270
16786TIP3    H271774   4.593   3.247  16.227 -0.0687  0.3930 -0.2613
16787TIP3   OH271775   3.460   5.688  12.128 -0.4127  0.1254 -0.2926
16787TIP3    H171776   3.432   5.759  12.071  0.9618  0.0699 -1.0498
16787TIP3    H271777   3.427   5.608  12.086 -0.8951  0.2136 -0.0869
16788TIP3   OH271778   2.437   6.519  13.490  0.2586 -0.1356  0.1943
16788TIP3    H171779   2.490   6.499  13.413  2.3191  0.8736  1.3259
16788TIP3    H271780   2.483   6.590  13.534 -2.2895  1.0842  0.9762
16789TIP3   OH271781   6.767   4.956   3.419 -0.2848 -0.1103 -0.3905
16789TIP3    H171782   6.752   4.863   3.433 -0.0565 -0.3957 -2.0276
16789TIP3    H271783   6.692   4.999   3.461 -1.4576 -1.1291 -1.4159
16790TIP3   OH271784   0.545   1.437   5.053  0.2966 -0.1795 -0.5620
16790TIP3    H171785   0.559   1.386   5.132 -2.5064 -1.6164 -0.9378
16790TIP3    H271786   0.480   1.387   5.003 -0.6223  2.4521 -2.1230
16791TIP3   OH271787   2.707   4.296  13.658  0.4296  0.4633  0.0460
16791TIP3    H171788   2.791   4.335  13.680  0.4132  1.0742 -0.9651
16791TIP3    H271789   2.723   4.201  13.660  0.8142  0.5467  1.1081
16792TIP3   OH271790   1.668   1.590   3.593  0.3645 -0.3205 -0.2884
16792TIP3    H171791   1.631   1.527   3.655 -1.0495  0.8703  0.0988
16792TIP3    H271792   1.684   1.669   3.645 -1.1401  0.7964 -1.4761
16793TIP3   OH271793   0.702   5.716  15.473  0.1318  0.1785  0.4250
16793TIP3    H171794   0.700   5.731  15.567 -0.3683  1.0281  0.2844
16793TIP3    H271795   0.611   5.728  15.444  0.3194  0.1364 -0.1967
16794TIP3   OH271796   2.526   1.457  15.831  0.3978  0.4591  0.1535
16794TIP3    H171797   2.459   1.398  15.865  1.7394 -0.3048  1.5093
16794TIP3    H271798   2.569   1.493  15.909  1.2848  1.2821 -0.6867
16795TIP3   OH271799   3.801   5.793   1.975  0.0492  0.0321  0.3893
16795TIP3    H171800   3.887   5.753   1.986  0.1222 -0.1707 -0.8962
16795TIP3    H271801   3.745   5.722   1.943 -0.2947  0.4757 -0.0028
16796TIP3   OH271802   0.444   0.572   4.326  0.6475  0.2521  0.0587
16796TIP3    H171803   0.417   0.505   4.388  0.1334 -0.8507 -1.3251
16796TIP3    H271804   0.395   0.650   4.351  2.9458  0.8183  3.1053
16797TIP3   OH271805   2.058   5.817   4.472  0.2709 -0.0504 -0.2854
16797TIP3    H171806   2.087   5.878   4.405 -0.6684  1.7112  0.8573
16797TIP3    H271807   1.994   5.761   4.428  0.5629  0.2902 -1.1488
16798TIP3   OH271808   4.479   1.092  16.234 -0.3163 -0.6232 -0.3114
16798TIP3    H171809   4.533   1.163  16.198  0.3337 -0.7598  0.3777
16798TIP3    H271810   4.418   1.071  16.164 -0.9996  1.1204 -0.2746
16799TIP3   OH271811   6.262   2.099   3.583 -0.0977 -0.4145 -0.4841
16799TIP3    H171812   6.336   2.144   3.622 -0.1617 -0.2659 -0.5320
16799TIP3    H271813   6.222   2.051   3.655 -0.2496 -0.0959 -0.3503
16800TIP3   OH271814   4.550   2.890   1.008 -0.4277 -0.1681  0.7486
16800TIP3    H171815   4.476   2.906   0.949 -0.2920 -1.1708  0.2955
16800TIP3    H271816   4.543   2.797   1.031  0.7166 -0.2860  0.6561
16801TIP3   OH271817   6.289   2.129  14.389  0.0115 -0.1443 -0.1115
16801TIP3    H171818   6.338   2.134  14.471 -0.0091  2.0334 -0.2100
16801TIP3    H271819   6.347   2.167  14.324 -0.9098  0.3058 -0.6671
16802TIP3   OH271820   3.778   6.545   4.772  0.1128  0.0322  0.2732
16802TIP3    H171821   3.687   6.562   4.796 -0.2975 -1.8245  0.1012
16802TIP3    H271822   3.774   6.470   4.713  1.7001  0.3852 -0.3135
16803TIP3   OH271823   4.169   0.724   3.245  0.4763  0.3873 -0.3586
16803TIP3    H171824   4.114   0.803   3.243 -0.3936 -0.2146 -0.5065
16803TIP3    H271825   4.258   0.756   3.231  0.2368  1.4415  0.4977
16804TIP3   OH271826   3.651   3.741   6.730 -0.2921  0.2849 -0.4053
16804TIP3    H171827   3.728   3.756   6.785 -0.7729 -0.5829  0.5394
16804TIP3    H271828   3.633   3.826   6.689  1.1474  0.4913 -0.6262
16805TIP3   OH271829   2.270   1.958   4.158  0.1252  0.5131  0.1186
16805TIP3    H171830   2.212   1.908   4.216  1.2012  0.1168  0.8694
16805TIP3    H271831   2.355   1.958   4.203  0.4878  1.8348 -0.5447
16806TIP3   OH271832   3.816   6.207   0.668  0.6469 -0.3860  0.3678
16806TIP3    H171833   3.912   6.203   0.667  0.6976  0.4281  1.1894
16806TIP3    H271834   3.796   6.293   0.631  0.3037  0.2369  1.9866
16807TIP3   OH271835   5.752   5.540   3.199  0.0644  0.8642  0.5135
16807TIP3    H171836   5.694   5.469   3.229  0.5734  0.6526  1.0126
16807TIP3    H271837   5.722   5.559   3.111  0.7419 -0.8811 -0.1297
16808TIP3   OH271838   1.932   5.421  15.851 -0.3736  0.1961  0.0831
16808TIP3    H171839   1.911   5.492  15.912 -0.5762 -1.0938  1.5725
16808TIP3    H271840   2.002   5.372  15.895 -0.6941 -0.9080 -0.6113
16809TIP3   OH271841   3.084   6.709  10.475 -0.3820  0.3735  0.8292
16809TIP3    H171842   3.040   6.788  10.444  1.0686  1.0762  0.5448
16809TIP3    H271843   3.145   6.740  10.542 -0.1446 -0.5690  1.0564
16810TIP3   OH271844   5.925   2.078   1.734 -0.6447 -0.0167 -0.1819
16810TIP3    H171845   5.994   2.093   1.670 -0.7016  0.0789 -0.2202
16810TIP3    H271846   5.851   2.130   1.703 -0.5352  0.3689  0.1876
16811TIP3   OH271847   0.419   3.248   4.301 -0.1997  0.1327  0.6874
16811TIP3    H171848   0.340   3.247   4.356  0.5958 -0.2382  1.8478
16811TIP3    H271849   0.422   3.161   4.262  0.3517 -0.3022  1.6913
16812TIP3   OH271850   2.286   4.327  14.096  0.7698  0.6625  0.1423
16812TIP3    H171851   2.222   4.370  14.038  1.3025  0.0097 -0.9332
16812TIP3    H271852   2.310   4.247  14.050  0.4627 -0.3596  1.7289
16813TIP3   OH271853   0.964   5.387   2.770  0.1530  0.0800  0.4699
16813TIP3    H171854   1.051   5.353   2.789 -0.2999 -0.4512  1.6673
16813TIP3    H271855   0.966   5.477   2.804  0.4865  0.3525 -0.2514
16814TIP3   OH271856   5.220   1.309  17.112 -0.0600 -0.4614  0.6813
16814TIP3    H171857   5.281   1.288  17.182  0.0038 -0.7083  0.5508
16814TIP3    H271858   5.155   1.240  17.114 -2.2445  1.6024  3.0127
16815TIP3   OH271859   0.020   1.993  11.721  0.3378 -0.6618  0.3154
16815TIP3    H171860  -0.034   2.071  11.721  1.5808  0.2208  0.5330
16815TIP3    H271861   0.084   2.008  11.651  1.1806 -1.0377  0.9875
16816TIP3   OH271862   3.626   6.604   3.333 -0.2088 -0.7217 -0.0176
16816TIP3    H171863   3.541   6.562   3.320 -2.0607  3.2125 -1.2173
16816TIP3    H271864   3.643   6.594   3.426 -2.6240 -0.4244  0.4867
16817TIP3   OH271865   4.056   1.400  17.042 -0.3045 -0.4793  0.7632
16817TIP3    H171866   3.992   1.329  17.040 -1.1968  0.3638 -1.4595
16817TIP3    H271867   4.100   1.397  16.957  2.7824 -1.1480  2.2999
16818TIP3   OH271868   3.752   0.158   2.466 -0.0796  0.6498 -0.0231
16818TIP3    H171869   3.816   0.097   2.501 -1.1023  0.0247  0.7686
16818TIP3    H271870   3.788   0.245   2.485  1.4836  0.3183 -1.3692
16819TIP3   OH271871   4.795   1.563   1.642 -0.5457 -0.1024  0.1538
16819TIP3    H171872   4.779   1.654   1.666  0.1890  0.5904 -1.9233
16819TIP3    H271873   4.861   1.533   1.704 -0.2775  0.9831  0.3923
16820TIP3   OH271874   1.042   4.089   2.606  0.4554  0.1240 -0.2439
16820TIP3    H171875   0.971   4.026   2.593 -0.4681  1.3939 -1.4527
16820TIP3    H271876   1.098   4.048   2.672 -1.7041 -0.6361  1.1599
16821TIP3   OH271877   4.169   5.849  13.644 -0.3969 -0.1962 -0.2185
16821TIP3    H171878   4.163   5.924  13.585 -1.5634  1.5510  2.0352
16821TIP3    H271879   4.263   5.838  13.659 -0.2877  2.1557  1.0335
16822TIP3   OH271880   5.145   3.575   3.377  0.1965  0.9187  0.2808
16822TIP3    H171881   5.125   3.556   3.469  1.1062  0.6226  0.4177
16822TIP3    H271882   5.191   3.497   3.345  2.0669  1.9861  0.2723
16823TIP3   OH271883   0.013   0.843  14.017  0.1474  0.5757 -0.4362
16823TIP3    H171884   0.051   0.913  14.068  1.3528 -1.3489  1.3692
16823TIP3    H271885  -0.081   0.849  14.034  0.5020  0.1326  1.8396
16824TIP3   OH271886   3.995   1.485  15.432  0.2916  0.1315  0.4603
16824TIP3    H171887   4.090   1.486  15.447  1.2399  0.1806 -4.7115
16824TIP3    H271888   3.968   1.576  15.447  1.3916  0.5324  0.0631
16825TIP3   OH271889   1.318   1.358  15.226 -0.2696 -0.3580  0.6045
16825TIP3    H171890   1.413   1.362  15.221 -0.3271  0.5789  0.2011
16825TIP3    H271891   1.296   1.411  15.303 -0.4280 -1.0090  1.0078
16826TIP3   OH271892   5.113   0.426   2.168 -0.1354 -0.8529 -0.3680
16826TIP3    H171893   5.192   0.373   2.157  0.8905  0.3577  1.0517
16826TIP3    H271894   5.041   0.365   2.152  1.0080 -2.8121  1.7597
16827TIP3   OH271895   6.575   2.176  14.132 -0.3453  0.0638 -0.1338
16827TIP3    H171896   6.568   2.160  14.038 -1.6314 -2.1844  0.3118
16827TIP3    H271897   6.489   2.210  14.157 -0.5377 -0.8783  0.5058
16828TIP3   OH271898   3.703   2.599   5.439  0.8844  0.9522  0.4815
16828TIP3    H171899   3.711   2.505   5.430 -1.8019  0.5507  1.8502
16828TIP3    H271900   3.685   2.631   5.351 -2.2132 -0.3073  0.6097
16829TIP3   OH271901   3.000   2.268  15.035 -0.1464 -0.1938  0.9963
16829TIP3    H171902   2.953   2.301  14.958 -1.7875  1.5287  2.6902
16829TIP3    H271903   3.092   2.289  15.017 -0.4924  0.1267 -0.5189
16830TIP3   OH271904   2.160   2.444  15.876  0.4582  0.6511 -0.0892
16830TIP3    H171905   2.068   2.461  15.895  0.3635  1.3924 -1.1405
16830TIP3    H271906   2.171   2.350  15.888  0.0914  0.8715  2.1929
16831TIP3   OH271907   3.843   0.884  11.316  0.7298  0.4676 -0.5401
16831TIP3    H171908   3.865   0.975  11.335 -1.2617  0.5314  1.7109
16831TIP3    H271909   3.927   0.838  11.319  1.7029  2.1617 -1.3136
16832TIP3   OH271910   2.282   5.638  12.829  0.2173  0.0391  0.2525
16832TIP3    H171911   2.290   5.666  12.920 -1.3376  0.9603  0.1263
16832TIP3    H271912   2.275   5.542  12.834  0.8166  0.0321  1.0449
16833TIP3   OH271913   5.113   0.843  14.382 -0.4873 -0.1221 -0.0953
16833TIP3    H171914   5.175   0.781  14.420 -0.0278  0.0838 -0.5083
16833TIP3    H271915   5.165   0.893  14.319 -1.9692 -2.7872 -3.6332
16834TIP3   OH271916   1.017   1.128   0.896  0.3321 -0.1516 -0.4355
16834TIP3    H171917   1.068   1.075   0.835 -0.6650 -0.5884 -0.9130
16834TIP3    H271918   0.926   1.106   0.876 -0.0011 -0.8891  1.7297
16835TIP3   OH271919   0.908   3.617   4.676 -0.0642 -0.9870  0.2926
16835TIP3    H171920   0.840   3.657   4.621  0.5492  0.1731  0.3723
16835TIP3    H271921   0.884   3.524   4.678 -2.1983 -0.4620  1.1007
16836TIP3   OH271922   3.512   6.282   5.338 -0.3268  0.0883  0.2810
16836TIP3    H171923   3.558   6.305   5.258  0.2706  0.5523  0.7505
16836TIP3    H271924   3.434   6.235   5.309  0.9379 -1.5645 -0.4903
16837TIP3   OH271925   3.237   4.630   4.865  0.4011 -0.6340  0.6459
16837TIP3    H171926   3.220   4.547   4.910 -0.0892 -0.3588  0.9879
16837TIP3    H271927   3.201   4.696   4.924 -0.0150 -0.2438 -0.0376
16838TIP3   OH271928   2.514   6.214  13.272  0.0806  0.3678 -0.3662
16838TIP3    H171929   2.538   6.303  13.247 -1.3557  0.8549 -0.0317
16838TIP3    H271930   2.420   6.210  13.258 -0.0554 -0.7281  0.7992
16839TIP3   OH271931   2.590   3.928   4.061  0.1013 -0.4754 -0.1356
16839TIP3    H171932   2.683   3.944   4.072  0.1042 -0.5658 -0.0377
16839TIP3    H271933   2.552   4.015   4.049  0.4385 -0.5456 -2.0090
16840TIP3   OH271934   2.416   1.574  17.112  0.1510 -0.2292  0.3244
16840TIP3    H171935   2.460   1.653  17.079 -0.4616  0.2098  0.5540
16840TIP3    H271936   2.450   1.562  17.200 -0.2180  0.1356  0.5179
16841TIP3   OH271937   4.199   1.880   3.895  0.0455 -0.6474 -0.5378
16841TIP3    H171938   4.142   1.929   3.955  0.9060 -0.7141  0.3461
16841TIP3    H271939   4.139   1.846   3.829 -0.6143  1.3196 -0.9922
16842TIP3   OH271940   4.325   2.059   0.848  0.1313  0.0471 -0.3057
16842TIP3    H171941   4.298   1.986   0.792 -0.0839 -0.3955  0.3665
16842TIP3    H271942   4.247   2.079   0.900  1.0581 -1.2044  1.6172
16843TIP3   OH271943   6.644   4.772   1.892 -0.4599 -0.8903 -0.0881
16843TIP3    H171944   6.600   4.699   1.850  2.2237 -1.0249 -2.8189
16843TIP3    H271945   6.643   4.842   1.826  2.4891 -0.5805  0.1453
16844TIP3   OH271946   0.117   2.483   0.631  0.0987 -0.3365  0.1039
16844TIP3    H171947   0.113   2.574   0.603 -0.1629 -0.4141 -0.1184
16844TIP3    H271948   0.207   2.470   0.661 -0.1280  0.2596  1.0367
16845TIP3   OH271949   0.816   1.495   0.141  0.4431  0.0765 -0.2964
16845TIP3    H171950   0.743   1.549   0.113 -0.5537 -0.8508  0.5011
16845TIP3    H271951   0.832   1.519   0.232 -0.2796 -1.2524  0.1972
16846TIP3   OH271952   4.366   0.886  15.278 -0.2913 -0.1802 -0.1921
16846TIP3    H171953   4.316   0.907  15.357  2.0000 -0.1043  1.2870
16846TIP3    H271954   4.336   0.950  15.213 -0.6965  1.0995  1.2268
16847TIP3   OH271955   5.885   5.138  10.474 -0.0070 -0.3342 -0.5355
16847TIP3    H171956   5.897   5.230  10.495  1.1275 -0.7789  0.8178
16847TIP3    H271957   5.821   5.138  10.402  0.3011  1.5112 -0.8300
16848TIP3   OH271958   2.402   5.489  11.274 -0.1642 -0.5056  0.5024
16848TIP3    H171959   2.401   5.575  11.317 -0.2818  0.4481 -1.3868
16848TIP3    H271960   2.325   5.444  11.309 -0.6130  0.4903  0.8183
16849TIP3   OH271961   6.185   2.154  12.473 -0.4528  0.1822  0.4223
16849TIP3    H171962   6.093   2.182  12.477 -0.7839 -0.8657  0.4723
16849TIP3    H271963   6.230   2.226  12.429 -1.5202  0.1927 -0.6899
16850TIP3   OH271964   0.337   0.243  12.249 -0.2914  0.4313 -0.0328
16850TIP3    H171965   0.295   0.293  12.179 -0.3056 -0.7247 -0.8672
16850TIP3    H271966   0.364   0.309  12.313  1.5238  1.7273 -2.0429
16851TIP3   OH271967   1.115   0.442  10.476 -0.4674 -0.1823 -0.4059
16851TIP3    H171968   1.157   0.514  10.430 -0.6619  1.1025  1.3499
16851TIP3    H271969   1.185   0.402  10.528 -0.4391 -1.0170 -1.0838
16852TIP3   OH271970   1.970   5.956  12.405  0.1545 -0.2247  0.2322
16852TIP3    H171971   1.911   6.031  12.409 -0.2841 -0.6462  2.0008
16852TIP3    H271972   1.915   5.881  12.426  1.1047 -0.7559  0.8414
16853TIP3   OH271973   0.719   0.305  16.634 -0.4702 -0.1230 -0.0787
16853TIP3    H171974   0.803   0.325  16.593 -1.9728  0.7754 -2.8637
16853TIP3    H271975   0.687   0.389  16.665 -1.1520 -0.1493 -0.6849
16854TIP3   OH271976   3.664   3.083   6.889 -0.7601  0.1672  0.0739
16854TIP3    H171977   3.751   3.044   6.890 -1.7247 -2.0527  0.1473
16854TIP3    H271978   3.678   3.171   6.853  1.1388 -1.0796 -2.3997
16855TIP3   OH271979   1.201   1.514  14.751  0.5302  0.0220 -0.3803
16855TIP3    H171980   1.156   1.498  14.668  0.5468 -0.6943 -0.2517
16855TIP3    H271981   1.132   1.539  14.812  0.3416 -0.7849 -0.2610
16856TIP3   OH271982   3.120   2.372  11.916 -0.0416 -0.2032  0.0290
16856TIP3    H171983   3.214   2.388  11.903  0.2833 -2.6935 -0.8724
16856TIP3    H271984   3.089   2.339  11.832 -0.7582 -3.7535  1.6138
16857TIP3   OH271985   4.245   5.383   0.770 -0.2441  0.3127 -0.0385
16857TIP3    H171986   4.237   5.447   0.699 -0.2921  0.0307 -0.2909
16857TIP3    H271987   4.277   5.433   0.845  0.5901  0.4663 -0.4867
16858TIP3   OH271988   2.045   2.739   0.797 -0.0316 -0.5744  0.4516
16858TIP3    H171989   1.987   2.715   0.870 -1.5095  0.4052 -0.3816
16858TIP3    H271990   2.055   2.834   0.804  0.2298 -0.5413 -0.3268
16859TIP3   OH271991   1.091   6.330   6.546  0.2975  0.0659 -0.5609
16859TIP3    H171992   1.163   6.307   6.605 -0.3658  2.6714  1.3587
16859TIP3    H271993   1.134   6.374   6.472  1.2234 -4.0514 -2.6154
16860TIP3   OH271994   5.392   4.500   1.110  0.0024  0.0022  0.0474
16860TIP3    H171995   5.485   4.516   1.094 -0.0300  0.8440  0.6733
16860TIP3    H271996   5.347   4.547   1.039  0.0427 -0.2742 -0.1639
16861TIP3   OH271997   0.831   2.179  12.710  0.0103  0.0268 -0.6487
16861TIP3    H171998   0.798   2.120  12.777  1.9603 -0.2253  0.1339
16861TIP3    H271999   0.829   2.265  12.751  0.3262  0.0042 -0.5804
16862TIP3   OH272000   6.203   1.873   3.845  0.1231 -0.4084  0.0335
16862TIP3    H172001   6.121   1.920   3.858  0.5064  0.0985  0.6721
16862TIP3    H272002   6.196   1.837   3.757 -0.9976 -0.8234  0.2861
16863TIP3   OH272003   1.414   5.053   5.248 -0.1140  0.0249  0.3656
16863TIP3    H172004   1.484   5.013   5.300  1.1311 -1.1246 -2.0782
16863TIP3    H272005   1.364   4.979   5.215 -1.3926  0.7716  0.6065
16864TIP3   OH272006   5.222   5.870   5.786  0.6624  0.3061 -0.5666
16864TIP3    H172007   5.147   5.811   5.773  0.7158 -0.1352  1.0246
16864TIP3    H272008   5.280   5.822   5.844  1.2626  1.4648 -0.1947
16865TIP3   OH272009   5.769   0.347  14.899  0.4224 -0.0792 -0.5223
16865TIP3    H172010   5.863   0.355  14.916  0.1214  0.9645  0.6543
16865TIP3    H272011   5.728   0.415  14.952 -1.0393 -0.7293 -0.7816
16866TIP3   OH272012   4.288   2.729   6.679 -0.0033  0.6207 -0.1539
16866TIP3    H172013   4.250   2.750   6.594 -0.5492 -0.1216 -0.0960
16866TIP3    H272014   4.350   2.658   6.660 -0.6326 -0.0194  0.1711
16867TIP3   OH272015   1.778   2.895   2.374  0.1144 -0.3974 -0.6047
16867TIP3    H172016   1.742   2.811   2.344 -0.4031 -0.2477 -0.4047
16867TIP3    H272017   1.789   2.946   2.294 -0.4362 -0.3217 -0.6368
16868TIP3   OH272018   0.211   3.381  11.345  0.0334 -0.2296  0.0769
16868TIP3    H172019   0.183   3.383  11.254  0.0411  1.2735  0.1049
16868TIP3    H272020   0.268   3.457  11.355  0.4354 -0.6669  1.2036
16869TIP3   OH272021   4.646   2.419  16.806 -0.6448  0.3269  0.7017
16869TIP3    H172022   4.667   2.368  16.727 -2.2566  0.0494  0.4298
16869TIP3    H272023   4.639   2.353  16.875 -0.3083  0.4461  0.8452
16870TIP3   OH272024   5.080   3.110   2.336  0.1342  0.7366  0.0322
16870TIP3    H172025   5.098   3.203   2.353  3.1619  0.5756 -1.9105
16870TIP3    H272026   5.114   3.064   2.413  2.6654  0.9372 -0.9255
16871TIP3   OH272027   4.345   1.151  11.260 -0.5833  0.2984  0.2247
16871TIP3    H172028   4.377   1.230  11.216 -0.9160  0.8203  0.8913
16871TIP3    H272029   4.412   1.085  11.243  0.1714  0.9899  0.4553
16872TIP3   OH272030   6.401   2.294   2.498  0.0721  0.0891 -0.2605
16872TIP3    H172031   6.477   2.236   2.501 -1.9761 -2.6655 -0.7118
16872TIP3    H272032   6.351   2.265   2.421 -2.7787  0.1370  1.5183
16873TIP3   OH272033   5.796   6.054  12.134 -0.2043 -0.6723 -0.0409
16873TIP3    H172034   5.789   6.089  12.223 -1.5581  1.7947 -1.0657
16873TIP3    H272035   5.724   5.990  12.128  1.2789 -2.5176  1.3242
16874TIP3   OH272036   1.213   4.637  16.006  0.0049  0.0873 -0.4920
16874TIP3    H172037   1.292   4.585  16.023  0.3207  1.0916  1.2385
16874TIP3    H272038   1.145   4.572  15.987  0.9960 -0.8302 -0.9363
16875TIP3   OH272039   5.923   4.127   5.931  0.1485 -0.0800  0.5083
16875TIP3    H172040   5.970   4.207   5.953  1.2596 -0.2888 -1.0429
16875TIP3    H272041   5.992   4.065   5.904 -0.8567 -0.9431 -0.1345
16876TIP3   OH272042   1.865   6.740   1.618  0.1787  0.2584  0.1481
16876TIP3    H172043   1.839   6.785   1.699 -1.8652 -3.0535  1.4617
16876TIP3    H272044   1.830   6.652   1.628  0.5679 -0.4664 -4.0834
16877TIP3   OH272045   5.455   2.943   2.528  0.0273 -0.0219  0.1307
16877TIP3    H172046   5.519   2.923   2.597 -0.4036  0.6465  0.7347
16877TIP3    H272047   5.505   2.940   2.447  0.3261 -1.8983  0.3558
16878TIP3   OH272048   0.842   5.245   4.161  0.0473  0.3792 -0.0106
16878TIP3    H172049   0.923   5.193   4.157  0.2079  0.6762 -0.8695
16878TIP3    H272050   0.855   5.305   4.234  0.5933  0.4110 -0.1325
16879TIP3   OH272051   4.835   4.768  14.309 -0.1902 -0.2896 -0.1123
16879TIP3    H172052   4.887   4.706  14.258  0.2200 -0.6065  0.6727
16879TIP3    H272053   4.762   4.792  14.252 -0.1479 -1.2119 -0.5607
16880TIP3   OH272054   0.756   4.075   5.560 -0.3700 -0.0765  0.4987
16880TIP3    H172055   0.675   4.126   5.571 -0.5246 -0.6795  2.2414
16880TIP3    H272056   0.797   4.076   5.646  0.7946 -0.9572 -0.0339
16881TIP3   OH272057   1.553   6.265   1.547 -0.2461  0.0555 -0.0446
16881TIP3    H172058   1.471   6.272   1.499  0.2364 -0.4397 -0.9548
16881TIP3    H272059   1.549   6.179   1.589 -0.6919  0.5109  0.8667
16882TIP3   OH272060   5.463   3.728  13.255  0.1119  0.6172 -0.8624
16882TIP3    H172061   5.554   3.720  13.226  0.2023  3.5957 -1.5531
16882TIP3    H272062   5.468   3.773  13.339 -0.5820 -2.0001  0.6373
16883TIP3   OH272063   4.721   1.402  10.830  0.1165 -0.1073  0.0541
16883TIP3    H172064   4.687   1.409  10.919  0.4021 -0.5770  0.2011
16883TIP3    H272065   4.806   1.358  10.840 -0.4184 -1.3158 -0.5709
16884TIP3   OH272066   4.302   5.379  15.482  0.1338 -0.1425 -0.5040
16884TIP3    H172067   4.364   5.444  15.448  0.9455  0.6680  2.3879
16884TIP3    H272068   4.232   5.430  15.522 -0.0444 -1.0489  0.3657
16885TIP3   OH272069   1.203   6.710   3.835 -0.0795  0.8474  0.2180
16885TIP3    H172070   1.248   6.735   3.916  0.8647  0.0742 -0.0657
16885TIP3    H272071   1.260   6.743   3.765  0.4053 -0.7415 -0.1527
16886TIP3   OH272072   4.004   0.496  12.945 -0.4715 -0.2909 -0.5417
16886TIP3    H172073   4.083   0.547  12.929 -0.4256 -0.2186 -0.0865
16886TIP3    H272074   3.938   0.533  12.886  0.2074 -1.2518 -1.9349
16887TIP3   OH272075   1.880   6.218  14.926  0.0398 -0.1919  0.1914
16887TIP3    H172076   1.972   6.201  14.948 -0.0237 -0.0234  0.5967
16887TIP3    H272077   1.854   6.289  14.985 -1.0231 -1.8171  1.7111
16888TIP3   OH272078   0.913   0.309   4.965 -0.5056  0.3693 -0.0351
16888TIP3    H172079   0.955   0.395   4.954 -0.5433  0.3526 -0.3046
16888TIP3    H272080   0.894   0.304   5.059  0.9603 -0.0293  0.2513
16889TIP3   OH272081   6.360   2.234   0.450 -0.4989  0.2652 -0.2193
16889TIP3    H172082   6.309   2.164   0.411 -1.0656  0.0906  0.8192
16889TIP3    H272083   6.357   2.217   0.544  1.8424 -0.0016 -0.1601
16890TIP3   OH272084   5.392   6.259  10.944 -0.4168  0.5143  0.3056
16890TIP3    H172085   5.467   6.200  10.947  0.1853  1.3041  1.1555
16890TIP3    H272086   5.316   6.202  10.951  0.0603 -0.3833 -1.6022
16891TIP3   OH272087   3.282   4.107   3.776  0.6028 -0.3890  0.1516
16891TIP3    H172088   3.300   4.159   3.854  1.7443  0.2811 -0.5360
16891TIP3    H272089   3.187   4.102   3.772  0.4655  1.5476  0.3271
16892TIP3   OH272090   6.653   3.378  14.076 -0.1045 -0.5490  0.3497
16892TIP3    H172091   6.690   3.462  14.103  0.0157 -1.2525  2.4232
16892TIP3    H272092   6.676   3.371  13.983 -0.4971  1.9045  0.0216
16893TIP3   OH272093   1.889   1.428  13.981 -0.3521  0.2380  0.5154
16893TIP3    H172094   1.973   1.408  14.022 -0.7830 -1.6089  0.5635
16893TIP3    H272095   1.825   1.376  14.030 -1.2243  0.0091 -0.8277
16894TIP3   OH272096   5.664   1.059  14.073 -0.5661 -0.2232  0.3340
16894TIP3    H172097   5.683   1.054  14.167  0.2820 -0.4809  0.1483
16894TIP3    H272098   5.617   1.142  14.063 -0.3223 -0.0099  0.9264
16895TIP3   OH272099   5.012   0.163   1.540  0.1085  0.1166 -0.0529
16895TIP3    H172100   5.041   0.226   1.474  0.6590 -0.9318 -0.8386
16895TIP3    H272101   4.919   0.151   1.522  0.2697 -0.2143 -0.6968
16896TIP3   OH272102   5.353   1.531  14.684 -0.0335  0.2454 -0.3473
16896TIP3    H172103   5.415   1.475  14.730 -0.1169  1.3682  1.2090
16896TIP3    H272104   5.393   1.618  14.687  0.2783  0.2156 -3.0695
16897TIP3   OH272105   0.950   3.613  15.367  0.0518 -0.0734  0.0101
16897TIP3    H172106   0.917   3.524  15.356 -0.5211  0.1108  0.2580
16897TIP3    H272107   0.942   3.630  15.461 -2.2152  1.1667 -0.3762
16898TIP3   OH272108   1.505   3.139   4.806  0.4203  0.3946  0.1036
16898TIP3    H172109   1.566   3.109   4.739  0.8952 -2.8150  1.8702
16898TIP3    H272110   1.421   3.101   4.779  1.0460 -2.8769  2.4106
16899TIP3   OH272111   5.745   0.764  13.546  0.2516  0.0703 -0.1837
16899TIP3    H172112   5.712   0.818  13.619 -0.1824  1.3596 -1.3205
16899TIP3    H272113   5.840   0.774  13.550  0.1691  1.0516 -0.4700
16900TIP3   OH272114   2.464   5.953  10.449  0.3172 -0.0513  0.6325
16900TIP3    H172115   2.418   5.869  10.450  0.6192 -0.2207  0.4940
16900TIP3    H272116   2.550   5.932  10.413  0.3215  0.3534  0.4043
16901TIP3   OH272117   2.763   1.514   0.379 -0.0660  0.8365  0.6601
16901TIP3    H172118   2.752   1.608   0.370 -0.5757  0.8219  1.1213
16901TIP3    H272119   2.720   1.492   0.462  0.8491  0.3383  1.0116
16902TIP3   OH272120   3.405   5.973  16.792  0.4313 -0.0231 -0.5144
16902TIP3    H172121   3.443   5.927  16.866  0.6423  4.0877  2.0829
16902TIP3    H272122   3.470   6.040  16.769 -1.5033  1.5587 -1.5536
16903TIP3   OH272123   0.781   4.226  10.908  0.3282 -0.3774 -0.4964
16903TIP3    H172124   0.694   4.191  10.889 -0.0898  0.2265  0.2374
16903TIP3    H272125   0.774   4.319  10.884  0.1144  0.1494  1.5340
16904TIP3   OH272126   0.615   5.774  11.173 -0.5431 -0.1332  0.4713
16904TIP3    H172127   0.550   5.765  11.103  0.0381 -2.2845  0.1722
16904TIP3    H272128   0.699   5.784  11.128 -0.3485  0.0600  0.8661
16905TIP3   OH272129   0.905   4.330   4.443 -0.3293  0.4365 -0.4685
16905TIP3    H172130   0.868   4.416   4.421  0.4622  0.6807 -0.8694
16905TIP3    H272131   0.861   4.269   4.383 -1.4021  0.4454  0.2855
16906TIP3   OH272132   4.893   0.565   4.511 -0.0428  0.1222  0.3408
16906TIP3    H172133   4.886   0.514   4.430  0.8097  2.3923 -1.2186
16906TIP3    H272134   4.926   0.503   4.575  0.3583 -1.4635 -1.3341
16907TIP3   OH272135   2.309   6.167  16.508  0.0870 -0.1473 -0.0055
16907TIP3    H172136   2.304   6.257  16.475 -0.6172  1.4738  4.1233
16907TIP3    H272137   2.393   6.134  16.476  2.2361  3.4460  1.5588
16908TIP3   OH272138   3.999   4.818  13.314 -0.1687 -0.4066  0.0106
16908TIP3    H172139   4.076   4.814  13.371 -0.8161  1.1304  1.0538
16908TIP3    H272140   3.932   4.860  13.368 -0.8189  1.0488 -1.8660
16909TIP3   OH272141   1.010   6.719   3.099  0.1207  0.5943 -0.3005
16909TIP3    H172142   1.039   6.704   3.189 -0.7444 -0.2664 -0.1566
16909TIP3    H272143   0.927   6.765   3.108 -2.0505 -3.0786 -0.5380
16910TIP3   OH272144   6.000   4.998   3.943  0.0569  0.0845  0.5646
16910TIP3    H172145   5.943   5.074   3.953 -2.0739 -1.3368 -0.3606
16910TIP3    H272146   5.951   4.926   3.984  1.1134 -1.2112 -0.4142
16911TIP3   OH272147   0.605   5.603  15.735  0.1833  0.7637  0.3590
16911TIP3    H172148   0.617   5.697  15.723  1.6900  0.3946 -1.3865
16911TIP3    H272149   0.692   5.570  15.756  0.0594 -0.4825 -0.9695
16912TIP3   OH272150   2.328   6.738  14.722  0.2166 -0.4912 -0.2334
16912TIP3    H172151   2.382   6.795  14.777  0.2748  0.5877 -1.3957
16912TIP3    H272152   2.332   6.777  14.635 -1.4222 -1.1021 -0.6074
16913TIP3   OH272153   4.523   3.651  16.813 -0.3816  0.8584 -0.1413
16913TIP3    H172154   4.434   3.653  16.848 -0.6542 -0.5583 -0.7028
16913TIP3    H272155   4.558   3.566  16.841  1.1290  1.7907  0.8492
16914TIP3   OH272156   2.207   5.708  11.780 -0.5099  0.0484  0.2964
16914TIP3    H172157   2.248   5.793  11.797 -0.4321  0.1941 -0.5580
16914TIP3    H272158   2.277   5.656  11.739 -0.3085 -0.7137  1.5842
16915TIP3   OH272159   3.301   4.455  13.659  0.0580  0.1948 -0.1254
16915TIP3    H172160   3.225   4.493  13.703  0.3384  0.4215  0.1665
16915TIP3    H272161   3.361   4.529  13.646  1.3223 -0.3934  1.9158
16916TIP3   OH272162   0.441   6.364  15.715  0.8825 -0.3480 -0.3884
16916TIP3    H172163   0.479   6.309  15.646 -0.6906 -0.2972 -1.3253
16916TIP3    H272164   0.459   6.317  15.796  0.2267 -1.8842 -1.1158
16917TIP3   OH272165   5.486   2.151  16.908 -0.1770  0.4286  0.1384
16917TIP3    H172166   5.532   2.092  16.967 -0.2844  0.8531  0.6558
16917TIP3    H272167   5.396   2.152  16.940 -0.3486  0.2867 -0.3303
16918TIP3   OH272168   0.993   6.022   0.967  0.1641 -0.3462 -0.5710
16918TIP3    H172169   0.957   6.002   1.054  1.6048  0.8391  0.2971
16918TIP3    H272170   0.918   6.058   0.919 -0.0589  1.3252  0.9647
16919TIP3   OH272171   1.873   6.066  17.234  0.2689  0.4686 -0.1695
16919TIP3    H172172   1.957   6.052  17.190 -0.0903 -0.1665 -0.6571
16919TIP3    H272173   1.860   5.987  17.286 -0.1559  0.4499 -0.3094
16920TIP3   OH272174   5.182   3.525   1.043 -0.2399 -0.7407  0.1331
16920TIP3    H172175   5.218   3.497   0.959 -1.5533  1.7730 -1.3173
16920TIP3    H272176   5.217   3.613   1.056 -3.9403  0.8801 -0.2183
16921TIP3   OH272177   1.245   3.138  16.583 -0.1648 -0.0119 -0.3289
16921TIP3    H172178   1.309   3.206  16.605 -0.6940  0.6328 -0.7813
16921TIP3    H272179   1.161   3.183  16.584 -0.5172 -0.6614 -0.6318
16922TIP3   OH272180   0.307   4.091   5.586  0.0965 -0.2680  0.3335
16922TIP3    H172181   0.397   4.121   5.599 -0.5788  0.7530  3.2440
16922TIP3    H272182   0.312   3.996   5.585  1.1628 -0.2216  1.0140
16923TIP3   OH272183   0.839   6.270  16.658  0.5312 -0.0250 -0.2837
16923TIP3    H172184   0.762   6.309  16.698  0.5984 -2.8749  2.8940
16923TIP3    H272185   0.906   6.337  16.663 -0.6030  1.0448  0.7962
16924TIP3   OH272186   6.001   4.742   0.279  0.2478 -0.1699 -0.0423
16924TIP3    H172187   6.055   4.796   0.337 -0.2494 -0.3099  0.5528
16924TIP3    H272188   5.989   4.660   0.327  0.1911 -0.4479 -0.5304
16925TIP3   OH272189   0.629   5.837   3.428 -0.2269 -0.3878  0.1147
16925TIP3    H172190   0.673   5.754   3.442 -1.5043 -0.9926  0.6082
16925TIP3    H272191   0.558   5.838   3.492 -1.0321  0.4877 -0.7752
16926TIP3   OH272192   6.786   0.993   5.612  0.3418 -1.0561  0.2993
16926TIP3    H172193   6.816   1.022   5.698 -0.3078 -0.8794  0.4677
16926TIP3    H272194   6.864   1.000   5.556  0.1692  1.1680  0.2938
16927TIP3   OH272195   4.593   2.668   7.082  0.2126 -0.0337 -0.2100
16927TIP3    H172196   4.672   2.704   7.121  1.7647 -1.7559 -1.6870
16927TIP3    H272197   4.540   2.744   7.058  1.9142  1.1621 -0.1889
16928TIP3   OH272198   1.217   5.916  12.599  0.4146  0.0237 -0.9036
16928TIP3    H172199   1.307   5.913  12.630 -0.1029  1.3770  0.8056
16928TIP3    H272200   1.165   5.880  12.671 -0.5000  0.2674 -1.4261
16929TIP3   OH272201   2.530   3.430  14.104  0.0651  0.1104 -0.1704
16929TIP3    H172202   2.556   3.425  14.196 -2.1379  0.4929  0.5178
16929TIP3    H272203   2.475   3.353  14.090  0.4123  0.0413 -1.1726
16930TIP3   OH272204   6.100   6.443  10.734  0.3772 -0.0254  0.2978
16930TIP3    H172205   6.195   6.459  10.737  0.5458 -1.0691  0.7040
16930TIP3    H272206   6.066   6.482  10.814  0.6561 -0.8886  0.8375
16931TIP3   OH272207   4.768   4.162   3.856  0.0391 -0.1550  0.2085
16931TIP3    H172208   4.691   4.191   3.904  0.1409 -0.6629  0.6884
16931TIP3    H272209   4.737   4.148   3.766  0.1067  1.9279 -0.1690
16932TIP3   OH272210   1.108   3.860  12.864 -0.3572  0.1038  0.1247
16932TIP3    H172211   1.070   3.912  12.794  2.0462  0.4427 -0.9791
16932TIP3    H272212   1.144   3.783  12.821  0.3458 -0.1334  1.0971
16933TIP3   OH272213   1.145   4.505   3.682 -0.7754 -0.3380  0.2283
16933TIP3    H172214   1.099   4.562   3.620  0.2703  0.0526 -0.2047
16933TIP3    H272215   1.238   4.519   3.662 -0.4832 -1.3537  0.8783
16934TIP3   OH272216   1.461   3.964  16.886 -0.0957 -0.1782  0.3277
16934TIP3    H172217   1.403   3.957  16.962  1.5238 -0.3009  1.5706
16934TIP3    H272218   1.509   3.881  16.885 -0.1778 -0.2104 -0.8929
16935TIP3   OH272219   5.215   3.013   3.296 -0.1131  0.0558  0.3706
16935TIP3    H172220   5.210   2.974   3.209  0.2987  0.2754  0.2482
16935TIP3    H272221   5.292   3.069   3.293  0.1259 -0.2315  0.9976
16936TIP3   OH272222   5.049   1.509  16.634 -0.4422 -0.3339 -0.1950
16936TIP3    H172223   5.002   1.449  16.692  0.1772 -0.2204  0.4387
16936TIP3    H272224   5.051   1.465  16.549  0.5742 -1.5108  0.4275
16937TIP3   OH272225   4.414   4.747  15.821 -0.3768  0.0690  0.0773
16937TIP3    H172226   4.438   4.706  15.738  0.1353 -0.1296  0.3182
16937TIP3    H272227   4.368   4.827  15.796 -1.2068 -0.5569 -0.3856
16938TIP3   OH272228   5.850   5.633   2.527  0.0486  0.4340 -0.2484
16938TIP3    H172229   5.871   5.719   2.490  2.1884 -0.1862 -0.5065
16938TIP3    H272230   5.875   5.639   2.619  2.3949 -0.6344 -0.7903
16939TIP3   OH272231   0.472   5.352  14.701 -0.4143  0.6693  0.0114
16939TIP3    H172232   0.474   5.263  14.734  0.1666  0.6970  0.0566
16939TIP3    H272233   0.537   5.399  14.753 -1.2789  1.3093  0.5203
16940TIP3   OH272234   6.074   0.953  16.319 -0.5174  0.0206  0.6038
16940TIP3    H172235   6.122   0.900  16.383  0.5095  3.8250  3.1536
16940TIP3    H272236   5.984   0.954  16.351 -0.7177 -0.7774  0.0940
16941TIP3   OH272237   2.929   2.378   0.004  0.0413 -0.2281 -0.0033
16941TIP3    H172238   2.981   2.444  -0.040  0.2255 -0.6246 -0.3874
16941TIP3    H272239   2.925   2.406   0.096  1.1900 -0.3552  0.0913
16942TIP3   OH272240   0.777   1.038   2.902  0.0680 -0.0796 -0.6096
16942TIP3    H172241   0.724   1.106   2.860 -2.2056 -0.6941  1.1569
16942TIP3    H272242   0.765   0.961   2.847 -1.9009 -0.5460  0.4432
16943TIP3   OH272243   0.522   6.641   4.644 -0.3249  0.0862 -0.1753
16943TIP3    H172244   0.581   6.680   4.708 -0.2264 -2.1591  1.1322
16943TIP3    H272245   0.558   6.554   4.628 -2.1320 -0.5389 -0.9296
16944TIP3   OH272246   5.745   6.598   5.745 -0.1733  0.1379  0.1055
16944TIP3    H172247   5.827   6.616   5.791 -0.7338  0.7206  0.8859
16944TIP3    H272248   5.678   6.599   5.813 -0.9378  0.4720 -0.6381
16945TIP3   OH272249   5.890   0.071   3.633 -0.0125  0.3536  0.0517
16945TIP3    H172250   5.899  -0.022   3.611 -1.0146  0.0577  0.8521
16945TIP3    H272251   5.824   0.073   3.702  0.2490  1.6373  0.2728
16946TIP3   OH272252   2.237   1.750  10.372  0.1287 -0.5205 -0.1645
16946TIP3    H172253   2.144   1.731  10.358  0.0871 -0.5134  0.1047
16946TIP3    H272254   2.266   1.787  10.289  0.0083 -0.9963 -0.4218
16947TIP3   OH272255   2.399   2.501   2.337 -0.1925 -0.0396 -0.4764
16947TIP3    H172256   2.469   2.551   2.295  0.5590 -0.2199  0.5426
16947TIP3    H272257   2.328   2.565   2.348 -0.0271  0.2546 -1.1226
16948TIP3   OH272258   1.288   3.561   4.321  0.0080  0.6536 -0.5618
16948TIP3    H172259   1.208   3.568   4.269 -0.5729  0.8218  0.3315
16948TIP3    H272260   1.275   3.623   4.393  1.7832  2.1429 -1.4744
16949TIP3   OH272261   4.449   3.194  10.820  0.1592  0.6405  0.1286
16949TIP3    H172262   4.415   3.182  10.732  0.9632 -0.4165 -0.0537
16949TIP3    H272263   4.533   3.238  10.808  0.2961  0.4477  0.3569
16950TIP3   OH272264   1.268   4.845  13.211  0.6558  0.4296 -0.1054
16950TIP3    H172265   1.329   4.802  13.151 -0.1442  0.2738 -0.8257
16950TIP3    H272266   1.258   4.784  13.284 -0.2179 -0.4661 -0.9610
16951TIP3   OH272267   3.858   3.411  12.249 -0.0708 -0.6820 -0.0629
16951TIP3    H172268   3.841   3.505  12.260  0.5512 -0.5286 -0.4252
16951TIP3    H272269   3.915   3.406  12.173  1.1810 -1.2337  0.8987
16952TIP3   OH272270   4.108   1.547  12.987  0.4241 -0.0401  0.2178
16952TIP3    H172271   4.155   1.576  13.066 -0.1806 -1.8384  1.2626
16952TIP3    H272272   4.018   1.576  13.000  0.2869 -0.4870  0.2618
16953TIP3   OH272273   5.552   1.203   1.885 -0.1212 -0.1280 -0.3541
16953TIP3    H172274   5.552   1.108   1.895 -1.0838 -0.1784 -0.7230
16953TIP3    H272275   5.633   1.223   1.839 -0.5474 -0.9049 -1.4640
16954TIP3   OH272276   6.362   2.919  12.190  0.1369 -0.0984 -0.3607
16954TIP3    H172277   6.382   2.931  12.098  0.0851 -0.6459 -0.4473
16954TIP3    H272278   6.443   2.886  12.229  0.2830  0.5368 -0.1298
16955TIP3   OH272279   2.924   5.486  13.150 -1.0689 -0.1247 -0.4673
16955TIP3    H172280   2.839   5.444  13.140  0.3569 -3.1482 -0.5881
16955TIP3    H272281   2.981   5.438  13.089  1.1331  0.5570  1.0023
16956TIP3   OH272282   5.791   2.525  13.544  0.5760  0.0531  0.1150
16956TIP3    H172283   5.867   2.544  13.489  0.8902  1.0239  0.8721
16956TIP3    H272284   5.801   2.583  13.620  0.2239 -1.3666  1.2702
16957TIP3   OH272285   1.179   0.793   4.019 -1.1177  0.0852  0.0113
16957TIP3    H172286   1.084   0.787   4.034 -0.8734  0.2966  1.7412
16957TIP3    H272287   1.206   0.702   4.002 -1.3449 -0.2745  1.4525
16958TIP3   OH272288   6.181   1.199   5.401 -0.0683 -0.6610 -0.3152
16958TIP3    H172289   6.223   1.117   5.376 -0.6694 -0.7872 -0.9267
16958TIP3    H272290   6.092   1.192   5.368 -0.5318 -0.3236  0.8138
16959TIP3   OH272291   4.258   5.773  14.367 -0.1294 -0.3607  0.3305
16959TIP3    H172292   4.256   5.793  14.460  1.2748  4.1583 -0.4728
16959TIP3    H272293   4.167   5.778  14.339 -0.2451  1.2061  0.9430
16960TIP3   OH272294   6.191   0.702  13.956  0.0495  0.3773 -0.9147
16960TIP3    H172295   6.273   0.694  13.907  1.4129  0.4952  1.2785
16960TIP3    H272296   6.154   0.613  13.955  2.5051 -0.7615  1.9173
16961TIP3   OH272297   3.230   4.451  16.521 -0.1621  0.0800 -0.2038
16961TIP3    H172298   3.187   4.366  16.512 -0.7146  0.0972  1.9304
16961TIP3    H272299   3.208   4.498  16.440 -0.5346 -1.5018 -1.0338
16962TIP3   OH272300   0.446   0.266  12.972 -0.0171  0.6357 -0.6165
16962TIP3    H172301   0.456   0.279  12.878  0.0061 -2.9265 -1.1550
16962TIP3    H272302   0.530   0.229  13.000 -0.5803  0.2198  0.5315
16963TIP3   OH272303   1.838   5.609   2.766 -0.1544 -0.6841  0.2801
16963TIP3    H172304   1.792   5.690   2.744 -0.4256 -0.0867  2.8905
16963TIP3    H272305   1.923   5.637   2.798 -0.1392 -1.4377  0.9187
16964TIP3   OH272306   2.839   1.859   1.930  0.2394 -0.3010 -0.3452
16964TIP3    H172307   2.844   1.764   1.919  0.2362 -0.2958 -0.3961
16964TIP3    H272308   2.916   1.882   1.983 -0.0241 -0.3898  0.0756
16965TIP3   OH272309   5.921   6.520  16.588  0.1785 -0.2645 -0.0004
16965TIP3    H172310   5.853   6.472  16.636  0.4468 -0.5259  0.1197
16965TIP3    H272311   5.962   6.577  16.654  0.5650 -0.6439  0.0941
16966TIP3   OH272312   4.453   4.095   2.710 -0.0091  0.1076 -0.2887
16966TIP3    H172313   4.430   4.039   2.636  1.6217 -0.8318 -0.1153
16966TIP3    H272314   4.420   4.182   2.687 -0.0728 -0.3242 -1.8283
16967TIP3   OH272315   5.247   6.303   4.998  0.4907  0.0318 -0.1635
16967TIP3    H172316   5.232   6.282   5.090  0.1430 -2.2741 -0.7227
16967TIP3    H272317   5.333   6.346   4.997  0.5663 -0.0674  1.2229
16968TIP3   OH272318   2.518   5.148   6.134 -0.2764  0.1571  0.0756
16968TIP3    H172319   2.457   5.080   6.105  0.8194 -0.9897  0.3942
16968TIP3    H272320   2.489   5.171   6.222  0.0678 -0.7855  0.4398
16969TIP3   OH272321   3.277   6.086   0.724  0.1582  0.4656 -0.2849
16969TIP3    H172322   3.302   6.029   0.651  0.1114 -0.8206  0.6819
16969TIP3    H272323   3.183   6.072   0.733  0.1229  0.8135 -0.1432
16970TIP3   OH272324   0.643   5.737  12.033  0.0956 -0.4248  0.4361
16970TIP3    H172325   0.580   5.804  12.060 -0.6658 -1.1659  0.5083
16970TIP3    H272326   0.729   5.779  12.045 -0.3543  0.3628  0.9543
16971TIP3   OH272327   5.898   0.588  13.896  0.3532 -0.5155 -0.2676
16971TIP3    H172328   5.920   0.654  13.961  0.5759 -1.4651  0.6440
16971TIP3    H272329   5.817   0.548  13.929  0.1655 -0.6386 -0.8620
16972TIP3   OH272330   1.214   0.397  16.458 -0.0854 -0.0998  0.3626
16972TIP3    H172331   1.161   0.376  16.534  0.2951 -0.7611  0.4518
16972TIP3    H272332   1.160   0.457  16.407 -0.7092 -0.3660  0.7023
16973TIP3   OH272333   2.891   6.718  11.957  0.5975  0.7044 -0.4237
16973TIP3    H172334   2.953   6.714  11.884  0.8522  0.3150 -0.1885
16973TIP3    H272335   2.879   6.627  11.983  1.7253  0.9429  1.0453
16974TIP3   OH272336   2.241   0.132  14.204 -0.4510  0.1074 -0.1158
16974TIP3    H172337   2.332   0.160  14.202 -0.5423  0.4510  0.5439
16974TIP3    H272338   2.192   0.209  14.234 -1.0724  0.2277 -1.4279
16975TIP3   OH272339   4.194   0.143  14.077 -0.3037  0.6500  0.3512
16975TIP3    H172340   4.191   0.051  14.105  1.0391  0.1693 -1.0043
16975TIP3    H272341   4.244   0.142  13.996 -1.3784  2.4405 -0.3651
16976TIP3   OH272342   2.772   2.953  11.195  0.2099 -0.5617  0.0232
16976TIP3    H172343   2.756   2.960  11.289 -0.9315  0.7031 -0.2507
16976TIP3    H272344   2.859   2.992  11.182 -0.6051  1.3764  0.2557
16977TIP3   OH272345   6.117   2.067  17.031 -0.2932  0.0942  0.2531
16977TIP3    H172346   6.185   2.118  16.986 -0.2469  1.0120  1.3324
16977TIP3    H272347   6.035   2.099  16.995 -0.1905 -0.5020 -0.5271
16978TIP3   OH272348   6.603   4.158   0.661 -0.0091 -0.0856  0.3846
16978TIP3    H172349   6.672   4.108   0.705  0.0330  1.5410  2.2243
16978TIP3    H272350   6.649   4.232   0.621 -0.2492 -0.7972 -1.2930
16979TIP3   OH272351   0.778   0.203  13.275 -0.4615 -0.1285  0.4203
16979TIP3    H172352   0.756   0.193  13.182  0.2746 -3.0397  0.5126
16979TIP3    H272353   0.846   0.270  13.276  0.8516 -1.3924 -1.3536
16980TIP3   OH272354   2.227   0.047  16.665  0.3764 -0.0494 -0.4261
16980TIP3    H172355   2.290   0.117  16.683  0.2054  0.0092 -0.0480
16980TIP3    H272356   2.141   0.090  16.670  0.2276 -0.4527  0.6440
16981TIP3   OH272357   5.893   1.792   1.465 -0.2113 -0.0227  0.3874
16981TIP3    H172358   5.878   1.720   1.405 -0.2074 -0.3411  0.7697
16981TIP3    H272359   5.867   1.870   1.416  0.2985 -0.2276 -0.2150
16982TIP3   OH272360   4.834   0.109   4.498  0.1403 -0.1033  0.1918
16982TIP3    H172361   4.906   0.073   4.549  0.7415  3.0038  1.6637
16982TIP3    H272362   4.797   0.178   4.554 -2.9963 -0.5992 -1.1701
16983TIP3   OH272363   5.128   5.843  12.162  0.1776 -0.1288 -0.5927
16983TIP3    H172364   5.127   5.848  12.258 -0.2665 -1.0253 -0.5339
16983TIP3    H272365   5.193   5.907  12.135 -1.8262  2.3031  0.1703
16984TIP3   OH272366   1.090   5.599  13.005  0.4357 -0.1645  0.2381
16984TIP3    H172367   1.069   5.677  12.955  0.6440  0.7688  1.5700
16984TIP3    H272368   1.170   5.565  12.964  1.1365  1.1175  0.5268
16985TIP3   OH272369   1.294   5.290  16.216 -0.0700 -0.2240  0.2888
16985TIP3    H172370   1.274   5.253  16.302 -0.0986 -1.0310 -0.0678
16985TIP3    H272371   1.250   5.375  16.217 -0.9069 -0.6477  0.6981
16986TIP3   OH272372   6.167   2.785  16.251  0.1411 -0.2376  0.5502
16986TIP3    H172373   6.220   2.772  16.172  0.0986  0.8037  0.3436
16986TIP3    H272374   6.155   2.880  16.256 -2.0373 -0.4823  0.3710
16987TIP3   OH272375   3.732   1.542   0.031 -0.3385  0.8510  0.1715
16987TIP3    H172376   3.654   1.532  -0.023 -0.7593 -2.2143  1.2576
16987TIP3    H272377   3.788   1.468   0.006 -0.0989 -0.0202  3.1375
16988TIP3   OH272378   4.560   1.114  15.104 -0.0281 -0.0082  0.3246
16988TIP3    H172379   4.621   1.155  15.043 -0.2381  1.4590  1.0780
16988TIP3    H272380   4.488   1.083  15.049  0.0592  0.7981 -0.2554
16989TIP3   OH272381   5.933   3.746   5.776 -0.0835  0.1560  0.1747
16989TIP3    H172382   5.995   3.810   5.811  1.3007 -1.6621  1.1549
16989TIP3    H272383   5.924   3.769   5.683  0.0501  2.0017  0.6023
16990TIP3   OH272384   1.093   3.131  12.284 -0.2852 -0.3880  0.4058
16990TIP3    H172385   1.112   3.038  12.288 -1.6066 -0.7229 -0.8003
16990TIP3    H272386   1.003   3.139  12.315 -1.6562 -0.0631 -3.3374
16991TIP3   OH272387   1.607   6.499  12.450 -0.5963  0.1714 -0.2259
16991TIP3    H172388   1.540   6.493  12.519  0.6508 -1.7043  0.8676
16991TIP3    H272389   1.666   6.568  12.481 -1.6313  1.3639 -0.8659
16992TIP3   OH272390   2.410   5.593   2.868 -0.0733 -0.7127 -0.4332
16992TIP3    H172391   2.322   5.556   2.875 -0.3723 -0.0555 -0.6943
16992TIP3    H272392   2.442   5.596   2.958 -1.0996  0.9391 -0.0993
16993TIP3   OH272393   6.435   3.295   0.228 -0.0617  0.0409  0.2595
16993TIP3    H172394   6.476   3.311   0.313 -2.3934  0.9993  1.2469
16993TIP3    H272395   6.399   3.206   0.236 -1.1021  0.4939  0.6191
16994TIP3   OH272396   3.851   4.770   2.803 -0.1085  0.1045  0.2135
16994TIP3    H172397   3.945   4.754   2.797 -0.6482 -2.7984 -1.0263
16994TIP3    H272398   3.819   4.759   2.713 -1.8120 -0.1931  0.8447
16995TIP3   OH272399   3.335   0.800   5.874  0.3275  0.4191 -0.3793
16995TIP3    H172400   3.293   0.843   5.948  0.3429 -1.1647  0.5781
16995TIP3    H272401   3.276   0.817   5.800  0.3743  2.1065 -0.0437
16996TIP3   OH272402   6.711   3.403  16.289 -0.0750 -0.3790  0.1823
16996TIP3    H172403   6.645   3.392  16.221 -0.4097  1.0582  0.2622
16996TIP3    H272404   6.774   3.332  16.274 -0.1078 -0.0275 -1.6632
16997TIP3   OH272405   2.410   5.415   6.097  0.6886  0.3570  0.5810
16997TIP3    H172406   2.456   5.337   6.128 -0.7094 -0.3303  0.9418
16997TIP3    H272407   2.452   5.436   6.013 -0.1917 -1.9158 -0.4512
16998TIP3   OH272408   1.060   2.882  10.830 -0.0063  0.5252  0.4263
16998TIP3    H172409   1.114   2.854  10.903  0.0994  0.3045  0.2651
16998TIP3    H272410   1.015   2.961  10.861  0.4793  0.7647  0.5280
16999TIP3   OH272411   1.726   2.217   5.821 -0.0506  0.4077  0.4927
16999TIP3    H172412   1.786   2.291   5.816 -3.3657  3.1574 -0.1976
16999TIP3    H272413   1.653   2.249   5.874 -1.7442 -2.2433 -0.1591
17000TIP3   OH272414   2.434   6.499  14.814  0.6720 -0.0505  0.7909
17000TIP3    H172415   2.385   6.480  14.894  1.0037  1.7965  1.4550
17000TIP3    H272416   2.392   6.577  14.777  1.2803 -0.1771 -0.1943
17001TIP3   OH272417   2.726   2.628   4.673  0.2404  0.4746  0.4222
17001TIP3    H172418   2.726   2.670   4.587  1.3467 -0.5947 -0.1309
17001TIP3    H272419   2.805   2.661   4.716  0.8347 -0.5868  0.1843
17002TIP3   OH272420   4.333   5.211  11.937 -0.1465  0.4289  0.3876
17002TIP3    H172421   4.391   5.282  11.964  0.4256  0.7658 -1.7061
17002TIP3    H272422   4.371   5.133  11.977  0.8325  0.8819  0.3508
17003TIP3   OH272423   1.414   3.695  14.478 -0.3032  0.2507  1.1221
17003TIP3    H172424   1.381   3.610  14.449 -1.6782  0.5586  1.7547
17003TIP3    H272425   1.460   3.676  14.559 -2.5289  0.4053  2.4653
17004TIP3   OH272426   4.794   2.212  16.192  0.1482 -0.3895  0.0768
17004TIP3    H172427   4.844   2.290  16.216  0.5428 -0.6661  0.1670
17004TIP3    H272428   4.827   2.188  16.106 -0.1556 -0.3083 -0.0617
17005TIP3   OH272429   1.941   2.275  14.923 -0.1144 -0.0511 -0.9305
17005TIP3    H172430   1.954   2.235  15.009  2.7518  0.1466 -1.2489
17005TIP3    H272431   1.977   2.364  14.932 -0.4032  0.2006 -2.1482
17006TIP3   OH272432   3.800   2.940  16.785 -0.1823  0.0230 -0.4515
17006TIP3    H172433   3.885   2.928  16.828  0.2038 -0.0956 -1.2336
17006TIP3    H272434   3.817   2.920  16.693 -1.5877 -2.3019 -0.2464
17007TIP3   OH272435   6.603   1.812  11.618 -0.3223 -0.3425 -0.1606
17007TIP3    H172436   6.696   1.795  11.606  0.0503  0.8799  0.8629
17007TIP3    H272437   6.585   1.787  11.709 -0.5637  1.2110  0.2314
17008TIP3   OH272438   0.743   2.774   4.963 -0.2141  0.2668 -0.0938
17008TIP3    H172439   0.733   2.856   4.915  0.2946  0.0709 -0.5370
17008TIP3    H272440   0.721   2.797   5.053  4.0466  1.9419  0.6631
17009TIP3   OH272441   1.589   1.350   5.711 -0.0420 -0.1132 -0.5699
17009TIP3    H172442   1.639   1.418   5.755 -0.8851 -0.4157  0.9217
17009TIP3    H272443   1.532   1.315   5.780 -3.0070  0.8828 -2.4324
17010TIP3   OH272444   0.037   4.047  14.652 -0.2498  0.6046  0.3619
17010TIP3    H172445  -0.039   4.082  14.698  0.2922  0.1616  1.6036
17010TIP3    H272446   0.100   4.026  14.721  0.7769  0.4210 -0.6128
17011TIP3   OH272447   5.567   5.696  17.116 -0.0336  0.0774  0.5780
17011TIP3    H172448   5.523   5.619  17.153  2.0642 -0.4486  2.0594
17011TIP3    H272449   5.508   5.769  17.136 -1.4138 -0.9275  0.3064
17012TIP3   OH272450   5.363   1.767  12.652  0.4899 -0.6160  0.0825
17012TIP3    H172451   5.365   1.836  12.586  1.1419  0.1105  0.8512
17012TIP3    H272452   5.305   1.799  12.721 -1.5452 -2.0996 -0.8962
17013TIP3   OH272453   1.840   1.878  16.045  0.3295  0.0424  0.0753
17013TIP3    H172454   1.794   1.926  15.976 -0.7914  0.1549  0.8813
17013TIP3    H272455   1.923   1.853  16.006  0.3003  1.3499 -0.8521
17014TIP3   OH272456   6.180   4.116  14.594 -0.0058 -0.5818 -0.3337
17014TIP3    H172457   6.179   4.129  14.689 -0.6342  0.8089 -0.5204
17014TIP3    H272458   6.108   4.054  14.577  0.4090 -1.1955  0.1433
17015TIP3   OH272459   0.686   1.557   3.798 -0.5742  0.1563 -0.0196
17015TIP3    H172460   0.694   1.635   3.852  3.4556 -1.0909  1.3367
17015TIP3    H272461   0.703   1.587   3.709  2.1327  0.6869  0.6439
17016TIP3   OH272462   6.586   3.820   5.801 -0.3777 -0.4611  0.5860
17016TIP3    H172463   6.612   3.845   5.712 -0.5507 -1.5593  0.2169
17016TIP3    H272464   6.490   3.822   5.800 -0.3738 -0.1053  0.8567
17017TIP3   OH272465   1.766   2.294   4.703  0.0783  0.7572 -0.3786
17017TIP3    H172466   1.858   2.321   4.705  0.3270  0.0909 -2.0312
17017TIP3    H272467   1.758   2.230   4.773  0.9634  0.5592 -0.4618
17018TIP3   OH272468   6.282   2.717   5.679  0.1515  0.0887 -0.8210
17018TIP3    H172469   6.210   2.733   5.619 -0.8536  1.4639  0.7081
17018TIP3    H272470   6.270   2.626   5.707 -0.4661  0.0363 -1.2446
17019TIP3   OH272471   4.977   2.975   1.301  0.3028 -0.2695 -0.1182
17019TIP3    H172472   4.954   3.002   1.212 -0.8479  1.2400  0.6243
17019TIP3    H272473   4.910   3.014   1.357  0.7162 -1.6216  1.3808
17020TIP3   OH272474   3.023   5.147  16.621 -0.1011  0.3243  0.1329
17020TIP3    H172475   3.100   5.203  16.614 -0.8293  1.3395  0.2551
17020TIP3    H272476   2.949   5.205  16.605 -1.0217 -0.0988  2.6911
17021TIP3   OH272477   0.229   1.296  16.434  0.1504  0.1530 -0.3300
17021TIP3    H172478   0.146   1.267  16.396 -0.3751 -0.7408  1.4648
17021TIP3    H272479   0.287   1.220  16.428  0.4206  0.3624 -0.3901
17022TIP3   OH272480   2.640   5.999  13.129  0.3106  0.0662  0.2490
17022TIP3    H172481   2.637   6.086  13.168 -0.7477  0.6449 -1.0905
17022TIP3    H272482   2.621   5.939  13.202  3.4446  0.7346  1.7086
17023TIP3   OH272483   5.042   3.344  11.866  0.3600 -0.3017 -0.3222
17023TIP3    H172484   4.998   3.268  11.905  0.1200  0.4444  0.8904
17023TIP3    H272485   5.062   3.316  11.776  0.4110 -1.8432  0.1438
17024TIP3   OH272486   2.025   6.576  13.475  0.1074 -0.2150 -0.5961
17024TIP3    H172487   2.085   6.594  13.547  0.9733  1.0624 -1.6086
17024TIP3    H272488   2.081   6.537  13.407 -0.6312 -1.0759 -0.7194
17025TIP3   OH272489   4.765   0.544  10.332  0.4951  0.2765  0.6019
17025TIP3    H172490   4.810   0.597  10.267  0.2474  0.2681  0.4212
17025TIP3    H272491   4.796   0.455  10.316  2.7345  0.7010  2.4597
17026TIP3   OH272492   1.177   1.184   0.667  0.1448  0.2709 -0.0757
17026TIP3    H172493   1.272   1.187   0.659  0.1794  1.4050  0.5943
17026TIP3    H272494   1.149   1.275   0.657 -0.4844  0.6488  3.9194
17027TIP3   OH272495   3.785   5.307  12.186 -0.3390  0.3049  0.3105
17027TIP3    H172496   3.794   5.232  12.128  2.0557 -0.6284  1.8015
17027TIP3    H272497   3.713   5.285  12.245 -0.4492 -0.2645 -0.0387
17028TIP3   OH272498   2.244   6.084  15.676 -0.3227  0.2788  0.1234
17028TIP3    H172499   2.222   5.992  15.692 -2.4536  0.8220  0.4120
17028TIP3    H272500   2.258   6.089  15.581  1.5629 -0.6869  0.3234
17029TIP3   OH272501   1.925   6.260   0.203 -0.5266  0.0049 -0.0088
17029TIP3    H172502   1.875   6.203   0.145  2.2751 -1.3379 -1.2287
17029TIP3    H272503   1.927   6.214   0.287 -0.5057 -0.3955 -0.2299
17030TIP3   OH272504   3.535   2.285   1.079  0.1175  0.4742  0.2791
17030TIP3    H172505   3.510   2.215   1.018  1.2362 -0.2602  0.6313
17030TIP3    H272506   3.533   2.243   1.165  1.3046  0.7236  0.4388
17031TIP3   OH272507   6.781   5.170  11.178  0.0083 -0.0974  0.0180
17031TIP3    H172508   6.822   5.084  11.163  2.2686  0.5887  1.9457
17031TIP3    H272509   6.700   5.151  11.225  0.4783 -1.1724  0.4038
17032TIP3   OH272510   2.172   4.052   3.892  0.4180  0.3912 -0.4535
17032TIP3    H172511   2.128   3.974   3.925 -0.0018  1.1307  0.7407
17032TIP3    H272512   2.135   4.065   3.804  0.7468 -0.9405 -0.8000
17033TIP3   OH272513   4.965   5.806  11.161 -0.1832  0.0461  0.1744
17033TIP3    H172514   4.959   5.836  11.071  0.0281  0.6584  0.3648
17033TIP3    H272515   4.927   5.718  11.159  0.7145 -0.3294 -0.6857
17034TIP3   OH272516   4.235   0.634   0.748 -0.5262 -0.3545  0.1344
17034TIP3    H172517   4.186   0.587   0.681 -1.9627  0.9164  0.2577
17034TIP3    H272518   4.195   0.721   0.751  0.9683  0.3361  1.0812
17035TIP3   OH272519   5.784   3.916  11.753 -0.7495 -0.9893 -0.5320
17035TIP3    H172520   5.876   3.925  11.779 -0.3264  0.9040 -2.4780
17035TIP3    H272521   5.738   3.984  11.802 -1.1033 -1.8379  0.3265
17036TIP3   OH272522   4.026   6.037  12.900 -0.1062 -0.6581 -0.1521
17036TIP3    H172523   4.058   6.037  12.990  0.6806 -0.6824 -0.4296
17036TIP3    H272524   3.949   6.094  12.902  0.3350 -0.0712  0.3838
17037TIP3   OH272525   2.171   6.466   3.402  0.5313  0.2263 -0.1187
17037TIP3    H172526   2.076   6.479   3.403  0.8141  2.6461 -0.6487
17037TIP3    H272527   2.183   6.372   3.412 -1.9231 -0.0924  0.0584
17038TIP3   OH272528   6.739   5.602   2.170  0.2139 -0.6463 -0.4789
17038TIP3    H172529   6.689   5.552   2.105  0.1265 -0.6883 -0.3792
17038TIP3    H272530   6.700   5.579   2.254 -0.6434  0.5360 -0.5359
17039TIP3   OH272531   0.413   3.911  16.745  0.8595  0.5472  0.1367
17039TIP3    H172532   0.335   3.953  16.782  0.4374 -0.3549  0.2971
17039TIP3    H272533   0.468   3.892  16.821  0.1561 -0.9744  0.2902
17040TIP3   OH272534   5.189   1.137  15.185 -0.4201  0.6135  0.3654
17040TIP3    H172535   5.203   1.231  15.175 -0.5413  0.6480  0.5075
17040TIP3    H272536   5.162   1.107  15.099  0.3933  0.5708  0.1208
17041TIP3   OH272537   1.834   0.439  16.857  0.4832  0.1045  0.9405
17041TIP3    H172538   1.831   0.517  16.913  0.6267  1.3761 -0.7705
17041TIP3    H272539   1.848   0.474  16.769  2.1419 -1.9771  0.3587
17042TIP3   OH272540   0.944   3.836  12.487 -0.2612 -0.0843  0.0233
17042TIP3    H172541   1.028   3.821  12.443  0.2151  1.1627  0.4876
17042TIP3    H272542   0.881   3.846  12.415  0.0904 -0.4035 -0.3322
17043TIP3   OH272543   0.903   6.317   0.382  0.0897 -0.3506  0.8917
17043TIP3    H172544   0.999   6.325   0.387  0.2623 -1.7979 -0.0046
17043TIP3    H272545   0.875   6.401   0.345  0.9367  0.3679  1.8256
17044TIP3   OH272546   4.879   3.086  10.760  0.1323  0.1382 -0.3634
17044TIP3    H172547   4.814   3.016  10.755  0.4327 -0.0546 -1.6482
17044TIP3    H272548   4.873   3.130  10.676  2.3150 -0.4527 -0.8531
17045TIP3   OH272549   2.590   1.174   5.256 -0.3115 -0.5218 -0.4225
17045TIP3    H172550   2.670   1.131   5.287 -0.5053 -0.1405  0.6454
17045TIP3    H272551   2.600   1.265   5.282 -1.6637 -0.7258  0.9307
17046TIP3   OH272552   1.969   0.270  16.350 -0.1824 -0.0825 -0.5540
17046TIP3    H172553   1.998   0.354  16.314  1.5727  0.2457  1.5501
17046TIP3    H272554   2.050   0.221  16.365 -0.9298 -0.6308  1.8692
17047TIP3   OH272555   4.348   1.560   0.140  0.0055  0.3476  0.2566
17047TIP3    H172556   4.392   1.642   0.163  0.5454  0.2353 -0.3645
17047TIP3    H272557   4.331   1.568   0.046 -1.0407  0.2667  0.4349
17048TIP3   OH272558   1.316   3.074  13.244  0.1544  0.2488 -0.3645
17048TIP3    H172559   1.376   3.034  13.307 -1.4715 -0.4227  0.8119
17048TIP3    H272560   1.359   3.063  13.160  1.9452  0.3131  0.5193
17049TIP3   OH272561   2.873   3.360   3.227 -0.2640  0.4303 -0.2513
17049TIP3    H172562   2.912   3.416   3.161 -1.6605  0.4579 -1.0650
17049TIP3    H272563   2.828   3.420   3.287  0.4140  0.3539  0.3496
17050TIP3   OH272564   5.309   3.432  14.918 -0.0439 -0.3939 -0.4377
17050TIP3    H172565   5.254   3.510  14.908  0.8329  0.0074 -2.3969
17050TIP3    H272566   5.292   3.402  15.007 -1.6493  1.0820 -0.2182
17051TIP3   OH272567   3.925   6.699  14.397  0.4053 -0.4089  0.3475
17051TIP3    H172568   3.974   6.717  14.477 -0.0313  1.5743  0.2034
17051TIP3    H272569   3.922   6.783  14.351 -0.4051 -1.2303 -1.1679
17052TIP3   OH272570   6.467   4.364   2.203  0.1793 -0.0598  0.6779
17052TIP3    H172571   6.519   4.286   2.221  1.4732  0.2902 -1.2971
17052TIP3    H272572   6.508   4.433   2.255 -0.5240 -0.5178  1.8660
17053TIP3   OH272573   4.621   0.222  16.141  0.5916 -0.5913 -0.2604
17053TIP3    H172574   4.686   0.259  16.081  0.9455 -0.2872  0.2960
17053TIP3    H272575   4.652   0.248  16.228 -0.7364  0.2807 -0.0290
17054TIP3   OH272576   4.529   5.704  16.357  0.7303  0.1342 -0.0572
17054TIP3    H172577   4.595   5.750  16.306  2.0328 -0.2077  1.2824
17054TIP3    H272578   4.548   5.611  16.344 -0.6182  0.0010 -1.1127
17055TIP3   OH272579   2.910   4.908  15.944  0.6950 -0.1642 -0.0151
17055TIP3    H172580   2.843   4.887  16.010  0.4161  0.3384 -0.1288
17055TIP3    H272581   2.986   4.937  15.995  0.1433  1.1806  0.0778
17056TIP3   OH272582   0.723   2.285   3.000 -0.7425 -0.2556  0.1792
17056TIP3    H172583   0.718   2.193   2.976 -0.7080 -0.8236  2.3294
17056TIP3    H272584   0.691   2.289   3.090  0.4435  1.6380  0.5434
17057TIP3   OH272585   4.037   0.342   5.220 -0.1968  0.1114 -0.6400
17057TIP3    H172586   3.986   0.295   5.286  0.0679  1.4604  0.5565
17057TIP3    H272587   3.979   0.410   5.187 -0.5109 -0.9071 -2.2139
17058TIP3   OH272588   1.835   2.766  12.561  0.3736 -0.7562  0.1512
17058TIP3    H172589   1.749   2.739  12.593 -0.2481  1.2586  0.2328
17058TIP3    H272590   1.824   2.773  12.466 -0.1008  1.3276  0.3378
17059TIP3   OH272591   2.405   6.113  15.070  0.3067 -0.5862  0.2699
17059TIP3    H172592   2.450   6.073  15.145  0.7140 -0.3541  0.1528
17059TIP3    H272593   2.466   6.101  14.997 -0.7315 -2.1491 -0.3648
17060TIP3   OH272594   4.868   1.195  15.187  0.4250 -0.1337 -0.1009
17060TIP3    H172595   4.893   1.126  15.125 -0.8592 -1.1980  0.5309
17060TIP3    H272596   4.774   1.185  15.197  0.3262  1.3156  0.5099
17061TIP3   OH272597   0.547   1.424   2.352  0.4918 -0.4620 -0.4631
17061TIP3    H172598   0.509   1.394   2.269 -0.2565  1.9316 -1.0072
17061TIP3    H272599   0.480   1.405   2.417  0.8624 -1.8387 -0.4478
17062TIP3   OH272600   2.866   6.500   2.434 -0.9737 -0.5238 -0.1805
17062TIP3    H172601   2.788   6.551   2.411 -1.5416 -1.3547 -0.1498
17062TIP3    H272602   2.862   6.493   2.530 -0.1462  0.5469 -0.0679
17063TIP3   OH272603   0.894   2.744   1.652  0.7287 -0.4077 -0.8694
17063TIP3    H172604   0.978   2.730   1.609  0.3350  0.4453 -1.9463
17063TIP3    H272605   0.832   2.753   1.580 -0.1244 -0.0762 -0.0964
17064TIP3   OH272606   3.348   5.382   0.737  0.1381 -0.2092  0.2488
17064TIP3    H172607   3.336   5.359   0.646 -2.9768  2.3218 -0.0716
17064TIP3    H272608   3.415   5.451   0.736 -0.0293 -0.0552 -0.1483
17065TIP3   OH272609   2.727   5.887  11.353  0.1274  0.3462 -0.2474
17065TIP3    H172610   2.698   5.905  11.442 -0.5183  2.1782 -0.7973
17065TIP3    H272611   2.806   5.939  11.342 -0.7448  1.5085 -1.2680
17066TIP3   OH272612   2.723   3.531  16.733  0.1360  0.0830 -0.0535
17066TIP3    H172613   2.675   3.532  16.816 -2.4170  0.9656 -1.4828
17066TIP3    H272614   2.702   3.446  16.694  1.8883 -0.6143  0.5063
17067TIP3   OH272615   2.332   0.914   0.101  0.0017 -0.0550 -0.5631
17067TIP3    H172616   2.410   0.968   0.114 -0.0895 -0.1194  0.2629
17067TIP3    H272617   2.363   0.842   0.047  0.7122 -0.4959  0.4034
17068TIP3   OH272618   0.145   5.972   0.565 -0.1450 -0.1034 -0.6466
17068TIP3    H172619   0.236   5.949   0.584 -0.5875 -1.1501  0.2011
17068TIP3    H272620   0.108   5.996   0.650 -1.0574 -1.0585 -0.7784
17069TIP3   OH272621   6.279   2.781   3.838 -0.1406  0.2969 -0.1068
17069TIP3    H172622   6.322   2.854   3.882  0.4999 -0.5930  0.7789
17069TIP3    H272623   6.196   2.770   3.886 -1.3284  1.9411 -1.7444
17070TIP3   OH272624   3.914   2.791  11.419 -0.0001  0.1875  0.0163
17070TIP3    H172625   3.903   2.886  11.410  0.6616  0.0832 -2.3971
17070TIP3    H272626   4.008   2.779  11.431  0.0322 -0.1952 -0.5752
17071TIP3   OH272627   1.117   0.998  11.566  0.2522 -0.4637 -0.3158
17071TIP3    H172628   1.125   1.074  11.623 -1.1542  0.6231 -1.5616
17071TIP3    H272629   1.206   0.963  11.560  1.0775  1.6423 -0.5256
17072TIP3   OH272630   0.338   0.942  15.462  0.6894  0.6556 -0.0984
17072TIP3    H172631   0.400   0.917  15.393  1.3772  0.0390  0.7446
17072TIP3    H272632   0.390   0.948  15.541 -0.2963  0.2972  0.5925
17073TIP3   OH272633   0.012   2.686   5.572 -0.3346 -0.1081  0.8979
17073TIP3    H172634   0.085   2.724   5.622 -0.7552  1.9877 -0.0226
17073TIP3    H272635  -0.066   2.713   5.620 -0.6030 -0.7426  0.8223
17074TIP3   OH272636   6.223   0.828   1.803 -0.2228 -0.3131 -0.1182
17074TIP3    H172637   6.165   0.838   1.728 -0.1433  0.2485 -0.1066
17074TIP3    H272638   6.189   0.752   1.851  0.5201 -1.4986 -1.4432
17075TIP3   OH272639   0.727   6.686   3.993 -0.3254 -0.4135  0.2291
17075TIP3    H172640   0.808   6.691   3.942  0.3792 -0.6116  1.3165
17075TIP3    H272641   0.658   6.703   3.929  0.2234 -4.6982 -1.7020
17076TIP3   OH272642   5.317   0.144   3.379  0.0953 -0.5507  0.0566
17076TIP3    H172643   5.314   0.061   3.427 -1.0972 -0.1677  0.6687
17076TIP3    H272644   5.230   0.151   3.338  0.0396  0.5958  0.3581
17077TIP3   OH272645   4.521   4.417   2.078 -0.4376  0.7906  0.5858
17077TIP3    H172646   4.496   4.413   2.170  1.2542 -0.0222  1.0324
17077TIP3    H272647   4.578   4.494   2.072  0.5204  0.0891  0.5079
17078TIP3   OH272648   4.224   5.565  14.666  0.2391  0.1708 -0.1715
17078TIP3    H172649   4.195   5.656  14.662  1.1041  0.4141 -0.8752
17078TIP3    H272650   4.289   5.563  14.737  0.1506  0.0781 -0.0923
17079TIP3   OH272651   1.087   0.341   4.312 -0.3656 -0.5642  0.0022
17079TIP3    H172652   1.056   0.308   4.227 -2.2451  0.5299  0.2280
17079TIP3    H272653   1.063   0.433   4.313  2.6848  0.2710  0.3767
17080TIP3   OH272654   3.235   5.115  13.964  1.0472  0.5392  0.3322
17080TIP3    H172655   3.177   5.183  13.997  0.1477 -0.0266 -0.0902
17080TIP3    H272656   3.272   5.151  13.884  1.4093  0.9528  0.6762
17081TIP3   OH272657   2.041   4.447   3.913  0.2495  0.1264 -0.2818
17081TIP3    H172658   1.975   4.381   3.895 -0.7928  1.2002 -0.3971
17081TIP3    H272659   1.994   4.530   3.913  1.2107  0.7103  1.7226
17082TIP3   OH272660   5.798   2.804   1.832 -0.4759  0.4436 -0.7773
17082TIP3    H172661   5.808   2.722   1.784 -0.2440  0.9858 -1.6753
17082TIP3    H272662   5.816   2.782   1.923 -0.0767 -0.4305 -1.0697
17083TIP3   OH272663   0.157   3.213   0.455 -0.1808  0.0613  0.8834
17083TIP3    H172664   0.088   3.232   0.518 -1.3790 -1.8012  0.1750
17083TIP3    H272665   0.116   3.228   0.370  0.2381 -1.1438  0.4603
17084TIP3   OH272666   6.674   5.119   5.421  0.0652  0.5840 -0.0242
17084TIP3    H172667   6.622   5.039   5.411  0.0396  0.3340  1.8149
17084TIP3    H272668   6.724   5.126   5.340  0.1659 -1.3896 -0.1538
17085TIP3   OH272669   4.803   3.267   2.228  0.5072 -1.0128 -0.5231
17085TIP3    H172670   4.803   3.255   2.133  0.3136  0.3535 -0.7011
17085TIP3    H272671   4.711   3.285   2.250  0.3920 -2.2420  0.0530
17086TIP3   OH272672   5.748   3.237   2.996 -0.4153 -0.0307 -0.7535
17086TIP3    H172673   5.735   3.297   2.923  0.4108  0.5675 -0.4218
17086TIP3    H272674   5.821   3.181   2.968 -0.9962 -0.6954 -0.9443
17087TIP3   OH272675   5.634   4.749  11.853  0.2083  0.2865  0.5412
17087TIP3    H172676   5.583   4.748  11.933  0.4493  0.7868  0.7053
17087TIP3    H272677   5.657   4.657  11.837 -2.8798 -0.2955 -0.9189
17088TIP3   OH272678   1.663   4.116  12.722 -0.1444 -0.1503 -0.3635
17088TIP3    H172679   1.712   4.173  12.781  0.4307 -0.6425 -0.3610
17088TIP3    H272680   1.722   4.042  12.706 -1.2159 -1.1657  0.3242
17089TIP3   OH272681   2.019   2.886  15.503  0.4922  0.3233  0.0165
17089TIP3    H172682   2.113   2.876  15.516  0.4274 -0.4679 -0.0737
17089TIP3    H272683   1.983   2.799  15.521 -0.1274  0.4174 -0.7423
17090TIP3   OH272684   0.453   3.530  10.781  0.0567  0.1771 -0.2569
17090TIP3    H172685   0.389   3.513  10.712 -0.2738 -1.3432  0.4198
17090TIP3    H272686   0.431   3.469  10.851  0.1067  2.0244  1.4185
17091TIP3   OH272687   4.579   1.002  11.160  0.4399  0.2191 -0.2589
17091TIP3    H172688   4.536   0.946  11.095 -1.0962 -1.2158  1.9300
17091TIP3    H272689   4.668   1.014  11.127 -0.5686  0.2927 -3.0685
17092TIP3   OH272690   6.165   3.599   5.681 -0.7690  0.1060 -0.6145
17092TIP3    H172691   6.104   3.653   5.729 -0.2938  1.8927 -1.9605
17092TIP3    H272692   6.233   3.576   5.744 -1.2788  0.6009  0.1091
17093TIP3   OH272693   4.100   4.303   0.941  0.3071  0.2344 -0.0131
17093TIP3    H172694   4.082   4.293   1.034  0.3503  0.8568  0.0676
17093TIP3    H272695   4.026   4.261   0.898 -0.3488  1.0361  0.3147
17094TIP3   OH272696   4.863   2.930   1.724 -0.4127  0.0251 -0.7375
17094TIP3    H172697   4.839   2.908   1.814 -0.2550  0.3853 -0.6090
17094TIP3    H272698   4.950   2.970   1.732 -1.9386  3.4661 -0.6594
17095TIP3   OH272699   3.377   4.091   5.203 -0.1441 -0.3937  0.4372
17095TIP3    H172700   3.469   4.101   5.225 -0.4812 -0.3709  1.9514
17095TIP3    H272701   3.376   4.046   5.119  1.2459 -0.7754  0.6209
17096TIP3   OH272702   1.552   1.219   4.608 -0.7143  0.4068 -0.0352
17096TIP3    H172703   1.640   1.189   4.632 -0.4126  1.1066 -0.2358
17096TIP3    H272704   1.567   1.294   4.551 -1.4447 -0.3661 -1.2591
17097TIP3   OH272705   1.357   4.849  14.809 -0.7469 -0.2281  0.5576
17097TIP3    H172706   1.448   4.869  14.832 -1.0604  0.2241  1.4229
17097TIP3    H272707   1.351   4.754  14.819 -1.2787  0.0861  3.9761
17098TIP3   OH272708   4.906   3.355  11.517 -0.3538  0.4464 -0.1406
17098TIP3    H172709   4.830   3.304  11.545  1.4330 -0.9672  2.3484
17098TIP3    H272710   4.889   3.444  11.550 -0.9317  0.1614  0.3389
17099TIP3   OH272711   4.908   5.725   1.881 -0.4901  0.5304  0.2400
17099TIP3    H172712   4.925   5.642   1.926  0.0389  0.6524  0.2681
17099TIP3    H272713   4.974   5.729   1.812 -2.1494 -0.2819 -1.4197
17100TIP3   OH272714   4.703   0.828   4.291  0.3491  0.0559 -0.2428
17100TIP3    H172715   4.798   0.819   4.283  0.4089  1.2526 -1.1005
17100TIP3    H272716   4.683   0.797   4.379  1.5960  0.1921  0.0972
17101TIP3   OH272717   5.430   2.988  14.203  0.8113 -0.3105 -0.5909
17101TIP3    H172718   5.465   3.073  14.231  1.4945 -1.0056  0.7284
17101TIP3    H272719   5.502   2.927  14.219 -0.2087 -1.3839 -0.0631
17102TIP3   OH272720   1.696   3.353   2.847 -0.0627 -0.1684  0.1380
17102TIP3    H172721   1.640   3.423   2.814  0.4094 -0.5099 -1.4529
17102TIP3    H272722   1.699   3.367   2.941 -2.9387 -0.2314  0.2947
17103TIP3   OH272723   1.617   3.075   5.439 -0.0670 -0.2565  0.2804
17103TIP3    H172724   1.705   3.106   5.462  0.2230 -0.6366 -0.2844
17103TIP3    H272725   1.583   3.037   5.520 -0.2962  1.2128  0.8850
17104TIP3   OH272726   0.483   5.140   3.616 -0.3421 -0.1216 -0.2465
17104TIP3    H172727   0.540   5.091   3.676 -2.2042 -1.8529  0.1627
17104TIP3    H272728   0.401   5.091   3.616 -1.2655  1.3768 -2.1555
17105TIP3   OH272729   2.741   0.966  14.454  0.2356 -0.3467  0.3683
17105TIP3    H172730   2.773   0.887  14.410  0.6843 -0.8503  1.5487
17105TIP3    H272731   2.820   1.014  14.477  0.0112 -0.0943  0.6175
17106TIP3   OH272732   2.551   2.539   0.813  0.1799 -0.3922 -0.1992
17106TIP3    H172733   2.578   2.547   0.722  1.8237 -0.2823  0.2971
17106TIP3    H272734   2.617   2.483   0.854 -1.3160 -1.6073  0.6143
17107TIP3   OH272735   3.868   0.533   0.345 -0.1087  0.6076  0.1628
17107TIP3    H172736   3.917   0.463   0.302 -1.3784 -0.0081 -0.2963
17107TIP3    H272737   3.805   0.488   0.401  0.3710  1.4001  1.3681
17108TIP3   OH272738   3.698   4.529   1.725 -0.4375  0.2675  0.4195
17108TIP3    H172739   3.608   4.550   1.700 -0.2680  0.5036  0.0155
17108TIP3    H272740   3.741   4.613   1.733 -0.0681  0.1238 -0.0607
17109TIP3   OH272741   4.290   5.659   5.371  0.8449 -0.3554 -0.0539
17109TIP3    H172742   4.341   5.586   5.335  0.8981 -0.4711  0.2522
17109TIP3    H272743   4.310   5.658   5.464 -0.7471 -1.2437  0.2982
17110TIP3   OH272744   1.579   3.603   4.244 -0.0811 -0.2990 -0.0648
17110TIP3    H172745   1.621   3.680   4.206 -0.8216  0.8788  1.4647
17110TIP3    H272746   1.490   3.603   4.209 -0.8326  0.9057  1.7586
17111TIP3   OH272747   0.061   4.551  13.543  0.3170  0.2021 -0.1367
17111TIP3    H172748   0.009   4.571  13.465 -1.1220 -0.0188  0.7511
17111TIP3    H272749   0.022   4.470  13.578 -0.8163  1.7746  2.3313
17112TIP3   OH272750   3.286   0.500   3.931 -0.5401 -0.1979  1.0653
17112TIP3    H172751   3.210   0.463   3.975 -2.0184  2.6051  1.0107
17112TIP3    H272752   3.249   0.565   3.872  1.7427 -0.7356 -1.0010
17113TIP3   OH272753   0.646   0.177  13.883  0.0715 -0.3823  0.1687
17113TIP3    H172754   0.582   0.198  13.815 -1.2407 -0.6072  1.3169
17113TIP3    H272755   0.729   0.166  13.836  0.2742  4.3872 -0.8795
17114TIP3   OH272756   5.845   2.921   3.697 -0.1576  0.0219 -0.4283
17114TIP3    H172757   5.796   2.943   3.776  1.6721 -1.2309  1.1034
17114TIP3    H272758   5.869   2.829   3.709  0.4017 -0.0978 -2.3134
17115TIP3   OH272759   1.307   2.617   1.160 -0.2277  0.0184  0.1134
17115TIP3    H172760   1.296   2.530   1.198 -0.3037  0.5480  1.3202
17115TIP3    H272761   1.395   2.644   1.188 -0.6895  0.8378  0.8047
17116TIP3   OH272762   4.653   3.777  12.418  0.2521  0.3121  0.1624
17116TIP3    H172763   4.567   3.760  12.455  0.6509 -0.8806  0.5460
17116TIP3    H272764   4.689   3.691  12.397  0.8455  0.8575 -1.1606
17117TIP3   OH272765   1.485   0.852   3.679 -0.3166 -0.0210 -0.3112
17117TIP3    H172766   1.544   0.926   3.660 -1.9147  0.8860 -1.8056
17117TIP3    H272767   1.427   0.885   3.747 -0.3794 -0.2571 -0.2499
17118TIP3   OH272768   0.826   6.543  13.862  0.2980  0.2145  0.4036
17118TIP3    H172769   0.766   6.617  13.867  1.2452  0.9242  1.9152
17118TIP3    H272770   0.898   6.567  13.920  1.6909 -0.9391 -0.8069
17119TIP3   OH272771   1.310   0.227   4.192 -0.5218  0.7150 -0.1584
17119TIP3    H172772   1.252   0.273   4.252  0.8613 -0.2341  1.9445
17119TIP3    H272773   1.398   0.252   4.220  0.1476  0.3160 -1.8374
17120TIP3   OH272774   1.822   0.875   0.408 -0.1636  0.7610 -0.0298
17120TIP3    H172775   1.789   0.870   0.498 -0.7318 -1.8822 -0.3629
17120TIP3    H272776   1.917   0.861   0.417 -0.5948 -2.5646 -0.0777
17121TIP3   OH272777   0.090   2.420   3.531 -0.1442 -0.5465 -0.8688
17121TIP3    H172778   0.177   2.395   3.501 -0.4696 -1.9309 -0.6678
17121TIP3    H272779   0.031   2.356   3.491 -0.7276 -1.5784  1.5868
17122TIP3   OH272780   4.407   2.554  17.043 -0.4842  0.1284  0.4389
17122TIP3    H172781   4.340   2.588  17.102  0.5657  2.2374  0.4514
17122TIP3    H272782   4.464   2.502  17.100 -0.7633  0.2900  0.8739
17123TIP3   OH272783   6.348   2.696  12.978  0.5332  0.3156 -0.2597
17123TIP3    H172784   6.340   2.714  12.884 -1.3108 -2.0388 -0.6169
17123TIP3    H272785   6.402   2.618  12.983  0.8103  0.5603  0.6600
17124TIP3   OH272786   4.554   3.751  14.085  0.2361  0.0348 -0.6022
17124TIP3    H172787   4.620   3.762  14.153  0.5992 -0.6380 -0.8368
17124TIP3    H272788   4.503   3.675  14.114 -3.8356  3.6417  2.2973
17125TIP3   OH272789   5.990   5.859  14.653  0.2596 -0.0625 -0.4737
17125TIP3    H172790   5.901   5.845  14.621  0.9654 -0.5045 -2.3332
17125TIP3    H272791   6.036   5.897  14.578  1.7146 -0.1315  0.3638
17126TIP3   OH272792   5.344   4.206   1.119  0.0100 -0.0300 -0.5057
17126TIP3    H172793   5.428   4.198   1.074 -0.6239 -1.3521 -1.4992
17126TIP3    H272794   5.321   4.299   1.109  2.0544  0.6698  1.1136
17127TIP3   OH272795   0.413   6.304   1.474  0.1536  0.5081 -0.0414
17127TIP3    H172796   0.491   6.274   1.521  0.7307  0.5346 -0.9633
17127TIP3    H272797   0.439   6.388   1.436  0.2468 -0.2496 -1.7300
17128TIP3   OH272798   4.673   2.759   4.093 -0.1247  0.0674  0.4141
17128TIP3    H172799   4.688   2.668   4.120 -0.1635  0.1801  0.8249
17128TIP3    H272800   4.580   2.774   4.109 -0.0000  0.3525  0.8821
17129TIP3   OH272801   6.362   6.229   0.965 -0.1916  0.3355 -0.5534
17129TIP3    H172802   6.275   6.256   0.934 -0.3360 -0.0863 -0.5232
17129TIP3    H272803   6.360   6.246   1.059 -0.0776  0.7626 -0.6288
17130TIP3   OH272804   2.534   5.639   6.252  0.5332  0.3752 -0.5149
17130TIP3    H172805   2.580   5.585   6.316  0.4839  1.9783  0.9275
17130TIP3    H272806   2.503   5.578   6.185 -1.0558 -1.6281  1.9531
17131TIP3   OH272807   2.256   2.703  13.707  0.0254  0.0218 -0.8336
17131TIP3    H172808   2.183   2.728  13.650 -1.2609  0.9689  1.1813
17131TIP3    H272809   2.265   2.776  13.768  1.8377 -0.6664 -0.2328
17132TIP3   OH272810   3.075   3.094   1.059 -0.3806 -0.2492 -0.0378
17132TIP3    H172811   3.020   3.071   0.983  0.3865  0.6440 -0.8782
17132TIP3    H272812   3.025   3.161   1.105 -0.2253  0.1932 -0.5154
17133TIP3   OH272813   1.883   5.848   3.534 -0.1445 -0.4518 -0.4144
17133TIP3    H172814   1.908   5.827   3.624  0.4379  0.8862 -0.2484
17133TIP3    H272815   1.788   5.836   3.532 -0.2915  0.4229  0.6516
17134TIP3   OH272816   2.193   0.044  12.607  0.3405  0.6470 -0.5497
17134TIP3    H172817   2.181   0.103  12.681 -0.1014  1.9452 -1.6426
17134TIP3    H272818   2.133  -0.029  12.624 -0.5581  1.4681 -0.1774
17135TIP3   OH272819   5.992   5.943  10.916 -0.0709  0.6457 -0.2087
17135TIP3    H172820   5.971   5.858  10.880  0.9150  0.6005 -0.6987
17135TIP3    H272821   6.015   5.926  11.007  0.7128  0.3092 -0.4714
17136TIP3   OH272822   5.726   6.044   4.687 -0.1041  0.5222  0.0857
17136TIP3    H172823   5.739   6.024   4.779  0.4084 -1.7308 -0.4289
17136TIP3    H272824   5.638   6.012   4.668 -0.9820  2.7825  0.2359
17137TIP3   OH272825   4.239   0.255  15.020  0.2569 -0.4521 -0.2751
17137TIP3    H172826   4.300   0.313  14.974 -0.9446 -0.2439 -1.6609
17137TIP3    H272827   4.236   0.176  14.966 -0.3001 -0.6666  0.0656
17138TIP3   OH272828   0.414   0.163   2.920 -0.0696 -0.1026 -0.6514
17138TIP3    H172829   0.357   0.121   2.984 -0.5365  0.7524 -0.4963
17138TIP3    H272830   0.354   0.201   2.856  0.2940  1.1789 -0.2579
17139TIP3   OH272831   3.461   3.510   4.974 -0.0877 -0.1251  0.1308
17139TIP3    H172832   3.555   3.512   4.994 -0.3750  2.1980  1.4009
17139TIP3    H272833   3.457   3.524   4.879  0.7690  1.8596  0.3766
17140TIP3   OH272834   6.556   1.798  16.126 -0.2177  0.5417 -0.2626
17140TIP3    H172835   6.584   1.710  16.100  0.5410  1.1098 -1.3768
17140TIP3    H272836   6.510   1.784  16.209 -0.9048 -1.0175 -0.8881
17141TIP3   OH272837   1.198   6.612  12.134  0.2923  0.1366  0.1523
17141TIP3    H172838   1.284   6.578  12.161 -0.0804 -0.0780  1.0771
17141TIP3    H272839   1.150   6.535  12.105  0.4004  0.2534 -0.3410
17142TIP3   OH272840   0.985   4.723  12.416 -0.0802  0.2583 -0.2400
17142TIP3    H172841   0.987   4.697  12.508 -0.2562  1.0546 -0.0120
17142TIP3    H272842   1.034   4.655  12.371 -0.4668 -0.4349  0.3691
17143TIP3   OH272843   4.364   6.239  13.650 -0.2274  0.1075  0.1636
17143TIP3    H172844   4.286   6.225  13.597  0.4972 -0.8544 -0.6708
17143TIP3    H272845   4.349   6.189  13.730  0.3363 -1.6960 -0.8172
17144TIP3   OH272846   3.581   1.917  12.125 -0.0433  0.3337  0.3424
17144TIP3    H172847   3.641   1.873  12.064 -1.2935  0.3141 -0.8888
17144TIP3    H272848   3.614   1.892  12.212  0.5725 -1.2666 -0.3189
17145TIP3   OH272849   5.396   3.819   4.283 -0.0326  0.3539 -0.1640
17145TIP3    H172850   5.415   3.812   4.189 -0.9258  0.8391 -0.3858
17145TIP3    H272851   5.332   3.750   4.299  0.4943 -0.0603  0.2041
17146TIP3   OH272852   6.772   2.540  16.091  0.1105 -0.5365 -0.0862
17146TIP3    H172853   6.689   2.587  16.098 -0.1546 -1.1815  1.4196
17146TIP3    H272854   6.762   2.485  16.013 -1.2667 -1.3056  0.6066
17147TIP3   OH272855   0.612   5.772   5.298 -0.1986  0.3894 -0.0316
17147TIP3    H172856   0.531   5.816   5.272  1.2982  2.2823 -1.6766
17147TIP3    H272857   0.591   5.679   5.296 -2.4343  0.8795 -0.0311
17148TIP3   OH272858   2.720   6.740  14.353 -0.0665  0.1423 -0.0683
17148TIP3    H172859   2.648   6.700  14.403  0.2335  1.3526  1.3575
17148TIP3    H272860   2.689   6.828  14.332  0.7875  0.4779  0.0694
17149TIP3   OH272861   1.824   1.297   1.010 -0.4338 -0.3847  0.1093
17149TIP3    H172862   1.768   1.351   1.065 -1.2172 -1.9385  0.8765
17149TIP3    H272863   1.857   1.356   0.942 -0.4820  1.2523  1.5038
17150TIP3   OH272864   1.929   1.885  14.907 -0.0883 -0.2695 -0.2485
17150TIP3    H172865   2.005   1.852  14.859 -0.0763 -1.0577  0.2999
17150TIP3    H272866   1.965   1.920  14.989 -0.4092 -1.6039  0.4875
17151TIP3   OH272867   6.020   5.073  11.866  0.4215 -0.4530 -0.1937
17151TIP3    H172868   6.043   5.085  11.959 -0.5075 -0.1688  0.0095
17151TIP3    H272869   5.930   5.039  11.869 -0.1986  1.0792 -1.0296
17152TIP3   OH272870   2.559   4.076  16.027 -0.4040  0.0979 -0.7308
17152TIP3    H172871   2.614   4.071  16.105 -0.2832 -1.7526 -0.9058
17152TIP3    H272872   2.513   4.160  16.035  0.7933  0.6552  0.5126
17153TIP3   OH272873   1.306   6.095   1.855 -0.0729  0.5994  0.2358
17153TIP3    H172874   1.264   6.069   1.772 -3.2566  2.7158  1.1380
17153TIP3    H272875   1.251   6.057   1.923  0.1259  2.4226  1.4454
17154TIP3   OH272876   1.443   4.412   1.327  0.1694 -0.0296 -0.2984
17154TIP3    H172877   1.416   4.496   1.366 -0.6981 -0.8794  0.9904
17154TIP3    H272878   1.532   4.399   1.359 -0.4203 -0.5615  1.1855
17155TIP3   OH272879   4.043   5.175   5.783  0.2596  0.0366  0.2933
17155TIP3    H172880   4.068   5.204   5.695 -0.7340  0.9415  0.3022
17155TIP3    H272881   4.024   5.256   5.830  0.5113 -0.4599  1.2655
17156TIP3   OH272882   2.727   0.508   1.779 -0.4566  0.5857  0.2553
17156TIP3    H172883   2.686   0.531   1.695 -1.4335  0.3846  0.6637
17156TIP3    H272884   2.656   0.469   1.830  0.8333 -2.1463  0.0631
17157TIP3   OH272885   6.748   3.695  16.323 -0.0002  0.1650 -0.3102
17157TIP3    H172886   6.742   3.606  16.288 -0.7587  0.1758 -0.2181
17157TIP3    H272887   6.672   3.703  16.381  0.6845  0.4935  0.5559
17158TIP3   OH272888   1.117   3.007   1.653  0.6425 -0.1104 -0.0742
17158TIP3    H172889   1.056   3.081   1.652  1.1059  0.2676 -0.9635
17158TIP3    H272890   1.105   2.967   1.739 -0.6981  0.0987 -0.1539
17159TIP3   OH272891   6.567   3.262   6.813  0.3846  0.3548  0.1810
17159TIP3    H172892   6.635   3.203   6.846  0.8249  0.5636 -0.3639
17159TIP3    H272893   6.583   3.268   6.719  0.3449  1.3684  0.2406
17160TIP3   OH272894   2.366   0.216  11.997  0.0840  0.4989  0.2589
17160TIP3    H172895   2.437   0.258  11.949  0.7758 -0.3526  0.5099
17160TIP3    H272896   2.297   0.201  11.932  0.7115  0.0256 -0.3011
17161TIP3   OH272897   0.000   1.023   4.247  0.2025 -0.0788 -0.2815
17161TIP3    H172898   0.001   1.075   4.167 -1.3764 -1.4347 -1.2090
17161TIP3    H272899   0.014   1.087   4.317  0.3416  1.2882 -1.5307
17162TIP3   OH272900   0.582   4.399   4.578  0.1666 -0.0345  0.1059
17162TIP3    H172901   0.627   4.345   4.514  0.3813 -0.8052  0.9036
17162TIP3    H272902   0.493   4.409   4.543  0.9132  1.4555 -1.4483
17163TIP3   OH272903   0.947   2.367  14.389  0.6431 -0.4946 -0.5715
17163TIP3    H172904   0.997   2.305  14.442 -1.3423 -0.3640  1.5402
17163TIP3    H272905   0.898   2.312  14.327  1.0345 -0.8394 -0.5732
17164TIP3   OH272906   5.792   6.363   1.635  0.5336  0.2485  0.0402
17164TIP3    H172907   5.855   6.397   1.572  1.2611 -0.5925  0.3009
17164TIP3    H272908   5.842   6.351   1.716 -0.0093 -0.2016  0.3155
17165TIP3   OH272909   2.407   4.630   1.316  0.2592 -0.2118 -0.3067
17165TIP3    H172910   2.410   4.610   1.222  1.0187  0.2650 -0.3880
17165TIP3    H272911   2.361   4.714   1.320 -0.3919 -0.5694 -0.1921
17166TIP3   OH272912   1.717   0.108  15.278 -0.2698 -0.0421  0.6808
17166TIP3    H172913   1.684   0.062  15.355 -0.5018 -0.0140  0.6006
17166TIP3    H272914   1.739   0.039  15.216  2.2044 -0.1766  1.6616
17167TIP3   OH272915   3.038   6.566  10.789  0.5745 -0.2530 -0.2499
17167TIP3    H172916   2.985   6.640  10.757  0.4320  0.1479  0.8911
17167TIP3    H272917   3.076   6.598  10.871  1.7646 -0.9060 -0.5406
17168TIP3   OH272918   6.149   0.109   0.420  0.1400 -0.6833  0.1519
17168TIP3    H172919   6.079   0.055   0.384 -0.5294 -0.2069  0.7214
17168TIP3    H272920   6.106   0.191   0.445  1.1909  0.2508 -1.0200
17169TIP3   OH272921   2.835   5.855  16.386 -0.0507 -0.2943 -0.4387
17169TIP3    H172922   2.778   5.855  16.309 -0.2244  0.5036 -0.3131
17169TIP3    H272923   2.909   5.800  16.361  0.6929  1.2904 -1.7741
17170TIP3   OH272924   1.993   2.430  12.839  0.3792  0.0337 -0.8888
17170TIP3    H172925   2.007   2.351  12.891 -1.4881  0.4164  0.2324
17170TIP3    H272926   2.072   2.482  12.854 -0.8152  0.8952  3.0048
17171TIP3   OH272927   0.643   0.868   1.753 -0.2488  0.2809  0.0626
17171TIP3    H172928   0.675   0.878   1.663 -1.2645  0.2755 -0.3004
17171TIP3    H272929   0.682   0.785   1.782 -1.4624 -0.7124 -1.0454
17172TIP3   OH272930   4.876   5.510   5.618  0.5699 -0.5519  0.5072
17172TIP3    H172931   4.794   5.463   5.601  1.9191 -2.7496 -0.2243
17172TIP3    H272932   4.939   5.471   5.556  1.2269  3.8771 -1.7994
17173TIP3   OH272933   0.195   0.967   1.121  0.7868 -0.4477  0.4021
17173TIP3    H172934   0.213   1.025   1.048  1.1760  1.4881  1.9783
17173TIP3    H272935   0.122   0.912   1.092  1.5200 -0.3273 -1.7193
17174TIP3   OH272936   3.169   0.018   4.489  0.0004  0.4903  0.2173
17174TIP3    H172937   3.262  -0.005   4.480  0.3636  2.0511 -0.0812
17174TIP3    H272938   3.123  -0.050   4.440  0.9266 -0.7891  1.0799
17175TIP3   OH272939   5.605   4.699  11.457 -0.0995  0.2365 -0.2639
17175TIP3    H172940   5.647   4.730  11.377 -0.4358 -1.6868 -1.1920
17175TIP3    H272941   5.666   4.636  11.494 -0.6637 -0.0660  0.1620
17176TIP3   OH272942   6.744   1.542  13.074  0.1871 -0.3876  0.5277
17176TIP3    H172943   6.752   1.488  13.152  1.6052  1.3009  1.5843
17176TIP3    H272944   6.654   1.574  13.075  0.8381  1.4763  2.7449
17177TIP3   OH272945   4.225   5.063  14.917  0.0462  0.0911  0.1093
17177TIP3    H172946   4.177   5.028  14.842 -0.5858  0.6347  0.2602
17177TIP3    H272947   4.165   5.125  14.958  0.2701 -0.4089  1.2335
17178TIP3   OH272948   5.156   0.865   4.357  0.0015  0.6884  0.7309
17178TIP3    H172949   5.090   0.806   4.319 -1.1701  1.8461  0.9453
17178TIP3    H272950   5.235   0.811   4.362 -0.8888 -0.6934  0.3710
17179TIP3   OH272951   2.980   4.015   4.693 -0.1654  0.1881 -0.2250
17179TIP3    H172952   3.067   3.977   4.682 -0.4973 -0.2282 -1.4798
17179TIP3    H272953   2.925   3.942   4.719 -0.2530  0.3449  0.0306
17180TIP3   OH272954   6.150   0.925  14.635  0.1986 -0.1035  0.4713
17180TIP3    H172955   6.096   0.855  14.672  1.6753 -1.6231 -0.1765
17180TIP3    H272956   6.238   0.906  14.667  0.6862  1.2489 -0.0397
17181TIP3   OH272957   4.407   6.533  16.484 -0.6679 -0.3051  0.0332
17181TIP3    H172958   4.427   6.549  16.576 -0.9983  2.2393 -0.3129
17181TIP3    H272959   4.485   6.564  16.437 -0.9140 -0.6497 -0.6107
17182TIP3   OH272960   2.122   0.420  12.502  0.4303 -0.0874  0.2783
17182TIP3    H172961   2.197   0.458  12.455  0.0438  1.0581  0.5707
17182TIP3    H272962   2.045   0.462  12.462 -0.1442 -2.0044 -0.7210
17183TIP3   OH272963   5.470   1.951   0.278 -0.2348 -0.1678 -0.1910
17183TIP3    H172964   5.508   1.864   0.285  0.6343  0.1795 -0.4786
17183TIP3    H272965   5.507   1.986   0.197  0.2256  0.8504  0.4473
17184TIP3   OH272966   6.781   4.868   3.158 -0.3836 -0.0318  0.3792
17184TIP3    H172967   6.864   4.827   3.183 -0.2560 -0.0843 -0.1319
17184TIP3    H272968   6.759   4.923   3.233  2.1192  3.0963 -1.0259
17185TIP3   OH272969   2.659   5.532  17.153  0.0307 -0.0894 -0.4598
17185TIP3    H172970   2.632   5.452  17.198 -0.3311  0.0848 -0.3647
17185TIP3    H272971   2.714   5.502  17.081 -1.4655 -0.5377 -1.4326
17186TIP3   OH272972   0.795   5.332   0.908 -0.1925 -0.6404  0.0807
17186TIP3    H172973   0.757   5.251   0.943  3.2306 -1.1639  2.8576
17186TIP3    H272974   0.874   5.304   0.863 -0.6756  0.8713 -1.7854
17187TIP3   OH272975   4.473   1.686  14.817 -0.4455  0.4480  0.5951
17187TIP3    H172976   4.543   1.748  14.834  0.3754 -0.9225  2.4077
17187TIP3    H272977   4.407   1.704  14.884 -0.4457 -0.2785  0.7950
17188TIP3   OH272978   3.910   2.053   5.708 -0.2837 -0.2151 -0.3312
17188TIP3    H172979   3.834   1.997   5.726 -0.0172 -0.3230  0.4867
17188TIP3    H272980   3.873   2.141   5.699 -0.6975 -0.5122 -1.5635
17189TIP3   OH272981   4.228   2.999  11.657  0.1086  0.1600  0.4704
17189TIP3    H172982   4.247   2.922  11.712  0.5669  0.3523  0.5887
17189TIP3    H272983   4.236   3.073  11.717  3.8441  0.6531 -0.5258
17190TIP3   OH272984   3.484   5.203  11.752  0.4580  0.3126 -0.3789
17190TIP3    H172985   3.574   5.178  11.772  1.4254  0.1277 -4.6855
17190TIP3    H272986   3.442   5.122  11.724  0.5743  1.3716 -3.7907
17191TIP3   OH272987   0.446   5.740  14.712  0.2902  0.6334  0.0716
17191TIP3    H172988   0.363   5.779  14.686  1.0219  0.6213 -2.4342
17191TIP3    H272989   0.500   5.815  14.740 -0.3204  0.7170  1.0337
17192TIP3   OH272990   2.573   6.769   1.522  0.1021  0.3468 -0.3474
17192TIP3    H172991   2.624   6.790   1.599 -0.1811  1.3997 -0.4302
17192TIP3    H272992   2.609   6.687   1.490 -0.0935 -0.3335  1.1678
17193TIP3   OH272993   6.348   4.920   4.212  0.1590 -0.5560  0.3327
17193TIP3    H172994   6.376   4.842   4.164 -0.4603  0.2453 -1.3695
17193TIP3    H272995   6.253   4.914   4.215  0.1373 -0.1071  0.6096
17194TIP3   OH272996   3.204   3.413  14.939  0.4072  0.4731 -0.3411
17194TIP3    H172997   3.174   3.363  14.862  0.4596 -0.7230  0.4073
17194TIP3    H272998   3.152   3.493  14.937 -0.6246 -0.1993 -0.8171
17195TIP3   OH272999   3.409   3.050   5.424  0.1631 -0.2411 -0.3815
17195TIP3    H173000   3.390   3.137   5.459 -0.1991 -0.5026  0.0822
17195TIP3    H273001   3.323   3.012   5.405  0.3659 -0.0645 -1.6611
17196TIP3   OH273002   0.394   5.801  13.014  0.7807 -0.1248 -0.3673
17196TIP3    H173003   0.429   5.827  13.100  1.0371  1.3133 -0.8957
17196TIP3    H273004   0.471   5.772  12.965  0.8743  0.6714 -0.6881
17197TIP3   OH273005   0.808   2.043   0.438 -0.5457 -0.6811 -0.1316
17197TIP3    H173006   0.831   2.103   0.508  0.4949  1.4500 -2.2245
17197TIP3    H273007   0.891   2.002   0.413 -0.8729 -1.2535 -0.3065
17198TIP3   OH273008   6.759   3.513  11.244 -0.1885 -0.5739 -0.2798
17198TIP3    H173009   6.823   3.566  11.196  0.2040 -0.9226 -0.1505
17198TIP3    H273010   6.779   3.530  11.336  0.9840 -2.1669 -0.2269
17199TIP3   OH273011   5.793   5.383  12.680  0.0603 -0.2607  0.2403
17199TIP3    H173012   5.827   5.432  12.754  0.2231  1.7837 -1.1500
17199TIP3    H273013   5.872   5.355  12.632 -0.0714 -0.3249  0.0599
17200TIP3   OH273014   3.026   6.492  15.651  0.2212 -0.0930  0.5654
17200TIP3    H173015   2.947   6.537  15.622  0.5252  1.1024  1.4852
17200TIP3    H273016   3.042   6.425  15.586 -1.2896 -0.0342  0.1228
17201TIP3   OH273017   2.110   2.920  14.468 -0.0176  0.1395  0.4864
17201TIP3    H173018   2.121   2.839  14.517  0.4556  0.1194  0.3541
17201TIP3    H273019   2.018   2.922  14.443  0.1007 -0.6548 -0.0233
17202TIP3   OH273020   5.612   5.997   3.133 -0.3535  0.2569  0.4069
17202TIP3    H173021   5.681   6.027   3.073 -1.5991  1.9924 -0.1866
17202TIP3    H273022   5.653   5.926   3.182  1.5804  0.6603 -0.5620
17203TIP3   OH273023   2.730   5.298   3.711  0.7904  0.6021 -0.0992
17203TIP3    H173024   2.776   5.250   3.780  0.3180  0.2077 -0.0526
17203TIP3    H273025   2.669   5.234   3.675 -0.9778  1.6049  1.0203
17204TIP3   OH273026   1.382   1.608  13.618 -0.5731  0.0008  0.0480
17204TIP3    H173027   1.390   1.578  13.709  1.1673  0.6981  0.1578
17204TIP3    H273028   1.363   1.528  13.568  0.8468 -0.7925  0.7347
17205TIP3   OH273029   1.070   1.064   0.075 -0.4137  0.1310  0.2781
17205TIP3    H173030   1.106   1.024   0.154  0.0467  0.2038  0.1070
17205TIP3    H273031   0.987   1.018   0.060 -0.1818 -0.3296  0.4254
17206TIP3   OH273032   0.007   6.573  13.897  0.9201 -0.3057 -0.4642
17206TIP3    H173033   0.070   6.612  13.958  1.6986 -0.1187 -1.3899
17206TIP3    H273034   0.023   6.479  13.903  0.2509 -0.3719  0.4324
17207TIP3   OH273035   5.801   3.569   4.122  0.0220 -0.1770  0.2811
17207TIP3    H173036   5.812   3.616   4.204  0.5794  0.1339  0.0283
17207TIP3    H273037   5.755   3.489   4.146  0.5072 -0.2534  0.9498
17208TIP3   OH273038   0.478   6.536   0.044 -0.3178  0.2786  0.5940
17208TIP3    H173039   0.391   6.564   0.073 -0.4571  0.6816 -0.1847
17208TIP3    H273040   0.490   6.449   0.081 -2.5973 -1.3695 -2.3179
17209TIP3   OH273041   0.577   0.014  12.608 -0.5696 -0.9179 -0.2218
17209TIP3    H173042   0.487   0.030  12.635 -0.1472 -0.6402  1.0586
17209TIP3    H273043   0.597   0.086  12.548 -1.1671 -0.9357 -0.4461
17210TIP3   OH273044   3.166   0.550  12.602  0.3938 -0.1333  0.7336
17210TIP3    H173045   3.237   0.592  12.554 -0.2058  0.4375  0.3305
17210TIP3    H273046   3.105   0.621  12.621 -1.9904 -1.2444 -2.3675
17211TIP3   OH273047   1.683   2.733  13.692  0.1550  0.3438 -0.0752
17211TIP3    H173048   1.715   2.779  13.769 -0.2422  0.4519  0.0264
17211TIP3    H273049   1.694   2.796  13.620 -0.6054  0.6895  0.1028
17212TIP3   OH273050   1.303   2.029   3.849  0.1201  0.6013 -0.0627
17212TIP3    H173051   1.299   2.102   3.911  0.6671  1.1551 -0.6614
17212TIP3    H273052   1.277   2.068   3.765  1.5780  0.3892 -0.6283
17213TIP3   OH273053   4.553   6.779  15.787 -0.0742 -1.0157 -0.4160
17213TIP3    H173054   4.625   6.754  15.845 -0.1023  1.6418  0.8344
17213TIP3    H273055   4.481   6.723  15.814 -0.0329  0.0374  2.0640
17214TIP3   OH273056   4.759   3.185   0.854  0.1392 -0.5407  0.9095
17214TIP3    H173057   4.786   3.128   0.926  1.6351 -0.6283  0.3044
17214TIP3    H273058   4.824   3.256   0.854 -0.4469  0.0064  0.2824
17215TIP3   OH273059   3.974   5.870   1.324  0.2851 -0.7117  0.0655
17215TIP3    H173060   4.022   5.813   1.385 -0.5943 -1.3864  0.1351
17215TIP3    H273061   3.905   5.909   1.377  0.2827 -0.3239 -0.2178
17216TIP3   OH273062   0.512   6.716   5.124  0.0781 -0.3387  0.3583
17216TIP3    H173063   0.458   6.748   5.052 -1.5150  1.2337  2.1798
17216TIP3    H273064   0.599   6.751   5.107 -1.1101  3.1401  1.0999
17217TIP3   OH273065   1.655   0.598   1.795  0.2381  0.2657 -0.3406
17217TIP3    H173066   1.698   0.646   1.866 -0.9873  0.3274  0.3552
17217TIP3    H273067   1.715   0.525   1.777  0.6713  0.3716  0.6096
17218TIP3   OH273068   5.936   6.250  11.959 -0.4308  0.5171  0.3639
17218TIP3    H173069   5.855   6.203  11.982  1.2463 -2.2795  0.8105
17218TIP3    H273070   5.921   6.282  11.870 -1.4276 -1.4479 -0.2142
17219TIP3   OH273071   5.463   5.126  12.292 -0.5311  0.2481  0.9572
17219TIP3    H173072   5.524   5.189  12.330  0.6291 -1.1727  1.4953
17219TIP3    H273073   5.385   5.130  12.347 -0.0003  0.3445  1.6957
17220TIP3   OH273074   1.247   4.562  14.475  0.2842  0.3367  0.1620
17220TIP3    H173075   1.193   4.637  14.450  2.0874  1.5187 -0.2672
17220TIP3    H273076   1.298   4.542  14.397  1.2612 -0.0679  0.8935
17221TIP3   OH273077   5.583   4.785  12.707 -0.1176 -0.3694  0.3626
17221TIP3    H173078   5.575   4.823  12.620 -0.1836 -0.2244  0.4317
17221TIP3    H273079   5.647   4.714  12.697 -1.2499 -1.3488 -0.1308
17222TIP3   OH273080   5.896   2.567   5.272 -0.1333  0.0949  0.4948
17222TIP3    H173081   5.973   2.613   5.239 -0.0753 -0.5915 -0.3771
17222TIP3    H273082   5.924   2.475   5.276 -1.3562 -0.3725 -1.2652
17223TIP3   OH273083   3.925   4.668  10.570  0.0822  0.0619 -0.0989
17223TIP3    H173084   3.835   4.669  10.538 -0.3866 -2.5745  0.9789
17223TIP3    H273085   3.971   4.611  10.507  0.3601 -0.8380  0.9147
17224TIP3   OH273086   2.540   5.026  13.658  0.4895 -0.0706  0.0084
17224TIP3    H173087   2.625   5.055  13.625  0.2351  1.8881  0.9844
17224TIP3    H273088   2.548   5.032  13.753 -0.7706  0.2372  0.1128
17225TIP3   OH273089   5.585   1.273  14.360 -0.5375  0.2695  0.0054
17225TIP3    H173090   5.563   1.277  14.266 -0.4676 -3.0639 -0.2290
17225TIP3    H273091   5.644   1.198  14.367 -1.6364 -0.3776  2.9251
17226TIP3   OH273092   5.799   4.753  16.325  0.2101  0.2232 -0.0909
17226TIP3    H173093   5.782   4.845  16.340 -1.6432 -0.0894 -0.1918
17226TIP3    H273094   5.789   4.712  16.411 -0.7710 -0.1460 -0.3768
17227TIP3   OH273095   6.435   4.239  11.904  0.7909 -0.0477 -0.1083
17227TIP3    H173096   6.524   4.256  11.874  0.6440  0.3011 -0.3549
17227TIP3    H273097   6.406   4.322  11.942  0.5659 -0.1544 -0.0485
17228TIP3   OH273098   0.886   6.227  11.852  0.2856  0.3596  0.2613
17228TIP3    H173099   0.901   6.133  11.839  2.2842  0.8912 -1.4772
17228TIP3    H273100   0.881   6.263  11.763  0.2275  2.0191  0.9189
17229TIP3   OH273101   4.967   2.824  13.422  0.3279  0.0036  0.5157
17229TIP3    H173102   4.984   2.838  13.515 -0.4931  0.8051  0.5461
17229TIP3    H273103   4.974   2.911  13.382  1.9339 -0.5178 -0.3802
17230TIP3   OH273104   2.276   4.806  11.366 -0.0088 -0.1628  0.3728
17230TIP3    H173105   2.234   4.724  11.340 -0.8244 -0.3494  2.2353
17230TIP3    H273106   2.225   4.874  11.322 -0.3484 -0.5649  0.1454
17231TIP3   OH273107   0.416   6.011  13.541  0.6431 -0.1260  0.2407
17231TIP3    H173108   0.434   6.054  13.457 -0.5649 -0.7266 -0.3493
17231TIP3    H273109   0.501   5.982  13.572  1.2344  1.0210 -0.2726
17232TIP3   OH273110   5.628   5.944  13.679  0.2814  0.4160 -0.5128
17232TIP3    H173111   5.535   5.929  13.693  0.3526 -0.3998 -0.9396
17232TIP3    H273112   5.652   6.007  13.748 -0.4718  0.2479 -0.0913
17233TIP3   OH273113   2.379   0.355   5.891 -0.1652  0.7771 -0.0082
17233TIP3    H173114   2.396   0.262   5.875  0.5465  1.0200 -0.7017
17233TIP3    H273115   2.302   0.356   5.948 -0.1143 -0.2383  0.0842
17234TIP3   OH273116   3.411   4.961   3.948  0.6558  0.1949  0.3505
17234TIP3    H173117   3.452   5.032   3.998  1.6066  0.7265 -1.1437
17234TIP3    H273118   3.442   4.974   3.859 -2.8564  0.6469 -0.8534
17235TIP3   OH273119   2.192   2.788  11.335 -0.0453 -0.0715 -0.0971
17235TIP3    H173120   2.204   2.751  11.248 -0.7585  0.7907 -0.5663
17235TIP3    H273121   2.201   2.882  11.323 -1.9672  0.2052  0.4321
17236TIP3   OH273122   3.400   3.799   4.445 -0.2964  0.1739  0.2148
17236TIP3    H173123   3.443   3.816   4.361 -1.2003 -0.4459 -0.3746
17236TIP3    H273124   3.472   3.792   4.507  0.5352 -1.6114 -0.8885
17237TIP3   OH273125   1.485   3.547  12.382  0.4861  0.4182  0.3367
17237TIP3    H173126   1.499   3.614  12.315  0.0268  0.4913  0.3101
17237TIP3    H273127   1.401   3.508  12.359  0.2660  0.5290  0.9395
17238TIP3   OH273128   4.153   2.503  16.372 -0.2307 -0.0848  0.1851
17238TIP3    H173129   4.105   2.478  16.293 -1.5143 -1.1709  1.2818
17238TIP3    H273130   4.117   2.588  16.396 -0.4035 -0.1220  0.0556
17239TIP3   OH273131   1.365   4.308  10.247  0.1387 -0.4480  0.1062
17239TIP3    H173132   1.376   4.386  10.192 -0.8921  0.0329  0.5762
17239TIP3    H273133   1.341   4.343  10.333  3.2352 -1.0901  1.3287
17240TIP3   OH273134   0.560   0.393  11.907  0.0245 -0.1791  0.5211
17240TIP3    H173135   0.581   0.300  11.894 -0.1183  0.1094 -2.0148
17240TIP3    H273136   0.641   0.431  11.941  0.5035 -0.9778  0.2992
17241TIP3   OH273137   0.762   3.119  15.261  0.1644  0.8595 -0.8516
17241TIP3    H173138   0.728   3.197  15.216 -0.3910  0.8742 -0.4141
17241TIP3    H273139   0.841   3.097  15.213 -1.1302  0.0659 -2.6970
17242TIP3   OH273140   4.466   0.027   5.690 -0.3441 -0.0261 -0.7652
17242TIP3    H173141   4.531   0.026   5.760 -0.2155  0.5235 -0.8687
17242TIP3    H273142   4.512  -0.010   5.614 -1.0149 -2.2364 -0.1200
17243TIP3   OH273143   6.689   3.187  13.693 -0.1309  1.1062  0.0310
17243TIP3    H173144   6.671   3.094  13.710 -0.4842  0.9333 -1.1912
17243TIP3    H273145   6.755   3.211  13.757  0.1360 -0.0623  0.2048
17244TIP3   OH273146   1.658   0.397  15.143  0.2972 -0.3521  0.3399
17244TIP3    H173147   1.686   0.362  15.228  2.4403 -1.7819 -0.8996
17244TIP3    H273148   1.667   0.323  15.082  1.2010  1.2852 -1.5951
17245TIP3   OH273149   6.386   5.101  14.223  0.4654 -0.4760 -0.7018
17245TIP3    H173150   6.395   5.007  14.210 -1.4059 -0.8210  0.3224
17245TIP3    H273151   6.383   5.112  14.318  0.6572  0.6133 -0.8167
17246TIP3   OH273152   0.417   5.394   4.739  0.6038  0.2160 -0.2857
17246TIP3    H173153   0.370   5.315   4.712  0.4157  0.9931 -2.3644
17246TIP3    H273154   0.370   5.426   4.816  0.1943 -1.2389  0.0723
17247TIP3   OH273155   2.915   3.583   1.320  0.1921  0.1253  0.3342
17247TIP3    H173156   2.830   3.602   1.279  0.3096  0.4315  0.2347
17247TIP3    H273157   2.894   3.524   1.392  0.2259 -2.4274 -1.6383
17248TIP3   OH273158   3.496   1.583  14.247 -0.3412 -0.3445  0.4772
17248TIP3    H173159   3.483   1.526  14.323  0.6666  0.8720  1.5809
17248TIP3    H273160   3.583   1.558  14.214 -0.9085 -1.0889 -0.4825
17249TIP3   OH273161   1.834   6.147  13.928  0.2656 -0.3179  0.6294
17249TIP3    H173162   1.740   6.149  13.909  0.3600  1.3442  0.2264
17249TIP3    H273163   1.869   6.081  13.869 -0.5350 -0.4253  0.2664
17250TIP3   OH273164   2.145   2.967  16.836  0.4602  0.0252 -0.2230
17250TIP3    H173165   2.237   2.987  16.848  0.1017  1.1159  0.7985
17250TIP3    H273166   2.123   2.909  16.909  0.1151  0.5611  0.1090
17251TIP3   OH273167   4.470   5.729  13.438 -0.2052  0.6474  0.3893
17251TIP3    H173168   4.433   5.741  13.351  1.4224  0.7703 -0.3186
17251TIP3    H273169   4.473   5.635  13.451  2.1793  0.4847 -0.9188
17252TIP3   OH273170   5.517   2.101   1.746  0.0626 -0.3002  0.1585
17252TIP3    H173171   5.476   2.076   1.828 -0.8063 -0.1502 -0.2236
17252TIP3    H273172   5.517   2.196   1.747 -1.6409 -0.2629 -0.8209
17253TIP3   OH273173   4.565   2.826   5.770  0.2769  0.1349 -0.0886
17253TIP3    H173174   4.495   2.779   5.814  0.3830 -0.0188 -0.0841
17253TIP3    H273175   4.521   2.895   5.721  0.0931 -0.1718 -0.3606
17254TIP3   OH273176   1.672   5.488  11.532 -0.4762  0.1475  0.3942
17254TIP3    H173177   1.732   5.420  11.563 -0.3528 -0.0735 -0.3282
17254TIP3    H273178   1.717   5.528  11.458 -2.1659 -1.5425 -1.6413
17255TIP3   OH273179   6.408   1.013  16.164 -0.1344  0.2597 -0.2948
17255TIP3    H173180   6.403   1.034  16.257 -1.1144  0.0521 -0.2942
17255TIP3    H273181   6.475   0.945  16.158  0.3709  0.7147  0.1789
17256TIP3   OH273182   3.002   4.819   3.792 -0.4632 -0.2224 -0.2204
17256TIP3    H173183   2.947   4.766   3.849  1.3426 -0.5866  1.2564
17256TIP3    H273184   3.077   4.763   3.772  1.8161  1.9559  1.9188
17257TIP3   OH273185   4.553   2.323  11.571  0.6159  0.3792 -0.0241
17257TIP3    H173186   4.492   2.260  11.608  2.1436  0.1268  2.1314
17257TIP3    H273187   4.548   2.307  11.476 -1.2604 -0.8756  0.2470
17258TIP3   OH273188   0.074   4.288  14.976  0.0311 -0.0216  0.0941
17258TIP3    H173189   0.008   4.309  14.910  0.2156  0.2705  0.0013
17258TIP3    H273190   0.082   4.368  15.028  0.4660  0.0159 -0.0293
17259TIP3   OH273191   5.980   4.137  11.729 -0.6939  0.2104 -0.1457
17259TIP3    H173192   5.998   4.075  11.659  2.0321  0.9317 -0.1257
17259TIP3    H273193   6.023   4.100  11.806 -2.1041  0.3621  0.7477
17260TIP3   OH273194   6.062   5.720  15.634  0.6779  0.6575  0.3387
17260TIP3    H173195   6.006   5.677  15.570  0.7076  2.6579 -1.0642
17260TIP3    H273196   6.149   5.681  15.620  0.5760  0.7175 -0.4756
17261TIP3   OH273197   5.831   4.484   0.336  0.4535  0.4262 -0.2434
17261TIP3    H173198   5.885   4.435   0.274 -0.4770 -0.1667 -0.5901
17261TIP3    H273199   5.850   4.445   0.421  0.7927  0.4140 -0.3246
17262TIP3   OH273200   5.051   4.951   2.407  0.4563 -1.0378 -0.0431
17262TIP3    H173201   5.122   4.958   2.470  1.2548 -0.4260 -0.9982
17262TIP3    H273202   5.033   5.041   2.380 -0.8400 -1.1703  0.3682
17263TIP3   OH273203   6.274   1.750   0.910 -0.4852  0.0296 -0.1980
17263TIP3    H173204   6.219   1.829   0.913  0.8129  0.9557 -0.4781
17263TIP3    H273205   6.353   1.777   0.864  0.2924 -1.2437  0.3515
17264TIP3   OH273206   3.917   2.504  13.033  0.0524 -0.0861 -0.0533
17264TIP3    H173207   3.986   2.445  13.003 -0.5283 -0.8667  0.1317
17264TIP3    H273208   3.909   2.486  13.127 -0.5717 -0.1806 -0.1213
17265TIP3   OH273209   6.038   0.299   3.643  0.6084 -0.3339 -0.2237
17265TIP3    H173210   5.984   0.220   3.634 -0.7689  0.8362 -2.8113
17265TIP3    H273211   6.100   0.278   3.713 -1.9797 -2.4207  1.5402
17266TIP3   OH273212   4.878   0.973   5.746  0.2279 -0.1930  0.1864
17266TIP3    H173213   4.890   0.897   5.688 -1.4721  0.8843 -1.6250
17266TIP3    H273214   4.966   1.009   5.757  0.9173 -1.8624  0.2883
17267TIP3   OH273215   6.404   0.957  14.420  0.0334  0.0298 -0.0997
17267TIP3    H173216   6.378   0.895  14.352  0.1552 -1.0206  0.7833
17267TIP3    H273217   6.369   0.918  14.501  0.2685  1.0270  0.4827
17268TIP3   OH273218   2.297   2.774   0.077  0.3115 -0.3641  0.0662
17268TIP3    H173219   2.273   2.698   0.130  1.7146 -0.2460  0.8794
17268TIP3    H273220   2.333   2.837   0.139  0.9156  0.2288 -0.8712
17269TIP3   OH273221   6.760   2.619   2.667  0.1514 -0.9760 -0.0374
17269TIP3    H173222   6.806   2.546   2.709 -0.2208 -0.2695  1.6311
17269TIP3    H273223   6.678   2.580   2.636  1.4516 -2.0401 -2.2586
17270TIP3   OH273224   3.324   4.323   6.523  0.5272  0.0497 -0.0928
17270TIP3    H173225   3.274   4.405   6.522  0.0492 -0.2367 -0.0055
17270TIP3    H273226   3.261   4.257   6.495  0.5600 -0.4889  1.0962
17271TIP3   OH273227   4.267   2.420  11.483 -0.4843  0.1548  0.0873
17271TIP3    H173228   4.236   2.466  11.405 -0.0361  0.1953 -0.0696
17271TIP3    H273229   4.346   2.375  11.455 -0.2613  0.2538  0.5435
17272TIP3   OH273230   1.034   0.692  13.036 -0.0689  0.3204 -0.2764
17272TIP3    H173231   1.071   0.745  12.966  2.2051 -1.5236 -0.5310
17272TIP3    H273232   1.087   0.714  13.113 -0.7937  0.3462  0.2137
17273TIP3   OH273233   4.519   1.460  16.213 -0.2464  0.0317  0.0195
17273TIP3    H173234   4.571   1.400  16.267  1.9278  0.9520 -0.9987
17273TIP3    H273235   4.434   1.465  16.257  0.0959 -2.4702  1.0419
17274TIP3   OH273236   3.710   5.502   5.699  0.0148  0.0014  0.1951
17274TIP3    H173237   3.775   5.450   5.746  0.8934  0.7238 -0.2023
17274TIP3    H273238   3.629   5.486   5.746  0.5662 -0.5563  0.9818
17275TIP3   OH273239   2.770   3.775  16.183  0.0023 -0.1091 -0.0530
17275TIP3    H173240   2.814   3.853  16.149  0.3689 -0.1733  0.2756
17275TIP3    H273241   2.784   3.708  16.117 -1.2610  0.4067 -0.8700
17276TIP3   OH273242   2.539   6.022  12.863  0.3412 -0.0548 -0.5648
17276TIP3    H173243   2.615   6.006  12.808  2.6671  1.6297  2.0204
17276TIP3    H273244   2.575   6.031  12.952 -2.3667  4.1874  0.2743
17277TIP3   OH273245   5.582   3.297  16.590  0.3438  0.0994  0.1756
17277TIP3    H173246   5.624   3.233  16.647  0.1824  0.2740  0.4872
17277TIP3    H273247   5.489   3.292  16.612  0.1476 -0.4951 -0.7166
17278TIP3   OH273248   3.189   5.365   0.394 -0.4178 -0.1518  0.3466
17278TIP3    H173249   3.111   5.384   0.446 -0.3871 -0.0673  0.3611
17278TIP3    H273250   3.194   5.269   0.394 -2.3833 -0.3334 -2.3729
17279TIP3   OH273251   5.866   1.295  14.690  0.2320 -0.4988 -0.1730
17279TIP3    H173252   5.943   1.247  14.720  1.1327  0.8269 -0.3176
17279TIP3    H273253   5.792   1.249  14.730  1.1409 -1.3638  0.5377
17280TIP3   OH273254   4.194   3.568   5.726  0.5056 -0.3424  0.3739
17280TIP3    H173255   4.207   3.602   5.637  0.1997 -1.4298 -0.1004
17280TIP3    H273256   4.207   3.644   5.783  1.2161  0.2593 -0.5657
17281TIP3   OH273257   5.608   0.859  14.910 -0.2955  0.2289 -0.6581
17281TIP3    H173258   5.530   0.914  14.905  0.9910  2.0199 -1.3121
17281TIP3    H273259   5.595   0.794  14.841 -0.9984  0.7840 -1.0623
17282TIP3   OH273260   4.387   4.578   0.149  0.9443 -0.2972 -0.1554
17282TIP3    H173261   4.331   4.533   0.086 -0.8559 -0.8327  1.7703
17282TIP3    H273262   4.327   4.633   0.199  2.7990  2.6458 -1.0509
17283TIP3   OH273263   3.192   6.153  11.396  0.1408  0.5290 -0.5051
17283TIP3    H173264   3.112   6.124  11.352  1.2161 -0.4321 -1.8504
17283TIP3    H273265   3.164   6.229  11.448 -1.2343  1.5024 -2.5825
17284TIP3   OH273266   6.677   4.261  11.789 -0.2876  0.2593  0.4716
17284TIP3    H173267   6.739   4.225  11.725  1.5520  1.0539  1.7696
17284TIP3    H273268   6.679   4.356  11.774 -1.1057  0.3052  0.6145
17285TIP3   OH273269   0.113   2.325  11.970 -0.2379 -0.6144 -0.2369
17285TIP3    H173270   0.164   2.254  12.008  1.0257  0.7693  0.7093
17285TIP3    H273271   0.178   2.388  11.938 -1.3360  0.5819 -0.1844
17286TIP3   OH273272   4.103   0.680  14.306 -0.2306 -0.0601 -0.4145
17286TIP3    H173273   4.183   0.711  14.348 -1.3616  1.2202  0.8455
17286TIP3    H273274   4.056   0.631  14.374 -0.9537 -0.0214 -0.8694
17287TIP3   OH273275   2.413   0.501   1.147  0.0316  0.1638 -0.0253
17287TIP3    H173276   2.379   0.449   1.220 -1.0883  1.9909  0.7962
17287TIP3    H273277   2.470   0.566   1.188 -1.2117  1.6930 -0.6779
17288TIP3   OH273278   4.293   6.398  12.692 -0.1788  0.4848  0.3494
17288TIP3    H173279   4.272   6.491  12.685 -2.0862  0.1205  0.7672
17288TIP3    H273280   4.262   6.360  12.610  3.8870  0.7440 -1.3973
17289TIP3   OH273281   4.279   5.534   5.918  0.1920 -0.5000  0.0963
17289TIP3    H173282   4.288   5.599   5.987  1.4588 -1.3992  0.8064
17289TIP3    H273283   4.283   5.450   5.964  0.0204 -1.0907 -0.9575
17290TIP3   OH273284   5.644   5.692   2.276  0.6293 -0.3265 -0.3852
17290TIP3    H173285   5.586   5.712   2.202 -1.0404 -3.4951 -0.0455
17290TIP3    H273286   5.702   5.623   2.242  1.9779  0.4205  0.3389
17291TIP3   OH273287   2.011   4.674   5.098 -0.4287  0.0497 -0.1777
17291TIP3    H173288   2.041   4.592   5.059  0.8669  0.2789  0.3180
17291TIP3    H273289   2.058   4.742   5.050 -2.0599  0.5603 -1.0976
17292TIP3   OH273290   5.918   0.792   5.515 -0.2002 -0.9826 -0.4426
17292TIP3    H173291   5.934   0.874   5.563  0.2259 -0.1772 -1.9368
17292TIP3    H273292   5.919   0.725   5.583  1.0410  0.0657  0.6234
17293TIP3   OH273293   4.196   2.544   4.575  0.1009 -0.2531  0.1338
17293TIP3    H173294   4.166   2.547   4.665 -2.6384 -1.8727 -0.6676
17293TIP3    H273295   4.262   2.475   4.574  0.6780  0.2790  1.0299
17294TIP3   OH273296   0.822   1.109  11.581 -0.1619 -0.6467 -0.1891
17294TIP3    H173297   0.895   1.051  11.605 -1.2843 -2.8824 -1.9615
17294TIP3    H273298   0.748   1.076  11.632 -0.4605  0.2135 -0.0647
17295TIP3   OH273299   6.018   2.291  11.920  0.4116 -0.6174  0.0142
17295TIP3    H173300   5.992   2.379  11.894  0.7085 -0.8918 -1.2123
17295TIP3    H273301   6.029   2.297  12.015 -2.5181 -0.0818  0.3595
17296TIP3   OH273302   1.894   4.754   3.434  0.6971 -0.4669 -0.3861
17296TIP3    H173303   1.814   4.738   3.385  1.9524 -1.8182 -2.0348
17296TIP3    H273304   1.907   4.848   3.429  0.4549 -0.5187 -2.0814
17297TIP3   OH273305   1.429   6.532  10.870 -0.3345  0.0441 -0.0945
17297TIP3    H173306   1.457   6.491  10.951 -1.3873  1.0652  0.7941
17297TIP3    H273307   1.397   6.459  10.816  1.3183 -0.7657 -0.0162
17298TIP3   OH273308   0.699   4.161  16.861 -0.0656  0.0226 -0.1704
17298TIP3    H173309   0.782   4.169  16.814  0.3272  0.2936  0.5711
17298TIP3    H273310   0.657   4.246  16.850  0.2217  0.2310  0.3381
17299TIP3   OH273311   0.145   3.773  15.339 -0.0865 -0.2170  0.3544
17299TIP3    H173312   0.166   3.854  15.292  2.3230 -0.2588  1.2739
17299TIP3    H273313   0.171   3.790  15.430  0.0288 -1.8587  0.6547
17300TIP3   OH273314   2.028   3.284   3.473 -0.0606 -0.1670  0.2099
17300TIP3    H173315   2.101   3.337   3.505 -1.3184  1.5102  0.4234
17300TIP3    H273316   1.965   3.284   3.546 -2.3439  2.4962 -1.6304
17301TIP3   OH273317   2.311   3.175  12.143  0.0601 -0.3268 -0.2811
17301TIP3    H173318   2.285   3.258  12.183 -0.4660 -0.6491  0.0608
17301TIP3    H273319   2.366   3.200  12.069 -0.3007  0.3364 -0.3315
17302TIP3   OH273320   0.946   3.004   4.702 -0.1612 -0.0957  0.7054
17302TIP3    H173321   0.962   2.930   4.645 -0.3692  0.0693  0.4334
17302TIP3    H273322   0.855   2.994   4.730 -0.3155  0.2826  0.3399
17303TIP3   OH273323   5.466   4.763  15.822 -0.0469 -0.2735 -0.1106
17303TIP3    H173324   5.486   4.856  15.816  0.7347 -0.4593 -0.5142
17303TIP3    H273325   5.427   4.752  15.908 -2.2609  0.8065 -0.9296
17304TIP3   OH273326   6.321   4.566  16.690 -0.0841  0.0016 -0.6446
17304TIP3    H173327   6.313   4.502  16.761  1.3955  0.5630  0.0384
17304TIP3    H273328   6.323   4.514  16.610 -0.6816 -0.6928 -0.2167
17305TIP3   OH273329   5.562   6.469  15.228 -0.3274 -0.1955 -0.1334
17305TIP3    H173330   5.505   6.396  15.204  0.5694 -0.9647  0.0262
17305TIP3    H273331   5.573   6.460  15.322  1.2918 -0.9829 -0.3797
17306TIP3   OH273332   5.696   4.737  14.963 -0.8567 -0.0372  0.8177
17306TIP3    H173333   5.645   4.699  14.891  1.2204 -2.5419  0.5974
17306TIP3    H273334   5.779   4.764  14.922  0.0987 -0.9334  2.1380
17307TIP3   OH273335   0.513   4.931  10.679 -0.7151  0.8581  0.0637
17307TIP3    H173336   0.465   5.008  10.649 -0.9689  1.3910  1.7782
17307TIP3    H273337   0.500   4.931  10.774 -1.0358 -1.5207  0.0352
17308TIP3   OH273338   1.161   2.749   6.334 -0.1894 -0.0221 -0.0840
17308TIP3    H173339   1.177   2.697   6.256 -0.7402  1.1473 -0.9957
17308TIP3    H273340   1.094   2.701   6.382 -2.4889  1.0551 -2.1282
17309TIP3   OH273341   1.280   0.674  16.115  0.3977  0.1020  0.3786
17309TIP3    H173342   1.317   0.586  16.121 -1.5801 -0.9466 -1.7749
17309TIP3    H273343   1.296   0.701  16.025 -0.4431  1.2867  0.5710
17310TIP3   OH273344   0.054   3.782  12.338  0.0744 -0.0139  0.4497
17310TIP3    H173345   0.043   3.687  12.340 -1.5132  0.1400 -0.1856
17310TIP3    H273346  -0.034   3.817  12.353  0.4517  1.3531 -0.4010
17311TIP3   OH273347   2.263   4.066  13.988 -0.1972 -0.0670 -0.7650
17311TIP3    H173348   2.238   3.976  14.010 -1.4536  0.7113  1.0606
17311TIP3    H273349   2.181   4.116  13.993  0.9378  1.6786  0.8993
17312TIP3   OH273350   5.407   3.808  16.461 -0.2693  0.1320 -0.3421
17312TIP3    H173351   5.430   3.829  16.370  3.2258 -0.3143  0.3811
17312TIP3    H273352   5.383   3.716  16.458  2.1917 -0.5398 -0.4552
17313TIP3   OH273353   2.729   0.418  15.811 -0.5567 -0.0689 -0.1751
17313TIP3    H173354   2.652   0.364  15.794 -0.6105 -0.0389 -0.0183
17313TIP3    H273355   2.789   0.396  15.739 -0.7243 -0.0630 -0.3162
17314TIP3   OH273356   2.224   6.674  14.351  0.6648 -0.1203 -0.1401
17314TIP3    H173357   2.240   6.753  14.300 -0.7775 -1.0478 -2.0774
17314TIP3    H273358   2.295   6.615  14.328  0.8633  0.0248  0.0995
17315TIP3   OH273359   3.308   6.637  15.136 -0.4516 -0.1717 -0.0618
17315TIP3    H173360   3.267   6.600  15.059  0.3104 -1.3448  0.0889
17315TIP3    H273361   3.240   6.634  15.203 -0.7327 -0.2775 -0.3509
17316TIP3   OH273362   3.106   0.516   0.116 -0.7238 -0.1264  0.0145
17316TIP3    H173363   3.051   0.572   0.171 -0.2319 -1.1128  1.5294
17316TIP3    H273364   3.056   0.435   0.107 -1.1531  0.2882 -1.6700
17317TIP3   OH273365   0.963   0.529  16.376  0.2106 -0.2715  0.1335
17317TIP3    H173366   0.969   0.623  16.392  1.0654 -0.5446  1.4689
17317TIP3    H273367   0.872   0.506  16.396 -0.0601  0.3024 -0.4215
17318TIP3   OH273368   2.434   5.263   4.203 -0.2458  0.0602 -0.3218
17318TIP3    H173369   2.360   5.257   4.264  0.5389  0.1406  0.6476
17318TIP3    H273370   2.412   5.336   4.146 -0.8936  0.1249  0.0031
17319TIP3   OH273371   6.233   6.231  14.530 -0.0302 -0.0755  0.0824
17319TIP3    H173372   6.276   6.308  14.568  0.4991  0.0577 -0.7677
17319TIP3    H273373   6.282   6.157  14.566 -0.8199 -0.0356  1.2475
17320TIP3   OH273374   5.779   3.596   3.601  0.0983 -0.1875 -0.1020
17320TIP3    H173375   5.699   3.567   3.559 -0.1120 -0.1281  0.2533
17320TIP3    H273376   5.752   3.623   3.689  0.2875  1.1179 -0.4341
17321TIP3   OH273377   0.528   0.908   4.204 -0.6156  0.0885 -0.1141
17321TIP3    H173378   0.560   0.910   4.114 -0.8405  1.2702 -0.1682
17321TIP3    H273379   0.441   0.948   4.199 -0.2026  1.0907  0.8097
17322TIP3   OH273380   3.808   0.388  13.699  0.2804 -0.1441  0.2282
17322TIP3    H173381   3.782   0.363  13.788 -2.2722 -0.1611 -0.4739
17322TIP3    H273382   3.797   0.483  13.696 -1.6962 -0.3733 -0.6600
17323TIP3   OH273383   6.552   0.777   0.757  0.5117  0.2400 -0.0235
17323TIP3    H173384   6.541   0.757   0.850 -1.2404  2.8536  0.3829
17323TIP3    H273385   6.622   0.719   0.728 -0.4357 -2.2060  2.3837
17324TIP3   OH273386   5.978   2.346  16.598 -0.3347 -0.3949 -0.8385
17324TIP3    H173387   5.944   2.433  16.619 -0.8961 -0.9229  0.4593
17324TIP3    H273388   5.910   2.307  16.542 -1.0367 -0.7651  0.2624
17325TIP3   OH273389   3.996   5.475  13.667  0.2359 -0.4354 -0.6609
17325TIP3    H173390   3.957   5.423  13.738 -0.5540  1.9440  0.7286
17325TIP3    H273391   4.025   5.556  13.710  0.0623  0.9170 -2.9796
17326TIP3   OH273392   2.573   3.968  10.767 -0.1534  0.0575 -0.0989
17326TIP3    H173393   2.515   3.897  10.795  0.7582 -0.4908  0.4501
17326TIP3    H273394   2.585   4.022  10.846 -0.1517  0.3300 -0.2831
17327TIP3   OH273395   6.694   4.576  13.324 -0.2190 -0.2965 -0.1162
17327TIP3    H173396   6.668   4.642  13.260 -2.3401 -0.0349  0.9891
17327TIP3    H273397   6.620   4.570  13.384  0.4172 -2.8822  0.4456
17328TIP3   OH273398   6.730   5.828  12.106  0.8006 -0.5591  0.2121
17328TIP3    H173399   6.656   5.889  12.112  1.9401  0.9526 -0.8742
17328TIP3    H273400   6.807   5.884  12.100  1.8357 -2.0980 -1.3021
17329TIP3   OH273401   5.966   6.649  14.103  0.3044  0.2957  0.7874
17329TIP3    H173402   6.058   6.632  14.119  0.2625 -1.9865 -0.9974
17329TIP3    H273403   5.924   6.563  14.114 -1.1851  0.7663 -0.9742
17330TIP3   OH273404   0.130   5.986   5.557 -0.0393 -0.2171  0.1955
17330TIP3    H173405   0.060   6.052   5.551 -0.5163 -0.7368 -0.1095
17330TIP3    H273406   0.202   6.022   5.505 -0.3742 -0.0245 -0.1385
17331TIP3   OH273407   5.304   1.116   4.099 -0.1570  0.2894 -0.3081
17331TIP3    H173408   5.216   1.147   4.079  0.5331  2.0299 -0.7239
17331TIP3    H273409   5.356   1.140   4.022  0.7494 -0.3924  0.0860
17332TIP3   OH273410   1.499   3.263  17.178 -0.2085  0.4260  0.0803
17332TIP3    H173411   1.492   3.168  17.186 -0.4091  0.4786  0.4886
17332TIP3    H273412   1.528   3.277  17.087 -0.2148 -0.0213  0.0091
17333TIP3   OH273413   0.160   5.162  12.652  0.8344 -0.4358 -0.9585
17333TIP3    H173414   0.109   5.239  12.676  2.6505  0.2189  0.9405
17333TIP3    H273415   0.129   5.093  12.710  0.7968 -0.5172 -1.0762
17334TIP3   OH273416   1.768   3.396   5.128  0.2563  0.2731 -0.3746
17334TIP3    H173417   1.858   3.426   5.131  0.4394 -0.3578  0.4095
17334TIP3    H273418   1.766   3.333   5.056  0.7368 -0.6704  0.4328
17335TIP3   OH273419   2.817   6.403  12.734 -0.2538  0.3257 -0.1458
17335TIP3    H173420   2.756   6.471  12.705  0.2937  1.3840  1.0789
17335TIP3    H273421   2.845   6.359  12.654 -0.5081  1.6623 -0.9852
17336TIP3   OH273422   5.015   1.553  10.892  0.0229 -0.3633 -0.0219
17336TIP3    H173423   5.103   1.531  10.860  0.9521 -1.2149  2.9667
17336TIP3    H273424   4.968   1.470  10.894 -0.4229 -0.1206 -0.3631
17337TIP3   OH273425   5.952   0.874  15.406 -0.1420  0.6928  0.1395
17337TIP3    H173426   5.981   0.909  15.490 -0.1609 -3.1835  1.8730
17337TIP3    H273427   5.858   0.861  15.416  0.2541 -2.2883  0.5949
17338TIP3   OH273428   2.969   1.078  14.541  0.2325  0.3985  0.5019
17338TIP3    H173429   3.057   1.041  14.529  0.6675  1.1162  1.4006
17338TIP3    H273430   2.949   1.062  14.633  1.0055  3.5473  1.2929
17339TIP3   OH273431   4.105   3.326  11.185 -0.1469 -0.1233  0.0869
17339TIP3    H173432   4.077   3.412  11.154  0.4223  0.2968  0.7498
17339TIP3    H273433   4.197   3.337  11.209 -0.0263 -0.9555  0.0300
17340TIP3   OH273434   1.438   2.187  16.596 -0.2813  0.2875  0.4195
17340TIP3    H173435   1.393   2.173  16.679  0.0739  0.5546  0.6602
17340TIP3    H273436   1.527   2.214  16.620  0.2311 -0.9172 -0.0531
17341TIP3   OH273437   6.753   3.431   4.492  0.1160 -0.0116 -0.3020
17341TIP3    H173438   6.663   3.435   4.462 -0.0642 -1.2828  0.0248
17341TIP3    H273439   6.787   3.519   4.479 -2.0081  1.2323  2.1967
17342TIP3   OH273440   6.170   4.946  11.664 -0.0413  0.0272  0.1076
17342TIP3    H173441   6.167   4.855  11.694 -0.6687  0.4168  1.2551
17342TIP3    H273442   6.146   4.997  11.741  1.6121  1.2511 -0.1701
17343TIP3   OH273443   3.466   5.607   5.388 -0.7759  0.1828  0.3668
17343TIP3    H173444   3.399   5.632   5.452 -0.5951 -0.4352  0.7960
17343TIP3    H273445   3.533   5.562   5.439 -0.3914  0.1211 -0.1840
17344TIP3   OH273446   2.817   2.046  15.391 -0.0527 -0.1226  0.1845
17344TIP3    H173447   2.766   1.996  15.327  0.7045 -2.0185  1.0087
17344TIP3    H273448   2.829   1.985  15.465 -0.0854  1.6906  1.7165
17345TIP3   OH273449   4.631   0.903   5.219  0.2847 -0.3785 -0.0146
17345TIP3    H173450   4.630   0.989   5.177 -1.7575 -0.1832  0.3848
17345TIP3    H273451   4.564   0.909   5.287  0.6643 -2.0398  0.5249
17346TIP3   OH273452   3.002   0.165   3.558  0.7200  0.5370  0.0508
17346TIP3    H173453   3.041   0.169   3.645  1.3106  0.7209 -0.2143
17346TIP3    H273454   2.940   0.238   3.556  0.4833  0.3482  0.4181
17347TIP3   OH273455   6.381   3.960  16.854  0.1332  0.1297 -0.0032
17347TIP3    H173456   6.313   3.896  16.833 -0.7007  0.7009  0.9332
17347TIP3    H273457   6.378   4.023  16.782 -0.0173 -0.0947 -0.1955
17348TIP3   OH273458   6.073   5.633   0.417  0.3929  0.0984 -0.3309
17348TIP3    H173459   5.990   5.651   0.372  0.1914  0.5523  0.2217
17348TIP3    H273460   6.054   5.646   0.509  0.5402 -1.8608 -0.0036
17349TIP3   OH273461   2.675   5.954   6.194 -0.5173 -0.8407 -0.3349
17349TIP3    H173462   2.604   6.018   6.193 -0.0625 -0.3304 -0.4423
17349TIP3    H273463   2.631   5.869   6.187 -1.0654 -0.4874 -1.3478
17350TIP3   OH273464   0.129   4.882   0.060 -0.2458 -0.2866  0.1684
17350TIP3    H173465   0.200   4.873  -0.004 -2.1336 -0.2693 -2.0010
17350TIP3    H273466   0.130   4.799   0.108  1.1924 -0.3134  0.1130
17351TIP3   OH273467   6.419   3.686  12.001 -0.7418  0.5004  0.0980
17351TIP3    H173468   6.353   3.755  12.011 -1.8822 -0.6173  0.4990
17351TIP3    H273469   6.390   3.616  12.061 -0.3493 -0.8601 -1.2594
17352TIP3   OH273470   4.788   1.717   4.863  0.2110 -0.4677 -0.1706
17352TIP3    H173471   4.752   1.645   4.914  0.6775 -1.2472 -0.9222
17352TIP3    H273472   4.753   1.796   4.904 -0.9786 -1.1514  0.1553
17353TIP3   OH273473   1.272   2.624  16.528  0.3968  0.7866 -0.0713
17353TIP3    H173474   1.184   2.660  16.534  0.6517  1.1318  2.1107
17353TIP3    H273475   1.329   2.701  16.530  0.7695  0.5541 -1.2674
17354TIP3   OH273476   0.868   0.096  10.347 -0.0349  0.1440 -0.2547
17354TIP3    H173477   0.899   0.015  10.387 -0.4725  0.1122  0.0328
17354TIP3    H273478   0.911   0.100  10.262  2.1041  0.9803  0.8440
17355TIP3   OH273479   0.983   1.832  12.604 -0.6651  0.0448  0.2079
17355TIP3    H173480   1.074   1.817  12.577 -0.8302  1.4564 -1.1994
17355TIP3    H273481   0.934   1.761  12.564 -0.6572  1.1901 -1.8857
17356TIP3   OH273482   0.578   1.807  11.578  0.3502 -0.0045 -0.0795
17356TIP3    H173483   0.600   1.795  11.486  1.2664 -0.9545  0.2554
17356TIP3    H273484   0.496   1.760  11.589 -1.1494  2.3133 -0.9958
17357TIP3   OH273485   3.474   1.528   0.487  0.2361 -0.1154  0.4233
17357TIP3    H173486   3.426   1.482   0.418 -0.4207  1.9852 -0.5656
17357TIP3    H273487   3.522   1.596   0.441  0.1067  1.0627  1.9991
17358TIP3   OH273488   5.559   4.057  14.411  0.0621  0.7075  0.1514
17358TIP3    H173489   5.635   4.115  14.405  0.0583  0.6209 -0.8180
17358TIP3    H273490   5.596   3.971  14.431  0.0133  1.1729  2.3343
17359TIP3   OH273491   4.437   3.305  15.093 -0.1602  0.6384 -1.0947
17359TIP3    H173492   4.367   3.268  15.039 -1.5226  0.6831  0.5744
17359TIP3    H273493   4.414   3.398  15.101  1.5247  1.2215 -2.6597
17360TIP3   OH273494   4.778   0.587  13.837 -0.3100  0.1250 -0.2277
17360TIP3    H173495   4.858   0.567  13.788 -1.4664 -1.0862 -1.6775
17360TIP3    H273496   4.739   0.660  13.790  0.7854  1.8448  1.4819
17361TIP3   OH273497   6.133   3.109  11.879 -0.5902 -0.2099  0.2021
17361TIP3    H173498   6.047   3.076  11.855  0.0130 -0.9762 -0.9330
17361TIP3    H273499   6.127   3.204  11.866 -1.3895 -0.2019  0.5754
17362TIP3   OH273500   6.208   0.491  17.165  0.1850  0.1576 -0.0388
17362TIP3    H173501   6.278   0.536  17.118  0.2604 -1.3239 -1.3953
17362TIP3    H273502   6.158   0.561  17.207  2.0795  1.2684  0.4027
17363TIP3   OH273503   3.669   0.046   2.862  0.0553  0.1392 -0.2684
17363TIP3    H173504   3.635   0.128   2.828 -1.1183 -1.1694 -2.3136
17363TIP3    H273505   3.612   0.025   2.936 -1.0065  0.0528 -1.1053
17364TIP3   OH273506   3.737   1.167   4.348  0.3537  0.2857 -0.2084
17364TIP3    H173507   3.788   1.222   4.407  0.6873 -0.6925  0.4208
17364TIP3    H273508   3.692   1.229   4.290  0.7018  1.2140  0.5106
17365TIP3   OH273509   0.450   3.238   1.687 -0.6842  0.3396 -0.4750
17365TIP3    H173510   0.507   3.161   1.683 -0.0985  0.7221  0.3725
17365TIP3    H273511   0.361   3.202   1.693 -0.4394 -0.2616 -0.4207
17366TIP3   OH273512   5.429   3.658  16.026  0.0642 -0.0418  0.6143
17366TIP3    H173513   5.445   3.629  15.937 -0.8972  0.6568  0.2015
17366TIP3    H273514   5.457   3.750  16.027 -2.1960  0.7009  0.3305
17367TIP3   OH273515   4.699   0.792   5.619  0.5012  0.0611 -0.1678
17367TIP3    H173516   4.723   0.880   5.648  2.0387 -0.3741 -0.0354
17367TIP3    H273517   4.648   0.755   5.691 -0.4884  0.9797 -0.3923
17368TIP3   OH273518   3.383   0.832  10.994 -0.0517 -0.2162 -0.4008
17368TIP3    H173519   3.297   0.805  11.026 -0.4863  0.2032 -1.1954
17368TIP3    H273520   3.404   0.910  11.045  0.8833 -1.6147  1.3926
17369TIP3   OH273521   2.475   0.901   5.866  0.4625  0.2755  0.3805
17369TIP3    H173522   2.457   0.828   5.925 -0.5786  0.1517 -0.0738
17369TIP3    H273523   2.390   0.941   5.851  0.0693 -1.9116 -3.9336
17370TIP3   OH273524   0.379   5.538  14.551 -0.0265  0.1284 -0.2991
17370TIP3    H173525   0.402   5.475  14.620 -0.0239 -1.5305 -1.7656
17370TIP3    H273526   0.376   5.622  14.596 -0.1324 -0.9202  1.7564
17371TIP3   OH273527   4.270   5.696  16.390  0.1326 -0.4933 -0.2793
17371TIP3    H173528   4.364   5.712  16.379  0.2579 -1.0501 -0.0216
17371TIP3    H273529   4.241   5.766  16.449  0.3676 -0.2685 -0.4258
17372TIP3   OH273530   3.671   5.551   1.895 -0.2259  0.6338 -0.7707
17372TIP3    H173531   3.613   5.520   1.965 -1.2100  1.1317 -1.3560
17372TIP3    H273532   3.732   5.479   1.880 -0.0807  0.4719  0.5171
17373TIP3   OH273533   0.788   1.613  14.398  0.0809  0.0682 -0.1998
17373TIP3    H173534   0.876   1.578  14.384  0.1884  0.2738 -0.0529
17373TIP3    H273535   0.803   1.700  14.436 -0.1880 -0.6862  1.6924
17374TIP3   OH273536   6.556   0.554  15.766 -0.5673 -0.0961  0.2305
17374TIP3    H173537   6.641   0.546  15.723  0.2645  1.7652  1.4761
17374TIP3    H273538   6.492   0.541  15.695  0.7574  0.9338 -1.1896
17375TIP3   OH273539   3.120   5.219   5.372 -0.1620 -0.6066 -0.1973
17375TIP3    H173540   3.060   5.183   5.307 -0.1872 -1.7568  0.4572
17375TIP3    H273541   3.190   5.154   5.381  0.6096  0.2045 -0.1306
17376TIP3   OH273542   6.523   3.858   1.871 -0.0384 -0.1798  0.5248
17376TIP3    H173543   6.498   3.850   1.779 -1.3629  0.0653  0.8514
17376TIP3    H273544   6.612   3.821   1.876 -0.1136 -0.5400 -0.7680
17377TIP3   OH273545   3.911   6.760   1.173  0.3566  0.1859  0.2394
17377TIP3    H173546   3.848   6.771   1.102 -1.8086 -0.9932  1.9016
17377TIP3    H273547   3.939   6.849   1.196 -0.5146  0.7018 -0.7011
17378TIP3   OH273548   1.713   0.547  13.849  0.7271  0.0345  0.2325
17378TIP3    H173549   1.627   0.580  13.875 -0.1997 -1.3503 -1.0100
17378TIP3    H273550   1.724   0.579  13.759  1.2738 -0.2770  0.1882
17379TIP3   OH273551   3.617   5.295   4.330 -0.0472  0.2381 -0.4080
17379TIP3    H173552   3.665   5.217   4.302 -1.4434 -0.1782 -1.7256
17379TIP3    H273553   3.600   5.280   4.423 -0.2062 -0.9908 -0.6235
17380TIP3   OH273554   4.573   3.391   0.280  0.3843 -0.0868  0.0420
17380TIP3    H173555   4.549   3.298   0.280  0.3810 -0.0882 -0.6697
17380TIP3    H273556   4.560   3.419   0.370 -0.5423 -0.5511  0.0600
17381TIP3   OH273557   1.834   6.298  12.820  0.4921 -0.5199  0.2325
17381TIP3    H173558   1.859   6.389  12.834  1.5282 -0.7573 -0.0415
17381TIP3    H273559   1.741   6.294  12.844  0.3899  0.6476  0.0365
17382TIP3   OH273560   5.178   4.276  14.866 -0.7286  0.2333  0.2994
17382TIP3    H173561   5.112   4.272  14.934 -0.1141 -0.4042  0.8687
17382TIP3    H273562   5.243   4.337  14.899 -0.9075  0.6599 -0.1421
17383TIP3   OH273563   5.609   1.763  15.750  0.8108  0.2040  0.2193
17383TIP3    H173564   5.540   1.742  15.686  0.1309  0.5079  0.8392
17383TIP3    H273565   5.688   1.723  15.714  0.7754  1.6997 -1.5890
17384TIP3   OH273566   1.338   6.381  12.313  0.2136 -1.2258 -0.1858
17384TIP3    H173567   1.388   6.462  12.320 -1.5809 -0.1234  0.2368
17384TIP3    H273568   1.357   6.334  12.395 -0.0425 -0.4521  0.3273
17385TIP3   OH273569   0.119   5.296   2.807 -0.3024  0.4264  0.2639
17385TIP3    H173570   0.200   5.262   2.771 -1.6401 -1.7719 -0.7996
17385TIP3    H273571   0.132   5.296   2.902  1.0951  0.5777  0.0779
17386TIP3   OH273572   2.991   1.823   2.170 -0.3696 -0.5445 -0.0537
17386TIP3    H173573   2.984   1.744   2.225 -2.2054 -0.1862  0.2886
17386TIP3    H273574   3.084   1.842   2.167 -0.0206 -1.9370  1.0137
17387TIP3   OH273575   1.699   1.518   3.966 -0.1925  0.0762 -0.4909
17387TIP3    H173576   1.641   1.589   3.995 -0.9342 -0.6955 -0.0537
17387TIP3    H273577   1.717   1.468   4.046 -0.1221 -0.5474 -0.8984
17388TIP3   OH273578   0.540   5.251  15.360  0.0194 -0.0440  0.5739
17388TIP3    H173579   0.598   5.205  15.301 -0.2282  1.5780 -0.9793
17388TIP3    H273580   0.597   5.284  15.430  0.6750 -0.0332  0.0305
17389TIP3   OH273581   3.496   0.314  16.782 -0.3667  0.1793 -0.2071
17389TIP3    H173582   3.578   0.298  16.829 -0.7019 -0.1507  0.2769
17389TIP3    H273583   3.494   0.409  16.770  0.3786  0.1289 -0.7684
17390TIP3   OH273584   4.129   4.051  11.477  0.1430  0.1303 -0.1861
17390TIP3    H173585   4.071   4.128  11.479 -0.5903 -0.4366  0.6113
17390TIP3    H273586   4.209   4.081  11.520 -0.3876  0.2572  0.7270
17391TIP3   OH273587   5.617   1.916  14.895 -0.0633  0.5492  0.1817
17391TIP3    H173588   5.691   1.858  14.876  0.5450  0.8188  1.7000
17391TIP3    H273589   5.628   1.989  14.834  0.6155  0.3324  0.0349
17392TIP3   OH273590   4.532   0.066  14.151 -0.2424  0.7138  0.0908
17392TIP3    H173591   4.546   0.039  14.242  0.9543  0.3334 -0.2012
17392TIP3    H273592   4.480  -0.005  14.113  0.3347  0.2586  0.1412
17393TIP3   OH273593   0.465   0.822  13.357  0.6035  0.3485  0.3522
17393TIP3    H173594   0.560   0.824  13.368  0.7148 -0.4691 -0.3629
17393TIP3    H273595   0.453   0.803  13.264 -0.2428 -1.5539  0.8384
17394TIP3   OH273596   5.313   0.225  14.828  0.0723 -0.5206  0.1642
17394TIP3    H173597   5.283   0.137  14.852  0.9109 -0.7634  0.3176
17394TIP3    H273598   5.341   0.264  14.911  0.8167 -0.5398 -0.0717
17395TIP3   OH273599   5.454   3.173  12.935 -0.1428  0.3124 -0.0076
17395TIP3    H173600   5.388   3.108  12.911  0.7844 -1.3926  1.9773
17395TIP3    H273601   5.474   3.155  13.027  1.6625  2.0845 -0.0165
17396TIP3   OH273602   3.182   1.721  15.184 -0.1541  0.0655 -0.0724
17396TIP3    H173603   3.243   1.744  15.254 -0.2358  2.2964 -0.6889
17396TIP3    H273604   3.224   1.647  15.140  1.6500  0.9335  0.1322
17397TIP3   OH273605   2.494   1.709   3.068 -0.0525  0.5639 -0.3654
17397TIP3    H173606   2.494   1.805   3.071 -0.9326  0.7074 -3.3573
17397TIP3    H273607   2.586   1.685   3.069  0.2234  1.5369 -1.0722
17398TIP3   OH273608   4.588   0.939  13.298 -0.3448  0.1773  0.0378
17398TIP3    H173609   4.534   1.004  13.252 -0.2514  0.5853  0.5134
17398TIP3    H273610   4.649   0.907  13.231  0.1816  1.1981  0.0195
17399TIP3   OH273611   5.368   5.310  16.016 -0.2192 -0.3089  0.5420
17399TIP3    H173612   5.288   5.268  16.046 -0.3525 -0.4514 -0.0070
17399TIP3    H273613   5.438   5.248  16.036 -0.2813 -0.3008  0.7752
17400TIP3   OH273614   2.907   1.757  12.793  0.2133 -0.2524  0.7087
17400TIP3    H173615   2.903   1.713  12.708  1.4210  0.7836  0.0998
17400TIP3    H273616   2.825   1.806  12.798  0.3784  0.1208 -0.1079
17401TIP3   OH273617   1.616   2.051   3.557 -0.3187  0.6482 -0.3061
17401TIP3    H173618   1.608   2.093   3.642  2.3718 -0.2006  0.4339
17401TIP3    H273619   1.577   1.964   3.569  0.1158  0.5064  0.0896
17402TIP3   OH273620   3.807   3.196  14.135 -0.0514  0.4450  0.0352
17402TIP3    H173621   3.724   3.175  14.176  1.0384  0.1783  2.1736
17402TIP3    H273622   3.831   3.281  14.170  1.6816 -0.5160  1.2953
17403TIP3   OH273623   0.826   2.959   3.685 -0.1730  0.1663  0.0300
17403TIP3    H173624   0.865   2.875   3.712 -1.6691  0.2451  2.5554
17403TIP3    H273625   0.753   2.972   3.746 -0.8959  2.5700 -1.3183
17404TIP3   OH273626   4.237   6.495   4.849 -0.0426 -0.1322 -0.8928
17404TIP3    H173627   4.232   6.514   4.943 -1.2495  1.0526 -1.1724
17404TIP3    H273628   4.183   6.563   4.808  0.7024 -0.4605 -2.4720
17405TIP3   OH273629   3.886   5.525   4.654  0.1217  0.0350  0.9276
17405TIP3    H173630   3.952   5.471   4.697 -0.1509 -0.8378  0.2641
17405TIP3    H273631   3.936   5.594   4.611  0.4713  0.3215  1.7816
17406TIP3   OH273632   1.242   0.218   6.180 -0.0256  0.8811 -0.7246
17406TIP3    H173633   1.271   0.238   6.091  2.0889  1.4680  0.0620
17406TIP3    H273634   1.235   0.122   6.182  0.7594  0.8059 -1.2911
17407TIP3   OH273635   1.486   4.592   3.177  0.1494  0.4326 -0.4695
17407TIP3    H173636   1.473   4.611   3.270  1.8757  1.7285 -0.4786
17407TIP3    H273637   1.560   4.531   3.175  1.5814  2.1576 -1.1088
17408TIP3   OH273638   1.978   0.098   2.916 -0.2976  0.3836 -0.5798
17408TIP3    H173639   2.001   0.008   2.898 -0.4375 -0.0015  1.0441
17408TIP3    H273640   1.960   0.137   2.830  0.8060 -0.8263 -1.3669
17409TIP3   OH273641   1.025   0.587   0.187  0.0336 -0.2090 -0.4490
17409TIP3    H173642   1.065   0.646   0.124  0.1043  0.1000 -0.1195
17409TIP3    H273643   1.024   0.501   0.144 -0.1420  0.0477 -0.9610
17410TIP3   OH273644   4.064   5.250   3.863  0.2408 -0.1022  0.1019
17410TIP3    H173645   4.090   5.320   3.923 -0.1004 -0.7036  0.9654
17410TIP3    H273646   4.139   5.190   3.861  0.5424  0.2961 -0.6550
17411TIP3   OH273647   0.749   3.048   4.160  0.2249 -0.4993  0.4011
17411TIP3    H173648   0.755   3.086   4.248 -1.6839 -0.1822  0.4186
17411TIP3    H273649   0.741   2.954   4.175  1.4028 -0.5898  0.4989
17412TIP3   OH273650   5.284   3.003  14.506  0.0480 -0.0232  0.3864
17412TIP3    H173651   5.328   2.994  14.421  0.6440  0.3953  0.6517
17412TIP3    H273652   5.353   2.991  14.570 -0.4593 -0.6490  0.8290
17413TIP3   OH273653   2.119   4.734  15.022  0.7081  1.0955  0.1662
17413TIP3    H173654   2.180   4.696  14.958 -0.5174  0.5489 -0.7095
17413TIP3    H273655   2.117   4.827  15.001  1.0989  1.0808  0.0634
17414TIP3   OH273656   1.637   5.815  13.322  0.2343 -0.2956  0.2696
17414TIP3    H173657   1.562   5.789  13.377  0.6590 -2.2271 -0.0600
17414TIP3    H273658   1.706   5.752  13.344  1.0581  0.1447 -1.0389
17415TIP3   OH273659   1.642   4.135   1.801 -0.6043  0.0706 -0.3127
17415TIP3    H173660   1.584   4.165   1.871  0.4674 -0.7530  0.9744
17415TIP3    H273661   1.614   4.046   1.783 -0.5152  0.0887 -0.5456
17416TIP3   OH273662   3.017   5.266   5.663  0.6421 -0.5331  0.0914
17416TIP3    H173663   3.102   5.227   5.683  1.3298  0.4208 -0.8955
17416TIP3    H273664   3.018   5.278   5.568  0.1158  1.1013  0.2759
17417TIP3   OH273665   3.162   1.716   4.437  0.4418  0.2340 -0.3888
17417TIP3    H173666   3.108   1.755   4.506 -0.4266  1.6013 -1.7974
17417TIP3    H273667   3.110   1.642   4.406  0.8529 -0.4081  0.4521
17418TIP3   OH273668   0.470   6.582  11.112  0.0649 -0.3818 -0.1078
17418TIP3    H173669   0.443   6.603  11.202  1.5385  2.5151 -0.2822
17418TIP3    H273670   0.425   6.645  11.058  2.0292  0.2824 -1.0271
17419TIP3   OH273671   5.007   4.718   2.001 -0.1477 -0.2651 -0.4231
17419TIP3    H173672   4.974   4.667   1.927  0.8442  0.4046 -1.3413
17419TIP3    H273673   5.099   4.691   2.010 -0.3951 -0.7239  0.9010
17420TIP3   OH273674   2.677   2.074  12.125 -0.4576 -0.0002  0.2076
17420TIP3    H173675   2.745   2.134  12.097 -0.6955  0.0410 -0.2860
17420TIP3    H273676   2.645   2.111  12.207 -0.0766  0.1266  0.3015
17421TIP3   OH273677   0.355   6.543  10.567 -0.1140  0.5588 -0.8359
17421TIP3    H173678   0.417   6.610  10.595  1.0233 -0.7290 -0.1660
17421TIP3    H273679   0.291   6.589  10.514  0.1753  2.3081  0.3072
17422TIP3   OH273680   5.462   5.925   1.598  0.0196  0.2458  0.3725
17422TIP3    H173681   5.530   5.862   1.572  2.7663  3.0769  0.3555
17422TIP3    H273682   5.423   5.952   1.515  1.1962  1.0498  0.0550
17423TIP3   OH273683   5.501   0.304   4.366  0.3062  0.2295 -0.7755
17423TIP3    H173684   5.476   0.367   4.434 -0.9134  1.0890 -1.9965
17423TIP3    H273685   5.595   0.289   4.380 -0.2086 -0.7847  2.0534
17424TIP3   OH273686   2.598   4.640  13.545 -0.3610 -0.0541 -0.0754
17424TIP3    H173687   2.596   4.551  13.509 -1.0898 -0.3841  0.7486
17424TIP3    H273688   2.515   4.678  13.518  0.0055  0.4246 -0.5316
17425TIP3   OH273689   4.870   1.800   0.356  0.4175 -0.6096 -0.3382
17425TIP3    H173690   4.878   1.866   0.287 -0.1775  0.5323  0.6700
17425TIP3    H273691   4.901   1.719   0.315 -0.0421  0.0195 -1.9830
17426TIP3   OH273692   3.661   3.461   6.006 -0.2099 -0.0359 -0.9179
17426TIP3    H173693   3.724   3.412   5.953  0.0424 -0.7008 -0.0250
17426TIP3    H273694   3.611   3.393   6.052  0.5043  0.5460  0.7577
17427TIP3   OH273695   2.010   2.899   3.552  0.5795  0.6111 -1.0030
17427TIP3    H173696   1.992   2.938   3.638  0.9391 -2.4695  0.5520
17427TIP3    H273697   1.983   2.966   3.489 -2.1867  1.9614  1.4630
17428TIP3   OH273698   2.916   0.446  15.237 -0.0675 -0.0267 -0.1658
17428TIP3    H173699   2.933   0.352  15.234  1.0329  0.0867  1.4426
17428TIP3    H273700   2.913   0.473  15.145  2.0342 -1.2241 -0.6320
17429TIP3   OH273701   0.857   6.732  16.061  0.1809 -0.3847  0.1956
17429TIP3    H173702   0.888   6.743  15.971  0.2214  1.0481  0.3671
17429TIP3    H273703   0.936   6.730  16.114  0.0782  1.1335  0.4239
17430TIP3   OH273704   3.079   1.555   3.901  0.4014 -0.1259  0.2506
17430TIP3    H173705   3.103   1.493   3.833  1.1685  1.1125 -0.6265
17430TIP3    H273706   3.151   1.552   3.963  1.1160  0.9027 -0.5116
17431TIP3   OH273707   3.583   6.051  13.663 -0.5026 -0.0883 -0.0996
17431TIP3    H173708   3.574   6.062  13.568 -1.6141  1.5258  0.1828
17431TIP3    H273709   3.552   5.962  13.679  0.1681 -0.5651 -1.2923
17432TIP3   OH273710   2.528   3.179   1.835 -0.3619 -0.5725 -0.3190
17432TIP3    H173711   2.544   3.231   1.914 -0.9991 -2.1367  0.8502
17432TIP3    H273712   2.541   3.241   1.763 -1.6397  1.3515  1.0713
17433TIP3   OH273713   5.301   4.070  14.551  0.0313  0.2053 -0.0032
17433TIP3    H173714   5.317   4.161  14.576 -0.8770  0.2912  0.2717
17433TIP3    H273715   5.383   4.043  14.509  0.7201  0.7816  0.9476
17434TIP3   OH273716   2.409   0.975   0.908  0.4605 -0.0268 -0.0412
17434TIP3    H173717   2.379   1.064   0.928  4.5906  1.8270 -1.5105
17434TIP3    H273718   2.470   0.955   0.979  1.0248 -0.8917 -0.7672
17435TIP3   OH273719   2.423   6.719  13.730  0.3071 -0.2251 -0.3728
17435TIP3    H173720   2.491   6.681  13.787 -1.0511  0.7886  2.0161
17435TIP3    H273721   2.436   6.813  13.737  0.2622 -0.0861 -1.9739
17436TIP3   OH273722   2.203   3.115  16.244  0.0443 -0.6944 -0.2583
17436TIP3    H173723   2.287   3.119  16.199  0.5235  0.7243  0.7498
17436TIP3    H273724   2.208   3.182  16.312 -1.5224 -1.2729  0.4630
17437TIP3   OH273725   4.303   1.062  16.037  0.3282 -0.3093  0.8729
17437TIP3    H173726   4.306   1.049  15.942 -0.3654  0.9670  0.6637
17437TIP3    H273727   4.286   1.156  16.048 -0.7691 -0.6400  2.2392
17438TIP3   OH273728   4.286   1.272  15.399 -0.0265  0.2018  0.2939
17438TIP3    H173729   4.191   1.257  15.406  0.5168 -2.8295  1.7234
17438TIP3    H273730   4.311   1.308  15.484  0.1877  0.5686  0.0746
17439TIP3   OH273731   0.881   2.591  17.182  0.4008  0.0378  0.5083
17439TIP3    H173732   0.891   2.536  17.260  3.4580 -0.9588 -0.5214
17439TIP3    H273733   0.953   2.652  17.186 -0.8578  1.6142 -0.2850
17440TIP3   OH273734   5.013   0.216   6.073 -0.3231  0.1364 -0.1425
17440TIP3    H173735   5.087   0.264   6.110 -0.2557 -0.5626  0.6338
17440TIP3    H273736   4.966   0.181   6.149 -0.6492 -0.6168 -0.6839
17441TIP3   OH273737   0.845   3.941  11.534  0.1719  0.4673 -0.1797
17441TIP3    H173738   0.901   3.999  11.482 -0.0390 -0.8259 -1.8532
17441TIP3    H273739   0.830   3.865  11.479 -1.0127 -0.4228  1.3261
17442TIP3   OH273740   5.502   3.091   0.026 -0.2733  0.1154 -0.0652
17442TIP3    H173741   5.423   3.134   0.058  0.5481  1.3294  0.3568
17442TIP3    H273742   5.561   3.088   0.101  0.6654  0.6248 -0.7610
17443TIP3   OH273743   5.257   0.045   3.097 -0.0545  0.4208  0.8977
17443TIP3    H173744   5.308   0.116   3.136  0.8164  0.0471  0.4575
17443TIP3    H273745   5.319  -0.028   3.090 -0.0339  0.6124 -1.5811
17444TIP3   OH273746   2.426   2.707   4.031 -0.2110  0.1478 -0.1876
17444TIP3    H173747   2.465   2.629   3.991 -0.8381  0.0542 -0.6391
17444TIP3    H273748   2.383   2.752   3.958 -1.1747  0.1026  0.3318
17445TIP3   OH273749   1.058   2.176   6.113  0.1074  0.3105  0.7879
17445TIP3    H173750   1.071   2.241   6.182 -0.8733  0.6285  0.6821
17445TIP3    H273751   1.125   2.196   6.048  1.4841 -0.4238  1.9620
17446TIP3   OH273752   0.782   0.628   0.897  0.5577  0.4556 -0.2155
17446TIP3    H173753   0.701   0.679   0.897 -0.5327 -1.1693 -2.7382
17446TIP3    H273754   0.792   0.599   0.987 -1.1218  1.5149  0.3390
17447TIP3   OH273755   3.645   0.465   3.709 -0.1818  0.3659 -0.6180
17447TIP3    H173756   3.733   0.484   3.742 -0.4329  0.2478  0.1210
17447TIP3    H273757   3.590   0.461   3.787 -0.5914 -0.9720 -0.9637
17448TIP3   OH273758   3.681   6.785   0.925  0.5021 -0.4469 -0.8325
17448TIP3    H173759   3.607   6.745   0.970  1.3137 -1.7222 -0.6021
17448TIP3    H273760   3.699   6.864   0.975 -0.5125 -0.2893 -0.7141
17449TIP3   OH273761   5.231   1.329  10.545 -0.3868  0.0191  0.1661
17449TIP3    H173762   5.149   1.280  10.556 -0.1341 -0.1435  1.3991
17449TIP3    H273763   5.271   1.292  10.466 -1.0985 -0.4742  0.0295
17450TIP3   OH273764   1.683   2.569  11.799 -0.4906 -0.5840  0.5906
17450TIP3    H173765   1.763   2.618  11.779 -1.8751  0.9489 -1.3281
17450TIP3    H273766   1.715   2.482  11.824  1.7565 -0.2045 -0.7706
17451TIP3   OH273767   1.108   0.323   4.595  0.1086  0.4681  0.3324
17451TIP3    H173768   1.099   0.412   4.630  2.3743  0.2953  1.4820
17451TIP3    H273769   1.120   0.335   4.501  0.1318  1.3711  0.4470
17452TIP3   OH273770   0.252   4.744   0.822  0.4548  0.0212  0.0835
17452TIP3    H173771   0.263   4.829   0.864  1.0869 -0.1507  0.2659
17452TIP3    H273772   0.311   4.746   0.747  0.6270 -0.3298  0.2060
17453TIP3   OH273773   1.487   6.385   2.360 -0.9509 -0.0432 -0.1176
17453TIP3    H173774   1.520   6.454   2.304 -3.0438  1.1223  0.0065
17453TIP3    H273775   1.536   6.394   2.442  1.2312 -0.9647 -1.2985
17454TIP3   OH273776   0.690   6.226  15.108 -0.1976 -0.6106  0.4878
17454TIP3    H173777   0.782   6.251  15.102 -0.1122 -1.3654 -1.6854
17454TIP3    H273778   0.681   6.153  15.047 -1.9262 -1.5223  1.7849
17455TIP3   OH273779   2.424   2.755  11.474 -0.1675 -0.2025 -0.4023
17455TIP3    H173780   2.427   2.850  11.465  0.9188 -0.1581  0.4398
17455TIP3    H273781   2.332   2.733  11.458 -0.4427  0.9864 -0.5215
17456TIP3   OH273782   1.926   2.702  14.659  0.0130 -0.2289 -0.0606
17456TIP3    H173783   1.979   2.624  14.641  0.4099  0.1731 -0.6280
17456TIP3    H273784   1.891   2.686  14.747 -0.7151 -1.5005 -0.5722
17457TIP3   OH273785   6.345   3.479  12.326 -0.2855  0.3601  0.5528
17457TIP3    H173786   6.259   3.518  12.337 -1.2310 -2.1779  2.8140
17457TIP3    H273787   6.332   3.410  12.261  0.3119  0.7071  0.0534
17458TIP3   OH273788   5.157   0.055   5.708 -0.0860 -0.2073  0.7538
17458TIP3    H173789   5.206   0.069   5.789  1.8112  0.3240 -0.4543
17458TIP3    H273790   5.208  -0.010   5.660  0.2609  1.4266 -1.1794
17459TIP3   OH273791   1.930   5.620  13.845  0.3787  0.3501 -0.1518
17459TIP3    H173792   1.834   5.620  13.847  0.3701  1.7344 -0.0123
17459TIP3    H273793   1.952   5.672  13.768  1.0267 -0.4004 -0.4816
17460TIP3   OH273794   5.642   2.869   4.322  0.3434  0.3543  0.1533
17460TIP3    H173795   5.692   2.889   4.401 -1.7264 -1.5214  1.9985
17460TIP3    H273796   5.552   2.895   4.342 -0.0861  0.5480 -1.8656
17461TIP3   OH273797   3.860   0.576   6.022 -0.3149  0.4842 -0.4010
17461TIP3    H173798   3.822   0.641   6.081  0.0174 -0.0009  0.3629
17461TIP3    H273799   3.794   0.508   6.016 -0.8932  1.1499 -1.6458
17462TIP3   OH273800   3.564   5.867   0.418  0.0602  0.0103 -0.3458
17462TIP3    H173801   3.643   5.851   0.471  1.3641  1.0126 -1.9657
17462TIP3    H273802   3.544   5.781   0.381  0.5268 -0.2082 -0.1093
17463TIP3   OH273803   0.346   6.542  11.616 -0.5880 -0.3309  0.1998
17463TIP3    H173804   0.381   6.462  11.654  0.5927  0.1545  0.1589
17463TIP3    H273805   0.327   6.598  11.691  3.6869  1.4342  0.1014
17464TIP3   OH273806   3.015   3.326  12.661  0.2701  0.1344 -0.7244
17464TIP3    H173807   3.059   3.393  12.715  1.5426  0.8543 -2.5885
17464TIP3    H273808   3.040   3.349  12.571 -1.2957 -1.4188 -1.5655
17465TIP3   OH273809   2.666   5.820  13.343  0.1383 -0.2252 -0.1142
17465TIP3    H173810   2.693   5.860  13.425 -0.7898  0.3125 -0.0599
17465TIP3    H273811   2.747   5.792  13.301  0.7154  0.7745  0.3288
17466TIP3   OH273812   1.961   3.659   3.561 -0.2931 -0.5283 -0.2371
17466TIP3    H173813   1.943   3.666   3.468  4.2602  0.3973 -1.1583
17466TIP3    H273814   1.981   3.567   3.575 -0.8809 -0.6484 -0.1411
17467TIP3   OH273815   2.356   6.482  12.746 -0.4846  0.1943  0.6342
17467TIP3    H173816   2.399   6.485  12.832 -0.7406  0.0011  0.7662
17467TIP3    H273817   2.424   6.513  12.686  0.0150 -0.6088  0.7741
17468TIP3   OH273818   1.057   5.921  11.871  0.6931 -0.0652  0.1278
17468TIP3    H173819   0.962   5.923  11.882  0.5729 -2.3970 -0.1945
17468TIP3    H273820   1.092   5.930  11.959  0.1713  0.3140  0.2998
17469TIP3   OH273821   3.366   3.320  14.167  0.5189  0.4535  0.4422
17469TIP3    H173822   3.416   3.249  14.207 -1.2304 -0.2239  1.4871
17469TIP3    H273823   3.275   3.301  14.191 -0.5558  0.2758 -3.3900
17470TIP3   OH273824   1.151   1.880  12.845 -0.5401 -0.8480 -0.0171
17470TIP3    H173825   1.110   1.867  12.931  1.4457 -1.5294  0.8587
17470TIP3    H273826   1.079   1.872  12.783 -1.7448 -1.9728  1.4775
17471TIP3   OH273827   5.501   4.490  11.808 -0.1242  0.5171  0.6203
17471TIP3    H173828   5.576   4.431  11.821  1.7504  2.6608  0.0020
17471TIP3    H273829   5.485   4.488  11.713  1.2212  2.4085  0.3124
17472TIP3   OH273830   4.507   6.039  13.893  0.2944 -0.3076 -0.4294
17472TIP3    H173831   4.586   5.988  13.909 -0.0969 -1.0616 -0.9017
17472TIP3    H273832   4.468   6.001  13.814 -0.6430 -0.0687 -0.0947
17473TIP3   OH273833   5.879   5.932  13.587 -0.1985 -0.1640 -0.4525
17473TIP3    H173834   5.886   5.845  13.549  0.4600 -1.1094  1.7480
17473TIP3    H273835   5.787   5.939  13.613 -0.7298  0.6164 -2.4622
17474TIP3   OH273836   3.253   5.143  16.893  0.1583  0.3509 -0.2531
17474TIP3    H173837   3.194   5.203  16.939  2.0849  1.9874  0.1417
17474TIP3    H273838   3.274   5.076  16.958 -0.0245  0.6519  0.1216
17475TIP3   OH273839   4.610   1.855   1.412  0.0058  0.7332  0.5105
17475TIP3    H173840   4.674   1.823   1.475  1.2980 -0.4799 -1.3639
17475TIP3    H273841   4.531   1.805   1.430  0.0199  1.1904  1.8823
17476TIP3   OH273842   2.274   4.276   1.770 -0.2616 -0.2819 -0.4225
17476TIP3    H173843   2.227   4.194   1.755 -0.8452  0.1087 -0.7540
17476TIP3    H273844   2.355   4.267   1.721 -0.8801 -0.1643 -1.4729
17477TIP3   OH273845   6.321   6.655   5.622  0.0529  0.4779  0.0779
17477TIP3    H173846   6.317   6.662   5.717  0.9728  2.7708 -0.0197
17477TIP3    H273847   6.413   6.636   5.603 -0.2115 -0.4160 -0.3435
17478TIP3   OH273848   2.842   3.881  10.914  0.3142 -0.5233  0.1631
17478TIP3    H173849   2.781   3.808  10.921  0.8106 -0.8382  1.2677
17478TIP3    H273850   2.811   3.931  10.838  0.1180 -2.0000 -0.7397
17479TIP3   OH273851   3.281   4.652  12.138  0.0695  0.4896  0.0424
17479TIP3    H173852   3.297   4.745  12.122  2.1200  0.2217  0.3371
17479TIP3    H273853   3.366   4.610  12.122 -0.9992 -1.4425 -0.8382
17480TIP3   OH273854   2.228   5.396   2.938 -0.2879 -0.1179 -0.3935
17480TIP3    H173855   2.159   5.425   2.999 -0.4253 -2.0677  0.4165
17480TIP3    H273856   2.185   5.332   2.882  0.2664  0.4751 -1.5178
17481TIP3   OH273857   5.655   2.625   1.541  0.1289  0.3369  0.1507
17481TIP3    H173858   5.573   2.587   1.574  0.7935 -0.3564  1.0065
17481TIP3    H273859   5.627   2.701   1.490 -0.9124  1.4734  2.3728
17482TIP3   OH273860   4.157   6.571  15.465 -0.2448  0.4672  1.3619
17482TIP3    H173861   4.198   6.657  15.479 -0.1628  0.3216  2.0571
17482TIP3    H273862   4.221   6.509  15.500 -0.2464  0.1156  0.7324
17483TIP3   OH273863   1.398   5.812  10.877 -0.7960  0.8078 -0.0862
17483TIP3    H173864   1.488   5.841  10.864 -1.2148  1.4422 -1.6687
17483TIP3    H273865   1.395   5.724  10.840 -0.4362  0.1570  1.4133
17484TIP3   OH273866   3.063   1.540  14.212 -0.5685 -0.5390  0.5056
17484TIP3    H173867   3.031   1.462  14.168  0.8094 -0.8750  0.0839
17484TIP3    H273868   3.119   1.583  14.148  2.2940 -1.5817  2.2542
17485TIP3   OH273869   6.351   3.374   5.548  0.6289 -0.9512  0.4185
17485TIP3    H173870   6.300   3.445   5.588  0.7808 -0.4704 -0.2499
17485TIP3    H273871   6.373   3.406   5.461 -1.2095 -2.6842 -0.7450
17486TIP3   OH273872   1.411   2.919  15.374 -0.0566  0.1699  0.6841
17486TIP3    H173873   1.394   2.893  15.465  1.4321  0.0141  0.9263
17486TIP3    H273874   1.461   2.846  15.337 -0.2385  0.4472 -0.1194
17487TIP3   OH273875   3.494   1.217   3.045  0.0838  0.1363 -0.6585
17487TIP3    H173876   3.431   1.152   3.076 -0.9124  0.9488 -0.9691
17487TIP3    H273877   3.562   1.165   3.003 -0.2688 -0.7647 -0.1413
17488TIP3   OH273878   4.695   6.593  16.438  0.3154  0.0474 -0.0405
17488TIP3    H173879   4.722   6.680  16.465 -0.2225  1.1231 -2.7499
17488TIP3    H273880   4.734   6.582  16.351 -1.9105 -1.2811 -0.9133
17489TIP3   OH273881   6.353   6.462  14.641  0.2462 -0.6915 -0.3793
17489TIP3    H173882   6.367   6.551  14.608 -1.9953 -0.0151  0.3911
17489TIP3    H273883   6.431   6.444  14.693  1.1177  0.4863 -1.2427
17490TIP3   OH273884   6.045   3.583   5.443 -0.1146  0.1616  0.5400
17490TIP3    H173885   6.006   3.671   5.446  0.7675  0.6425 -1.0615
17490TIP3    H273886   6.103   3.580   5.519  0.4989  1.3072  0.1387
17491TIP3   OH273887   1.358   0.129  11.297  0.8897 -0.1657 -0.5592
17491TIP3    H173888   1.353   0.187  11.220 -1.7940  0.2116 -0.1559
17491TIP3    H273889   1.327   0.045  11.265 -1.9904  0.4397  0.4687
17492TIP3   OH273890   5.419   3.821  14.162 -0.3493  0.4823 -0.0778
17492TIP3    H173891   5.359   3.796  14.091  1.1600 -0.3669 -1.0738
17492TIP3    H273892   5.375   3.792  14.242 -0.7745 -1.1188 -0.8734
17493TIP3   OH273893   1.387   0.979  16.454  0.4042 -0.5323 -0.9808
17493TIP3    H173894   1.340   0.950  16.376 -0.7584 -1.0724 -0.1081
17493TIP3    H273895   1.372   1.074  16.457 -1.2815 -0.7883 -0.3317
17494TIP3   OH273896   1.066   1.766  16.457 -0.1340  0.2331 -0.1213
17494TIP3    H173897   1.135   1.764  16.391  0.5051  2.1042  0.4586
17494TIP3    H273898   1.107   1.734  16.537  0.0812  1.2880  0.2079
17495TIP3   OH273899   0.602   0.853  14.396 -0.2459  0.3836 -0.3101
17495TIP3    H173900   0.521   0.830  14.351 -0.0124  0.6264 -0.8561
17495TIP3    H273901   0.592   0.814  14.483 -0.1234 -1.2758 -1.0104
17496TIP3   OH273902   0.637   4.494   3.004 -0.1899 -0.2075  0.2335
17496TIP3    H173903   0.611   4.511   3.094 -1.5444 -1.5824  0.1366
17496TIP3    H273904   0.656   4.580   2.967 -2.4954  0.6594  0.9845
17497TIP3   OH273905   2.476   4.201   1.580 -0.1506  0.0328 -0.2213
17497TIP3    H173906   2.448   4.109   1.585  0.5887 -0.2168 -0.6126
17497TIP3    H273907   2.565   4.200   1.616  0.2032  0.4454 -1.0819
17498TIP3   OH273908   0.263   3.247   1.967 -0.1286  0.8810 -0.1195
17498TIP3    H173909   0.353   3.221   1.949 -0.2763 -0.3638  0.8285
17498TIP3    H273910   0.265   3.343   1.969  1.8422  0.8608  2.9082
17499TIP3   OH273911   0.843   6.726  11.195 -0.5804 -0.4555  0.1589
17499TIP3    H173912   0.828   6.690  11.283  1.4210 -1.5656  0.0610
17499TIP3    H273913   0.873   6.651  11.144 -1.1487  0.3271 -1.3334
17500TIP3   OH273914   4.598   1.471  15.082  0.0896 -0.2592  0.0144
17500TIP3    H173915   4.642   1.441  15.002  1.7126 -1.1702  1.2248
17500TIP3    H273916   4.668   1.481  15.146 -1.0000  1.8345  0.9551
17501TIP3   OH273917   4.505   2.549  15.863 -0.6713 -0.1445 -0.2747
17501TIP3    H173918   4.537   2.589  15.782 -0.3315 -0.2717 -0.1988
17501TIP3    H273919   4.415   2.522  15.841 -0.1560 -1.3169 -0.9982
17502TIP3   OH273920   3.335   0.533   5.348  0.5393  0.0806 -0.5410
17502TIP3    H173921   3.307   0.550   5.258  0.8941  0.0525 -0.6580
17502TIP3    H273922   3.419   0.488   5.339 -0.0872 -1.1700 -0.2273
17503TIP3   OH273923   1.917   3.681  16.736  0.4944  0.0061 -0.4494
17503TIP3    H173924   1.924   3.738  16.659  1.5005  1.2756  0.5614
17503TIP3    H273925   2.008   3.663  16.760  0.2047  0.3137  0.9291
17504TIP3   OH273926   6.541   5.012  13.319  0.6635  0.0886 -0.3431
17504TIP3    H173927   6.562   5.003  13.226  2.9879  0.0803  0.1326
17504TIP3    H273928   6.626   5.000  13.363 -0.3421  0.4771  1.7430
17505TIP3   OH273929   0.546   3.685  12.265 -0.3204  0.4220  0.4329
17505TIP3    H173930   0.457   3.714  12.282 -0.8296 -0.3879 -0.8344
17505TIP3    H273931   0.578   3.656  12.351 -1.8127 -0.7482  0.6211
17506TIP3   OH273932   5.966   1.987  15.152 -0.4402 -0.5334  0.8166
17506TIP3    H173933   5.903   2.059  15.154  0.0780 -0.0855  0.9681
17506TIP3    H273934   5.959   1.946  15.238 -0.1336 -0.1421  1.0321
17507TIP3   OH273935   2.957   3.824  15.143  0.1942 -0.0407 -0.5150
17507TIP3    H173936   2.985   3.913  15.121 -1.2071  0.5868  0.1907
17507TIP3    H273937   2.877   3.836  15.194 -1.1731 -1.7757 -2.2138
17508TIP3   OH273938   3.279   5.123  16.358 -0.3649  0.1545  0.4256
17508TIP3    H173939   3.331   5.185  16.307  1.9874 -1.5405  0.7082
17508TIP3    H273940   3.332   5.105  16.436 -0.8179 -2.4817  0.1645
17509TIP3   OH273941   0.141   4.398  12.175  0.4859  0.3980 -0.2667
17509TIP3    H173942   0.106   4.353  12.253  0.2250  2.3644  0.7673
17509TIP3    H273943   0.184   4.328  12.125 -0.2284 -1.0788  1.1237
17510TIP3   OH273944   3.203   4.147   6.356 -0.5380 -0.2974 -0.2128
17510TIP3    H173945   3.121   4.099   6.369 -1.8142  1.8612 -0.1140
17510TIP3    H273946   3.265   4.104   6.415 -1.4741 -2.2026 -0.5680
17511TIP3   OH273947   5.324   2.794   3.602  0.0579 -0.1066 -0.0593
17511TIP3    H173948   5.410   2.752   3.607 -0.8864 -1.9599  1.1360
17511TIP3    H273949   5.341   2.886   3.622  1.8750 -0.3024 -0.6381
17512TIP3   OH273950   5.488   5.022   1.990 -0.3833  0.1377 -0.0030
17512TIP3    H173951   5.424   4.951   1.982 -0.3848  0.0321  0.9221
17512TIP3    H273952   5.545   5.012   1.914 -0.3863 -0.8555  0.1245
17513TIP3   OH273953   0.984   2.095  16.539 -0.1053 -0.0200  0.2539
17513TIP3    H173954   0.946   2.108  16.626 -0.9132 -0.1857 -0.0694
17513TIP3    H273955   1.040   2.172  16.526 -1.4791  0.9809  0.1382
17514TIP3   OH273956   4.233   2.756  15.331  0.0443  0.1912 -0.2152
17514TIP3    H173957   4.258   2.699  15.259 -1.4616 -0.0165 -0.5812
17514TIP3    H273958   4.185   2.828  15.290 -0.5985  0.2025  0.5394
17515TIP3   OH273959   3.829   3.993  13.381  0.1207  0.5545 -0.0275
17515TIP3    H173960   3.833   3.918  13.321 -0.4053  0.6764 -0.2181
17515TIP3    H273961   3.735   4.006  13.396  0.2539  0.5653  0.7716
17516TIP3   OH273962   0.885   3.808   5.857 -0.2597  0.3939 -0.1987
17516TIP3    H173963   0.845   3.796   5.771  1.2775  1.1858 -1.0426
17516TIP3    H273964   0.958   3.746   5.858 -0.3283  0.3206  0.5825
17517TIP3   OH273965   0.063   4.992   2.884  0.4449 -0.5346 -0.2370
17517TIP3    H173966   0.061   4.992   2.979  2.9125  0.5803 -0.1584
17517TIP3    H273967   0.114   4.914   2.861  0.1394 -0.6188 -0.6359
17518TIP3   OH273968   4.906   0.599  10.885 -0.0468 -0.1264  0.2648
17518TIP3    H173969   4.908   0.507  10.910  0.2073  0.2352  1.6067
17518TIP3    H273970   4.887   0.598  10.791  1.1936 -1.5696  0.0189
17519TIP3   OH273971   0.381   3.307  14.282 -0.1337  0.2623  0.0579
17519TIP3    H173972   0.288   3.306  14.260 -0.6215  1.7998  1.9279
17519TIP3    H273973   0.410   3.395  14.258  1.0570 -0.4554 -1.2364
17520TIP3   OH273974   3.230   6.051  13.013  0.3527  0.3618 -0.2081
17520TIP3    H173975   3.279   5.970  13.025  1.5170  1.5449  3.6368
17520TIP3    H273976   3.288   6.107  12.961  2.4445  1.0736  2.7471
17521TIP3   OH273977   3.995   4.256   4.906  0.5616  0.7506 -0.4495
17521TIP3    H173978   4.074   4.267   4.853  1.0922 -0.8677 -0.0439
17521TIP3    H273979   3.946   4.186   4.861 -1.2651  2.5750 -1.3948
17522TIP3   OH273980   2.941   2.389   5.221  0.0730 -0.0727 -0.6065
17522TIP3    H173981   2.954   2.450   5.293 -0.5659  1.1076 -1.4669
17522TIP3    H273982   2.981   2.431   5.145 -0.3158 -0.7454 -1.2027
17523TIP3   OH273983   0.897   3.678  13.427  0.2773  0.4073  0.7794
17523TIP3    H173984   0.920   3.754  13.480  2.1142 -0.3916  1.1778
17523TIP3    H273985   0.967   3.672  13.362 -1.3671  0.7149 -1.0649
17524TIP3   OH273986   2.629   3.854   5.596 -0.3930  0.3382  0.2937
17524TIP3    H173987   2.588   3.874   5.680 -0.2851  0.2429  0.3686
17524TIP3    H273988   2.702   3.796   5.618 -0.2499  0.4640  0.1529
17525TIP3   OH273989   5.207   1.665   1.562 -0.4955  0.5576  0.1685
17525TIP3    H173990   5.270   1.734   1.584  2.0411 -1.4196 -0.8284
17525TIP3    H273991   5.176   1.688   1.474  1.1842 -0.1894 -0.6193
17526TIP3   OH273992   1.686   5.058   6.183  0.8010  0.2218  0.1364
17526TIP3    H173993   1.701   4.995   6.253 -0.7220 -0.5945 -0.2591
17526TIP3    H273994   1.683   5.143   6.227 -2.0050 -0.4537  1.3186
17527TIP3   OH273995   3.338   0.254  12.241  0.5605  0.3763 -0.2806
17527TIP3    H173996   3.317   0.231  12.151  0.4386 -0.8717  0.0618
17527TIP3    H273997   3.253   0.260  12.285  0.6718  0.1224 -0.0350
17528TIP3   OH273998   2.708   6.545   4.094  0.2708  0.0091 -0.2774
17528TIP3    H173999   2.614   6.558   4.106  0.5217  1.3395  0.2317
17528TIP3    H274000   2.743   6.633   4.081  1.2722 -0.5818 -1.7708
17529TIP3   OH274001   4.653   4.238   4.743 -0.2982  0.2057 -0.3961
17529TIP3    H174002   4.656   4.310   4.806 -2.1457 -0.2278  0.2247
17529TIP3    H274003   4.628   4.162   4.795  0.5622 -0.6654 -1.2424
17530TIP3   OH274004   3.549   2.853   6.814  0.0622  0.2672  0.6357
17530TIP3    H174005   3.602   2.789   6.861  1.7017  0.8959 -0.3418
17530TIP3    H274006   3.572   2.937   6.853 -0.0693  0.5679  0.0725
17531TIP3   OH274007   2.640   6.688   3.302 -0.1451  0.7211  0.3373
17531TIP3    H174008   2.646   6.782   3.318  0.8008  0.6273  0.5751
17531TIP3    H274009   2.729   6.662   3.279 -0.5944  0.0431 -0.6610
17532TIP3   OH274010   0.950   0.990  16.817 -0.1430  0.2058 -0.3057
17532TIP3    H174011   0.937   1.084  16.834  0.4874  0.3690 -0.6920
17532TIP3    H274012   1.031   0.986  16.767  0.1243 -0.5976  0.1737
17533TIP3   OH274013   5.844   0.574  10.488 -0.7332 -0.0319  0.3824
17533TIP3    H174014   5.824   0.485  10.459 -0.9508 -0.4821  1.8747
17533TIP3    H274015   5.785   0.630  10.438  2.3099 -0.2643 -3.8093
17534TIP3   OH274016   1.695   5.470   1.120  0.6786  0.1195 -0.4737
17534TIP3    H174017   1.639   5.541   1.150  0.8417  0.6509 -1.4026
17534TIP3    H274018   1.772   5.473   1.177  1.2010  1.4142 -1.2408
17535TIP3   OH274019   6.206   1.531  16.176  0.1772  0.1691  0.2738
17535TIP3    H174020   6.215   1.518  16.082 -0.4889 -1.1212  0.3773
17535TIP3    H274021   6.121   1.574  16.186  0.4982  0.8200  0.2510
17536TIP3   OH274022   5.574   2.402   2.657  0.7029  0.3169 -0.3305
17536TIP3    H174023   5.643   2.336   2.655  1.1436  0.7661 -3.2145
17536TIP3    H274024   5.494   2.352   2.673  1.0751 -0.9431 -2.1496
17537TIP3   OH274025   3.858   0.353   4.103 -0.2745 -0.5362 -0.1411
17537TIP3    H174026   3.930   0.364   4.165 -0.5477  0.1991  0.0557
17537TIP3    H274027   3.829   0.442   4.084 -1.1101 -0.8242 -0.2413
17538TIP3   OH274028   5.799   0.090  14.778  0.4412  0.0641  0.0041
17538TIP3    H174029   5.765   0.176  14.803 -2.6497 -0.7957 -1.0029
17538TIP3    H274030   5.821   0.099  14.685  0.5193 -0.1410  0.0021
17539TIP3   OH274031   0.626   5.805   0.217 -0.1161  0.2165 -0.4850
17539TIP3    H174032   0.706   5.842   0.178 -0.1562  1.2688  0.4034
17539TIP3    H274033   0.555   5.860   0.184 -0.3089  0.2153 -0.0809
17540TIP3   OH274034   1.745   1.957   2.143  0.2239 -0.1484  0.3126
17540TIP3    H174035   1.811   2.018   2.111 -0.4457  2.1112  3.0418
17540TIP3    H274036   1.794   1.877   2.165  1.8167  0.9904  0.9544
17541TIP3   OH274037   4.061   4.533  16.793 -0.9169  0.1123  0.5098
17541TIP3    H174038   4.036   4.591  16.720 -1.3657  0.7392  1.1570
17541TIP3    H274039   4.131   4.581  16.838 -0.3624 -0.4565  0.2589
17542TIP3   OH274040   1.725   1.371   2.047  0.5056 -0.0904  0.1064
17542TIP3    H174041   1.655   1.326   2.094 -0.4505 -0.3543 -1.5109
17542TIP3    H274042   1.764   1.429   2.112 -0.2399 -1.0280  1.4283
17543TIP3   OH274043   3.621   1.257  12.331  0.2456 -0.5554  0.1082
17543TIP3    H174044   3.556   1.186  12.326 -1.2975  0.7383  1.3040
17543TIP3    H274045   3.589   1.323  12.269  1.5410 -0.7812 -0.8113
17544TIP3   OH274046   0.196   1.301  12.757  0.3932 -0.9925 -0.8864
17544TIP3    H174047   0.130   1.253  12.706  0.2252 -1.9850  0.2336
17544TIP3    H274048   0.152   1.382  12.783 -0.6680 -2.0011  0.5213
17545TIP3   OH274049   3.470   2.524  14.573 -0.4362  0.2407  0.0795
17545TIP3    H174050   3.526   2.493  14.502 -0.5462  0.9013 -0.2977
17545TIP3    H274051   3.445   2.613  14.548  0.4773  0.9144  1.5086
17546TIP3   OH274052   2.532   1.310   0.557  0.2697 -0.1434 -0.6162
17546TIP3    H174053   2.487   1.356   0.627  1.6391 -0.7704  0.6913
17546TIP3    H274054   2.535   1.219   0.586  2.1817 -0.1405 -0.7758
17547TIP3   OH274055   0.436   2.243  15.260  0.0014 -0.2822  0.2052
17547TIP3    H174056   0.437   2.147  15.267  0.1866 -0.1885  1.6023
17547TIP3    H274057   0.527   2.268  15.247 -0.0238 -0.2840  0.0251
17548TIP3   OH274058   6.197   2.780   4.608  0.1521  0.9674 -0.0361
17548TIP3    H174059   6.135   2.732   4.664  0.5849  0.4871  0.0364
17548TIP3    H274060   6.168   2.761   4.519  2.3408 -2.2791 -0.1605
17549TIP3   OH274061   2.271   3.378  10.936  0.1699  0.8518  0.1581
17549TIP3    H174062   2.218   3.457  10.923 -0.1789  0.5548 -0.2654
17549TIP3    H274063   2.361   3.409  10.937  0.1500  1.0406 -1.9309
17550TIP3   OH274064   0.188   4.065   1.230  0.1039  0.1841  0.2361
17550TIP3    H174065   0.181   4.155   1.197 -1.9252 -0.1037 -0.2167
17550TIP3    H274066   0.127   4.062   1.304 -0.1454 -0.9039  0.0009
17551TIP3   OH274067   3.076   1.271  12.478 -0.1672  0.6220  1.1196
17551TIP3    H174068   3.092   1.177  12.474 -2.0631  0.3482 -1.4969
17551TIP3    H274069   3.135   1.309  12.413  0.7924  1.2854  2.3666
17552TIP3   OH274070   4.955   0.560  12.559  0.0528  0.0119 -0.8197
17552TIP3    H174071   4.899   0.634  12.536  0.4945 -0.0196 -2.0137
17552TIP3    H274072   5.034   0.572  12.507  1.7472  0.7697  1.8405
17553TIP3   OH274073   4.007   1.188  16.190  0.1515  0.0343 -0.2988
17553TIP3    H174074   4.031   1.257  16.128 -1.9977 -0.5772 -1.8550
17553TIP3    H274075   4.024   1.106  16.142 -0.3842 -0.4625  0.3526
17554TIP3   OH274076   0.857   2.094   3.764 -0.5132 -0.4109  0.2668
17554TIP3    H174077   0.835   2.012   3.720 -0.1170 -0.7992  0.7796
17554TIP3    H274078   0.852   2.073   3.858  0.0317  0.0273  0.3949
17555TIP3   OH274079   1.310   2.416   3.834 -0.2094 -0.1981  0.3937
17555TIP3    H174080   1.227   2.415   3.882 -0.4624  0.4557 -0.0288
17555TIP3    H274081   1.285   2.410   3.742  0.1863  0.4497  0.2396
17556TIP3   OH274082   4.063   4.239  14.071  0.1466 -0.0141 -0.2539
17556TIP3    H174083   4.128   4.286  14.019  2.8358 -1.3575  1.8003
17556TIP3    H274084   4.057   4.290  14.152 -0.6573 -0.4511 -0.0360
17557TIP3   OH274085   2.828   6.130  14.412 -0.4817 -0.0454  0.3208
17557TIP3    H174086   2.851   6.194  14.346 -0.0583  0.7318  1.2049
17557TIP3    H274087   2.736   6.149  14.433 -0.5891 -0.2348  0.0188
17558TIP3   OH274088   1.323   0.303   3.768  0.0074  0.3560 -0.1848
17558TIP3    H174089   1.414   0.329   3.757  0.2689  0.5794  2.3016
17558TIP3    H274090   1.324   0.207   3.760  1.0177  0.0383  2.9939
17559TIP3   OH274091   1.865   5.599  10.662  0.2198  0.0840 -0.0769
17559TIP3    H174092   1.810   5.587  10.585  2.1413  0.7636 -1.6163
17559TIP3    H274093   1.869   5.694  10.674 -0.4050 -0.0286  1.1378
17560TIP3   OH274094   4.359   6.428  13.060  0.1406 -0.0395 -0.0081
17560TIP3    H174095   4.334   6.341  13.031 -0.0793  0.2277 -0.6315
17560TIP3    H274096   4.296   6.487  13.018  0.2095  0.4083  0.5054
17561TIP3   OH274097   4.021   2.509   0.188 -0.1878  0.2965 -0.2782
17561TIP3    H174098   4.013   2.464   0.272  0.4908 -1.5944 -1.1940
17561TIP3    H274099   3.958   2.465   0.131  1.5599 -0.5401 -1.6145
17562TIP3   OH274100   4.838   5.085  13.554 -0.4296  0.0244  0.0924
17562TIP3    H174101   4.841   5.154  13.621 -3.2126 -0.6533  1.0108
17562TIP3    H274102   4.790   5.124  13.481 -1.8387 -0.8435  0.5352
17563TIP3   OH274103   5.771   0.001   2.536  0.0317 -0.1992 -0.0620
17563TIP3    H174104   5.782  -0.007   2.630  0.4029 -1.6641 -0.2190
17563TIP3    H274105   5.676   0.006   2.524 -0.0319 -0.3246  0.3745
17564TIP3   OH274106   6.202   5.308   4.735 -0.4325  0.3751  0.0863
17564TIP3    H174107   6.287   5.264   4.740 -1.0331 -0.7689  0.2248
17564TIP3    H274108   6.203   5.352   4.650  0.5155  0.8273  0.3250
17565TIP3   OH274109   6.626   5.776  13.062  0.0631 -0.0165  0.3343
17565TIP3    H174110   6.685   5.716  13.017 -0.0971 -0.5104  0.7679
17565TIP3    H274111   6.661   5.863  13.045 -0.7453 -0.0882 -1.8638
17566TIP3   OH274112   2.847   0.185  10.550  0.3362  0.4616 -0.3178
17566TIP3    H174113   2.915   0.239  10.509  0.4496  0.6837  0.1579
17566TIP3    H274114   2.774   0.246  10.565  0.4636  0.4853  0.2169
17567TIP3   OH274115   3.087   2.444   2.585  0.0583  0.1529 -0.4200
17567TIP3    H174116   3.003   2.465   2.543 -0.7424 -1.8115  0.1114
17567TIP3    H274117   3.065   2.374   2.647  2.0746 -0.2714 -0.1657
17568TIP3   OH274118   3.002   5.504  16.750  0.0601  0.0419  0.4230
17568TIP3    H174119   3.058   5.495  16.672 -0.7317 -0.2635 -0.1189
17568TIP3    H274120   3.052   5.561  16.808  0.8876 -0.1289 -0.1017
17569TIP3   OH274121   6.596   2.975  15.049  1.1451 -0.1722  0.5595
17569TIP3    H174122   6.643   3.033  14.989 -1.0977  0.6388 -0.4803
17569TIP3    H274123   6.573   3.032  15.122  0.3862 -0.1664  0.3157
17570TIP3   OH274124   4.331   4.154  11.624 -0.0781 -0.4147  0.6052
17570TIP3    H174125   4.358   4.244  11.610  0.1636 -0.0171  3.4441
17570TIP3    H274126   4.394   4.119  11.687 -0.3728 -2.4789 -0.1983
17571TIP3   OH274127   2.658   5.984  12.240  0.0587 -0.1379 -0.2325
17571TIP3    H174128   2.587   6.042  12.211  0.9049  0.5204 -0.9889
17571TIP3    H274129   2.635   5.898  12.203 -0.9363 -0.1898  0.4803
17572TIP3   OH274130   5.614   2.722  15.696  0.5285 -0.6081 -0.2832
17572TIP3    H174131   5.638   2.746  15.607 -1.1883  1.5672 -0.2220
17572TIP3    H274132   5.561   2.796  15.727 -0.0594 -1.9513  2.0479
17573TIP3   OH274133   4.071   5.559  13.939 -0.2492 -0.1470 -0.1120
17573TIP3    H174134   4.123   5.478  13.943  1.4747  0.9379  0.1133
17573TIP3    H274135   4.136   5.628  13.924 -1.7030  1.1998 -0.3097
17574TIP3   OH274136   5.316   5.026  16.327 -0.1542 -0.1716 -0.1166
17574TIP3    H174137   5.273   5.067  16.252  2.0537  1.6876 -0.3990
17574TIP3    H274138   5.262   5.050  16.402 -1.4668 -0.6782 -0.8902
17575TIP3   OH274139   0.346   0.398  13.887 -0.4683 -0.1639 -0.0199
17575TIP3    H174140   0.417   0.384  13.825 -0.6923  1.4510 -0.6534
17575TIP3    H274141   0.301   0.313  13.891  0.2907 -0.6293 -1.1061
17576TIP3   OH274142   3.226   3.067   0.527 -0.1540 -0.0820  0.3489
17576TIP3    H174143   3.206   3.125   0.600 -2.6401 -2.7047  1.8834
17576TIP3    H274144   3.158   3.084   0.462 -0.7433 -1.0393  0.6973
17577TIP3   OH274145   6.723   6.234   3.155  0.9994  0.5145 -0.6127
17577TIP3    H174146   6.798   6.269   3.202  0.0816 -0.7774  1.8949
17577TIP3    H274147   6.664   6.309   3.142  2.3297  1.3625 -1.8993
17578TIP3   OH274148   5.905   3.937  14.061  0.2953 -0.1235  0.3889
17578TIP3    H174149   5.925   4.002  14.129  4.6669 -1.5812  0.6586
17578TIP3    H274150   5.895   3.855  14.109  0.7559 -0.6938 -0.5045
17579TIP3   OH274151   0.819   5.695  13.212 -0.1776  0.1357 -0.7670
17579TIP3    H174152   0.881   5.715  13.142 -0.8262  2.6588 -0.6769
17579TIP3    H274153   0.791   5.605  13.194  2.0982 -0.3895 -1.8548
17580TIP3   OH274154   0.744   2.106  15.579 -0.0416 -0.8243  0.0099
17580TIP3    H174155   0.817   2.095  15.517 -1.4318  0.0891 -1.8585
17580TIP3    H274156   0.739   2.200  15.593 -1.4772 -0.7823 -0.6875
17581TIP3   OH274157   5.993   2.824   1.622 -0.2987 -0.1348  0.1520
17581TIP3    H174158   5.945   2.880   1.683 -0.3963  0.3439 -0.3636
17581TIP3    H274159   5.932   2.811   1.549 -0.8104 -2.0503  0.8900
17582TIP3   OH274160   1.950   0.903  15.889 -1.0554 -0.1833  0.5625
17582TIP3    H174161   2.014   0.949  15.944  1.2652 -1.1265 -1.2528
17582TIP3    H274162   1.923   0.967  15.824 -0.2885 -0.4134  0.0103
17583TIP3   OH274163   4.996   4.364   6.076 -0.5433 -0.3563  0.0914
17583TIP3    H174164   4.959   4.370   5.988  0.9846  0.1885 -0.5300
17583TIP3    H274165   5.067   4.428   6.077  0.1426 -1.1091  1.3741
17584TIP3   OH274166   5.137   4.506  16.688 -0.2179 -0.3840 -0.7659
17584TIP3    H174167   5.203   4.551  16.740  0.1739  0.1665 -1.7348
17584TIP3    H274168   5.055   4.551  16.709 -0.1024 -0.3394 -0.4168
17585TIP3   OH274169   1.167   2.256   2.359  0.4900  0.7167  0.5645
17585TIP3    H174170   1.116   2.283   2.282  0.3471 -0.1016  0.3680
17585TIP3    H274171   1.178   2.162   2.348 -0.0540  0.5008  1.8630
17586TIP3   OH274172   5.695   0.622   4.387 -0.0120  0.1767 -0.1090
17586TIP3    H174173   5.607   0.595   4.414 -1.1772  3.0095 -0.8700
17586TIP3    H274174   5.742   0.637   4.469 -1.4144  2.1557  0.3767
17587TIP3   OH274175   3.390   5.289   4.838 -0.1180  0.1306 -0.5705
17587TIP3    H174176   3.368   5.327   4.923  0.0142 -0.8808 -0.0731
17587TIP3    H274177   3.357   5.199   4.843  0.7354 -0.2250 -1.2252
17588TIP3   OH274178   6.419   4.010  16.059  0.1870 -0.1494  0.1186
17588TIP3    H174179   6.358   4.082  16.076 -0.3357 -0.3154 -0.9995
17588TIP3    H274180   6.367   3.931  16.073  0.2299 -0.2936 -0.5264
17589TIP3   OH274181   0.682   6.765  11.665  0.1984  0.5566 -0.2221
17589TIP3    H174182   0.657   6.676  11.640  0.7756  0.9187 -2.2524
17589TIP3    H274183   0.674   6.815  11.584  1.4393  2.0051  0.5141
17590TIP3   OH274184   5.816   0.236  11.970 -0.7975  0.2696  0.3620
17590TIP3    H174185   5.786   0.302  11.907  1.1948  0.9143  0.0787
17590TIP3    H274186   5.831   0.286  12.050 -1.5200 -0.2480  0.8248
17591TIP3   OH274187   3.150   2.851  11.321  0.6595 -0.0232  0.3203
17591TIP3    H174188   3.236   2.890  11.339  0.4951  0.0204  1.0468
17591TIP3    H274189   3.157   2.761  11.353  1.6202 -1.1891 -2.9882
17592TIP3   OH274190   5.098   0.282   0.592 -0.4770 -0.2802 -0.0521
17592TIP3    H174191   5.023   0.299   0.648 -0.5572 -1.8110  0.3382
17592TIP3    H274192   5.096   0.351   0.526 -2.4416 -0.5161 -0.2489
17593TIP3   OH274193   1.825   5.665   5.966 -0.3221  0.5183  0.0244
17593TIP3    H174194   1.850   5.728   6.034  0.8559 -2.8958  2.8859
17593TIP3    H274195   1.906   5.648   5.919  0.1857 -1.5413  1.5974
17594TIP3   OH274196   5.546   4.631  15.513  0.1183 -0.3691 -0.0105
17594TIP3    H174197   5.509   4.691  15.448  2.0475 -0.7956 -1.5188
17594TIP3    H274198   5.510   4.663  15.596  0.5266  2.4617 -0.8498
17595TIP3   OH274199   1.905   2.048  13.573 -0.1640  0.1115  0.3618
17595TIP3    H174200   1.890   2.100  13.494  1.6635 -0.2973 -0.2752
17595TIP3    H274201   1.934   2.112  13.638  1.6112 -0.0092 -0.2830
17596TIP3   OH274202   1.594   2.532   0.096  0.0989  0.0843 -0.3961
17596TIP3    H174203   1.516   2.584   0.113 -2.0814 -3.2393  0.3355
17596TIP3    H274204   1.618   2.552   0.006 -2.8956 -0.3903 -1.3509
17597TIP3   OH274205   3.565   4.848  11.410 -0.5671 -0.0611  0.2189
17597TIP3    H174206   3.505   4.814  11.477 -1.6247 -1.4007 -1.3806
17597TIP3    H274207   3.519   4.835  11.327  0.5316  2.0326 -0.7454
17598TIP3   OH274208   4.321   1.485  13.379  0.4838 -0.0892  0.6097
17598TIP3    H174209   4.245   1.428  13.371  1.5551 -1.4805 -0.0672
17598TIP3    H274210   4.317   1.542  13.303  0.4030 -0.5346  0.2760
17599TIP3   OH274211   4.598   3.683   0.409  0.1088  0.4209 -0.1940
17599TIP3    H174212   4.533   3.616   0.430  0.3243  0.3101  0.1337
17599TIP3    H274213   4.604   3.736   0.489 -0.1169  0.8801 -0.4791
17600TIP3   OH274214   2.217   0.636   0.365 -0.3820 -0.2992 -0.1205
17600TIP3    H174215   2.245   0.725   0.389  0.3805 -0.0729 -1.8200
17600TIP3    H274216   2.159   0.610   0.436 -0.8431  1.6725  0.2582
17601TIP3   OH274217   0.643   5.923   4.574 -0.3190 -0.3917 -0.5157
17601TIP3    H174218   0.631   5.872   4.494 -1.7306  0.7580 -1.0419
17601TIP3    H274219   0.562   5.913   4.622 -0.8081  1.7200 -0.8419
17602TIP3   OH274220   3.982   3.667  12.239  0.0067  0.4002  0.1180
17602TIP3    H174221   3.943   3.733  12.296 -1.0106  1.0283 -1.2841
17602TIP3    H274222   4.076   3.678  12.251 -0.1658  1.7473  0.2966
17603TIP3   OH274223   5.393   1.877  15.064 -0.1582  0.6820 -0.0730
17603TIP3    H174224   5.458   1.904  15.000 -0.3046  0.9660 -0.1037
17603TIP3    H274225   5.443   1.863  15.145  0.2684 -1.2383 -0.6495
17604TIP3   OH274226   5.179   1.552  11.462  0.6634  0.4243 -0.2689
17604TIP3    H174227   5.203   1.504  11.541  0.6113  1.8687  0.6328
17604TIP3    H274228   5.219   1.639  11.473 -0.0257  0.9039 -1.4538
17605TIP3   OH274229   6.155   3.059  16.849 -0.0774 -0.0633 -0.6180
17605TIP3    H174230   6.195   3.140  16.816  0.6832 -0.3981 -0.5306
17605TIP3    H274231   6.181   2.992  16.786  0.2308 -0.4469 -0.0881
17606TIP3   OH274232   1.058   2.614   5.158  0.3216 -0.0325 -0.2926
17606TIP3    H174233   1.034   2.531   5.199 -1.2356  0.2251 -0.6658
17606TIP3    H274234   1.149   2.627   5.184  0.0653 -1.0074  1.1913
17607TIP3   OH274235   0.980   2.556  13.602 -0.0750  0.0789  0.3227
17607TIP3    H174236   0.977   2.495  13.676  0.8327 -2.0717 -1.3574
17607TIP3    H274237   0.963   2.641  13.641  0.4839 -0.9896  3.0361
17608TIP3   OH274238   5.576   3.644   2.140 -0.6661 -0.1468 -0.0305
17608TIP3    H174239   5.665   3.645   2.175  0.1075 -0.1586 -1.9509
17608TIP3    H274240   5.542   3.731   2.161 -0.7768 -0.6479  2.0547
17609TIP3   OH274241   6.320   3.206  11.362  0.1103  0.2908 -0.2963
17609TIP3    H174242   6.283   3.262  11.430  0.3556 -1.1503  1.0223
17609TIP3    H274243   6.415   3.220  11.369  0.3915 -2.2906  1.8436
17610TIP3   OH274244   4.369   0.580  11.893 -0.3557  0.2606  0.6004
17610TIP3    H174245   4.386   0.648  11.959 -1.4532  1.5685 -0.4579
17610TIP3    H274246   4.274   0.576  11.886 -0.2734 -0.6472 -0.1389
17611TIP3   OH274247   1.905   3.134  12.525 -0.2502 -0.2126  0.0595
17611TIP3    H174248   1.997   3.142  12.498 -0.1492  1.0818  0.7347
17611TIP3    H274249   1.856   3.159  12.446  0.0390  2.7233  0.7486
17612TIP3   OH274250   0.723   2.702  13.854 -0.2387 -0.0266  0.1568
17612TIP3    H174251   0.717   2.689  13.949 -0.0468 -0.1659  0.1496
17612TIP3    H274252   0.699   2.794  13.841  0.2054  0.1236  0.3903
17613TIP3   OH274253   4.784   1.157   0.472  0.2486  0.1670 -0.4950
17613TIP3    H174254   4.721   1.133   0.404 -0.6547 -1.5384  0.9030
17613TIP3    H274255   4.805   1.075   0.516  0.8741  1.2136  1.2302
17614TIP3   OH274256   5.307   2.702  14.236  0.1630  0.3744  0.2112
17614TIP3    H174257   5.235   2.644  14.210  0.5681  0.3364 -0.8576
17614TIP3    H274258   5.278   2.789  14.207  0.2658  0.4591  0.3631
17615TIP3   OH274259   5.127   6.264  13.259  0.4827  0.2365 -0.0102
17615TIP3    H174260   5.187   6.244  13.187  1.9095  2.9932  0.3269
17615TIP3    H274261   5.165   6.220  13.335  1.4336  0.9319 -0.0640
17616TIP3   OH274262   5.045   1.911  11.065 -0.2124 -0.0561  0.0270
17616TIP3    H174263   5.109   1.950  11.006  0.8837 -1.0362  0.5590
17616TIP3    H274264   5.096   1.852  11.121 -1.7253 -1.7133 -0.3012
17617TIP3   OH274265   5.570   1.389  11.595  0.0634 -0.2410  0.6579
17617TIP3    H174266   5.555   1.308  11.644 -1.9650 -0.2932  0.0002
17617TIP3    H274267   5.533   1.371  11.508 -1.1256  1.6366  0.7401
17618TIP3   OH274268   3.890   2.075   2.531 -0.2767  0.0211 -0.0452
17618TIP3    H174269   3.959   2.012   2.511 -1.0657 -0.4434 -1.3727
17618TIP3    H274270   3.810   2.022   2.535 -0.8673  0.8570 -0.6133
17619TIP3   OH274271   2.398   0.537  10.600  0.0068  1.1582  0.3268
17619TIP3    H174272   2.355   0.591  10.534  0.7037 -0.0045 -1.1090
17619TIP3    H274273   2.337   0.465  10.616  0.6468  0.4398 -0.4316
17620TIP3   OH274274   6.451   0.246   0.656 -0.2935 -0.2958 -0.2932
17620TIP3    H174275   6.507   0.284   0.724  0.1435 -1.9490  0.3138
17620TIP3    H274276   6.396   0.318   0.626  3.1096  1.6936 -1.9031
17621TIP3   OH274277   4.598   1.534  14.156 -0.2444  0.2117 -0.2983
17621TIP3    H174278   4.661   1.491  14.099  1.1407 -0.8207  1.9472
17621TIP3    H274279   4.580   1.618  14.113  0.3971 -0.7051 -2.4494
17622TIP3   OH274280   0.106   4.839   5.918 -0.4632 -0.6700 -0.5888
17622TIP3    H174281   0.100   4.767   5.981 -0.8075 -1.0746 -1.0718
17622TIP3    H274282   0.188   4.822   5.871  0.8538  0.7983  1.1460
17623TIP3   OH274283   2.878   4.413   5.678  0.1183  0.2839  0.3170
17623TIP3    H174284   2.866   4.318   5.677  0.5528  0.2357 -0.6155
17623TIP3    H274285   2.929   4.430   5.757  0.9427 -0.3790 -0.0699
17624TIP3   OH274286   4.207   4.871  13.499 -0.0389  0.1794 -0.4017
17624TIP3    H174287   4.202   4.967  13.505 -0.9428  0.0467  1.2727
17624TIP3    H274288   4.219   4.842  13.590  2.0326 -1.2095 -1.0842
17625TIP3   OH274289   2.677   6.161  16.142  0.0673 -0.3851  0.8562
17625TIP3    H174290   2.616   6.149  16.070  1.2043 -1.3605  0.0502
17625TIP3    H274291   2.742   6.092  16.131  0.7549  0.0078  2.2946
17626TIP3   OH274292   3.218   3.645   4.277 -0.1468  0.1646 -0.3688
17626TIP3    H174293   3.159   3.579   4.313 -1.0900  1.8535  1.2516
17626TIP3    H274294   3.269   3.676   4.353  1.0484  0.5333 -1.3010
17627TIP3   OH274295   1.678   5.299  12.913  0.0924 -0.4907 -0.0956
17627TIP3    H174296   1.612   5.235  12.886 -0.1142 -0.2918 -0.0590
17627TIP3    H274297   1.640   5.344  12.988  0.3244 -0.4658  0.0085
17628TIP3   OH274298   2.497   6.381  15.701 -0.5026 -0.2543  0.6144
17628TIP3    H174299   2.526   6.424  15.620  0.4129 -1.6824  0.1492
17628TIP3    H274300   2.414   6.423  15.722 -0.5798  0.3928 -0.8821
17629TIP3   OH274301   4.525   0.396   1.310  0.3865 -0.2359  0.5924
17629TIP3    H174302   4.449   0.387   1.369  0.0104 -1.4776 -0.0857
17629TIP3    H274303   4.513   0.328   1.245  0.6214  1.3435 -1.1495
17630TIP3   OH274304   0.823   1.878  16.144 -0.5737  0.1208  0.0782
17630TIP3    H174305   0.792   1.799  16.188 -2.4356  0.5140 -0.4741
17630TIP3    H274306   0.820   1.857  16.051  1.5440 -0.0584  0.0124
17631TIP3   OH274307   4.242   1.580  15.537  0.0773 -0.1836  0.0419
17631TIP3    H174308   4.247   1.639  15.462 -2.9698 -0.6725 -0.5879
17631TIP3    H274309   4.298   1.621  15.603  1.0700  1.3773 -1.7134
17632TIP3   OH274310   3.429   5.555  16.677 -0.5712 -0.8969 -0.0880
17632TIP3    H174311   3.458   5.639  16.639 -2.7978 -0.1633 -0.2483
17632TIP3    H274312   3.421   5.573  16.771 -0.9885 -0.9394 -0.1150
17633TIP3   OH274313   1.313   0.017  16.747  0.5365  0.0461  0.2707
17633TIP3    H174314   1.340   0.105  16.722 -0.1170  1.3382  3.8114
17633TIP3    H274315   1.224   0.009  16.714  0.7274  0.5827 -0.3840
17634TIP3   OH274316   1.217   2.986   0.298 -0.0985 -0.3367  0.4651
17634TIP3    H174317   1.253   2.945   0.377 -1.1634 -0.0887  1.0802
17634TIP3    H274318   1.139   2.935   0.278 -0.4343  0.2841  0.1974
17635TIP3   OH274319   1.340   0.979  11.206  0.1059  0.5598  0.5398
17635TIP3    H174320   1.427   0.962  11.170  0.4794 -0.3400  1.8017
17635TIP3    H274321   1.350   1.061  11.254 -0.3315  1.6329 -1.2036
17636TIP3   OH274322   5.771   4.905   2.700  0.0641  0.0772 -0.1973
17636TIP3    H174323   5.863   4.880   2.711 -0.4695 -1.7018  0.3347
17636TIP3    H274324   5.769   4.949   2.615  1.5587  0.9542  0.1858
17637TIP3   OH274325   2.282   2.786   4.587 -0.5257  0.1831  0.4003
17637TIP3    H174326   2.295   2.720   4.519 -0.8194  0.1126  0.4131
17637TIP3    H274327   2.210   2.751   4.640 -0.9645  0.7214  0.1618
17638TIP3   OH274328   0.429   1.922   4.644  0.1616  0.2137  0.1473
17638TIP3    H174329   0.458   1.911   4.734 -0.4110 -0.0832  0.2911
17638TIP3    H274330   0.510   1.914   4.592  0.4518  0.1490  0.6089
17639TIP3   OH274331   1.147   5.394   4.219  0.9085 -0.1470 -0.2939
17639TIP3    H174332   1.183   5.451   4.288  0.6570  0.0366 -0.3118
17639TIP3    H274333   1.164   5.305   4.250 -1.3300 -0.0973  1.1592
17640TIP3   OH274334   1.384   6.382   3.469 -1.0751  0.0658  0.3620
17640TIP3    H174335   1.363   6.373   3.562 -2.1249  0.7315  0.2043
17640TIP3    H274336   1.442   6.458   3.465 -0.2705 -0.5392  0.5808
17641TIP3   OH274337   6.740   3.808   3.542  0.5968  0.6567  0.3387
17641TIP3    H174338   6.658   3.821   3.494  1.2248  3.2182 -0.1550
17641TIP3    H274339   6.803   3.781   3.475 -0.0834 -2.4985  0.9182
17642TIP3   OH274340   3.175   3.207  13.555  0.3735 -0.0221  0.1101
17642TIP3    H174341   3.166   3.119  13.517  0.1655 -0.2330  0.6464
17642TIP3    H274342   3.085   3.233  13.576  0.5212 -0.0301  0.7401
17643TIP3   OH274343   6.717   1.467   0.045 -0.1730  0.0519  0.0517
17643TIP3    H174344   6.739   1.375   0.035 -0.3739 -0.0967  0.9468
17643TIP3    H274345   6.781   1.501   0.107  0.9980  0.9365 -1.6161
17644TIP3   OH274346   5.268   1.131   4.372 -0.2258  0.5309 -0.1110
17644TIP3    H174347   5.294   1.116   4.282  1.6982  1.2920  0.3030
17644TIP3    H274348   5.199   1.067   4.388 -0.1346 -0.0358 -1.9099
17645TIP3   OH274349   5.618   4.512  12.968  0.1524  0.3738 -0.6299
17645TIP3    H174350   5.671   4.462  13.030  1.0638  2.1583  0.0664
17645TIP3    H274351   5.529   4.477  12.978  0.6791 -0.7712  0.1501
17646TIP3   OH274352   5.329   0.894  13.737  0.2744 -0.0859 -0.3923
17646TIP3    H174353   5.334   0.931  13.825  0.5439  0.4793 -0.6484
17646TIP3    H274354   5.241   0.858  13.732 -0.0741  0.7336 -0.2336
17647TIP3   OH274355   0.753   2.002   2.867 -0.1623  0.2411 -0.2540
17647TIP3    H174356   0.720   1.994   2.778 -0.9217  0.7171 -0.0195
17647TIP3    H274357   0.736   1.917   2.907 -1.6521  0.6719  0.0458
17648TIP3   OH274358   2.573   0.950   1.451 -0.0253 -0.4674  0.0259
17648TIP3    H174359   2.518   0.983   1.379  0.1131  1.4141  0.7522
17648TIP3    H274360   2.662   0.969   1.424  0.1267 -1.2319 -0.0197
17649TIP3   OH274361   4.409   0.163   5.286 -0.2638  0.5954 -0.3017
17649TIP3    H174362   4.442   0.247   5.255  0.6820  0.7733  1.1395
17649TIP3    H274363   4.467   0.139   5.358 -0.8151 -1.0655 -0.3787
17650TIP3   OH274364   1.925   2.106   2.032  0.0406  0.4597  0.1666
17650TIP3    H174365   1.931   2.138   1.942 -1.9916  0.5593  0.0361
17650TIP3    H274366   1.989   2.159   2.080  1.6761 -0.1157 -1.3377
17651TIP3   OH274367   5.042   5.623  12.646 -1.2015  0.0824 -0.0876
17651TIP3    H174368   5.033   5.606  12.552  1.7888 -0.7325 -0.2729
17651TIP3    H274369   5.070   5.714  12.651 -1.1611  0.0647  0.0053
17652TIP3   OH274370   3.686   4.907   4.312 -0.4613  0.1854  0.0759
17652TIP3    H174371   3.700   4.943   4.225 -0.0231  1.2015  0.5554
17652TIP3    H274372   3.747   4.833   4.318  1.8068  2.0444  0.6492
17653TIP3   OH274373   2.601   2.697  16.018 -0.2522  0.1354 -0.4350
17653TIP3    H174374   2.572   2.779  16.057 -2.2604 -0.1440 -1.2708
17653TIP3    H274375   2.671   2.667  16.075 -0.4492  1.7142  0.6842
17654TIP3   OH274376   3.904   4.022  16.950 -0.5220 -0.0185  0.1268
17654TIP3    H174377   3.843   4.095  16.954 -0.9577 -0.4601  2.5851
17654TIP3    H274378   3.973   4.050  16.890 -2.0749  1.3091 -1.0408
17655TIP3   OH274379   2.865   1.631   3.497 -0.5363 -0.4182 -0.6352
17655TIP3    H174380   2.906   1.545   3.494  0.7981  0.1501  0.8409
17655TIP3    H274381   2.934   1.690   3.525 -1.8154  0.8922 -0.1693
17656TIP3   OH274382   3.575   4.499  14.769  0.2777  0.3449  0.1468
17656TIP3    H174383   3.669   4.506  14.754  0.0967  1.4891 -0.5588
17656TIP3    H274384   3.567   4.475  14.861  1.2825 -0.7826 -0.0509
17657TIP3   OH274385   2.069   4.320   2.838 -0.1836 -0.3141 -0.1694
17657TIP3    H174386   2.053   4.406   2.798  1.7843  0.4660  0.6238
17657TIP3    H274387   2.091   4.263   2.765  0.8970  0.4789 -0.4862
17658TIP3   OH274388   2.750   0.695   2.984  0.1685 -0.6699  0.6093
17658TIP3    H174389   2.798   0.622   2.944 -1.0578 -0.2311 -1.7554
17658TIP3    H274390   2.810   0.769   2.978  0.7192 -1.0464  1.3562
17659TIP3   OH274391   6.763   6.076   6.415  0.4573 -0.8412 -0.1962
17659TIP3    H174392   6.700   6.102   6.482 -0.4737 -2.4548 -0.4174
17659TIP3    H274393   6.820   6.013   6.459 -0.1846 -1.9414 -0.9075
17660TIP3   OH274394   0.742   4.865  14.435 -0.1934 -0.1072 -1.0240
17660TIP3    H174395   0.669   4.808  14.459  0.6399 -0.2804  1.1667
17660TIP3    H274396   0.818   4.828  14.479  1.0959  0.5430 -2.6327
17661TIP3   OH274397   5.639   1.479   6.383  0.0557 -0.0742 -0.1075
17661TIP3    H174398   5.714   1.446   6.433 -0.6133  0.6368  1.4109
17661TIP3    H274399   5.612   1.405   6.329  0.5613 -0.9985  0.8786
17662TIP3   OH274400   4.308   0.762   1.588  0.1779 -0.5417  0.0612
17662TIP3    H174401   4.393   0.765   1.633 -0.3800  1.5695  1.0174
17662TIP3    H274402   4.330   0.754   1.495  1.4305  0.4548  0.2614
17663TIP3   OH274403   3.160   5.963   3.773  0.5948  0.5164  0.1146
17663TIP3    H174404   3.185   5.871   3.772  0.1923  0.4035 -1.5092
17663TIP3    H274405   3.157   5.987   3.866 -0.9727 -1.5762  0.6405
17664TIP3   OH274406   2.763   3.856   0.337 -0.3009  0.3697 -0.1755
17664TIP3    H174407   2.856   3.864   0.357  0.4583 -4.8723 -0.9274
17664TIP3    H274408   2.758   3.864   0.242 -0.7867  1.5774 -0.0591
17665TIP3   OH274409   0.700   6.309  12.076 -0.2593  0.3727 -0.3061
17665TIP3    H174410   0.757   6.315  12.153 -1.8148 -1.6760  1.0636
17665TIP3    H274411   0.760   6.295  12.003  1.0256 -3.0673  1.2817
17666TIP3   OH274412   6.677   0.108  11.322 -0.1338 -0.0009  0.2074
17666TIP3    H174413   6.609   0.066  11.375 -1.9516  1.2760 -1.0755
17666TIP3    H274414   6.754   0.052  11.334 -1.5527 -1.7856  1.2416
17667TIP3   OH274415   5.168   6.351   5.722 -0.1044  0.5921  0.1599
17667TIP3    H174416   5.173   6.445   5.705 -1.7456  0.6989  0.2247
17667TIP3    H274417   5.145   6.345   5.814 -0.7125  0.1364 -0.0205
17668TIP3   OH274418   1.263   5.205   2.558 -0.2143  0.4292  0.1835
17668TIP3    H174419   1.256   5.249   2.642 -1.5765  0.7254 -0.0606
17668TIP3    H274420   1.347   5.233   2.522  0.2586  0.4976  1.3239
17669TIP3   OH274421   2.994   2.414  14.810  0.1032 -0.1599 -0.2605
17669TIP3    H174422   2.982   2.504  14.839 -1.9398 -0.6194  0.4121
17669TIP3    H274423   3.084   2.411  14.777  0.8194  1.6443  1.4320
17670TIP3   OH274424   6.145   5.228  12.093 -0.1213 -0.1959 -0.2389
17670TIP3    H174425   6.207   5.278  12.146 -0.1401  0.4490 -0.8156
17670TIP3    H274426   6.103   5.293  12.037 -0.2389 -0.8361 -0.9080
17671TIP3   OH274427   3.399   4.728   0.797 -0.0944  0.4223  0.5657
17671TIP3    H174428   3.486   4.738   0.835  1.3565 -1.0244 -2.2000
17671TIP3    H274429   3.413   4.736   0.703 -2.8931 -0.2781  0.0490
17672TIP3   OH274430   5.868   5.076  11.588  0.2066  0.2941  0.0536
17672TIP3    H174431   5.861   4.993  11.636 -0.6634  0.3461  0.0237
17672TIP3    H274432   5.800   5.071  11.522  0.8562  0.5867 -0.6445
17673TIP3   OH274433   3.897   3.525   3.180  0.1732 -0.2232  0.3122
17673TIP3    H174434   3.875   3.609   3.222 -2.4928 -0.7208 -0.0163
17673TIP3    H274435   3.846   3.460   3.229  0.5531 -1.3869 -0.8197
17674TIP3   OH274436   3.369   1.047   0.777  0.2095 -0.5335 -0.3610
17674TIP3    H174437   3.368   0.961   0.819 -0.4841 -0.0207  0.6780
17674TIP3    H274438   3.389   1.028   0.685 -0.3257 -1.8383 -0.2207
17675TIP3   OH274439   5.884   2.145  16.900 -0.4079 -0.0833 -0.1391
17675TIP3    H174440   5.905   2.123  16.809  2.0729  0.7482  0.2113
17675TIP3    H274441   5.853   2.235  16.896 -0.4316 -0.0917 -0.1566
17676TIP3   OH274442   3.530   1.500  16.479 -0.0423 -0.3242 -0.1843
17676TIP3    H174443   3.556   1.455  16.560 -0.2327 -0.1099 -0.0022
17676TIP3    H274444   3.534   1.432  16.412 -1.3864 -0.8999  0.2857
17677TIP3   OH274445   0.736   3.183   5.571 -0.2296 -0.6701  0.0560
17677TIP3    H174446   0.686   3.252   5.615  1.8757 -0.0440  1.5187
17677TIP3    H274447   0.793   3.230   5.511 -0.0990 -1.2752 -0.2920
17678TIP3   OH274448   5.430   1.169  10.690 -0.2966 -0.5483 -0.5853
17678TIP3    H174449   5.405   1.215  10.610  1.6351 -0.7793 -1.3414
17678TIP3    H274450   5.526   1.173  10.691 -0.2469 -1.7199  1.0249
17679TIP3   OH274451   0.469   0.470  11.494  0.5172 -0.0137  0.0832
17679TIP3    H174452   0.440   0.536  11.431 -1.3499 -1.8845 -1.0628
17679TIP3    H274453   0.444   0.506  11.579 -2.1497 -0.0076 -0.6443
17680TIP3   OH274454   3.575   0.829  13.865 -0.4361  0.0584  0.1377
17680TIP3    H174455   3.585   0.890  13.938  1.6419  0.1182 -0.1570
17680TIP3    H274456   3.615   0.874  13.791 -1.3188 -0.5521 -0.7212
17681TIP3   OH274457   4.209   1.896  11.842  0.6710 -0.1613 -0.2631
17681TIP3    H174458   4.279   1.894  11.907  0.5618  0.0240 -0.1397
17681TIP3    H274459   4.151   1.967  11.872  1.4481  0.9829 -1.4037
17682TIP3   OH274460   3.171   1.381  12.890 -0.0904  0.1763 -0.5572
17682TIP3    H174461   3.104   1.369  12.823 -0.7927  0.0974  0.1589
17682TIP3    H274462   3.123   1.407  12.969  0.8389  1.6001 -0.4244
17683TIP3   OH274463   5.139   4.352   3.128 -0.2726 -0.6405 -0.3071
17683TIP3    H174464   5.162   4.312   3.044 -0.1722 -0.5577 -0.3202
17683TIP3    H274465   5.190   4.304   3.193 -0.1835 -0.5616 -0.3184
17684TIP3   OH274466   5.983   0.082   4.320 -0.3178  0.0829  0.0532
17684TIP3    H174467   6.008   0.039   4.402  1.8862  0.5417 -0.3451
17684TIP3    H274468   6.060   0.134   4.296 -1.3467  0.8215 -1.7350
17685TIP3   OH274469   1.643   0.713   4.014 -0.1853 -0.0193  0.7433
17685TIP3    H174470   1.569   0.653   4.025  0.1303 -0.1692  2.1068
17685TIP3    H274471   1.658   0.749   4.102  1.1336  0.2760  0.4065
17686TIP3   OH274472   3.585   2.693  14.794  0.7607 -0.2024 -0.0462
17686TIP3    H174473   3.656   2.648  14.748  0.3811  0.2405 -1.0827
17686TIP3    H274474   3.508   2.678  14.739  0.0141 -0.7862  1.1342
17687TIP3   OH274475   3.891   2.610  16.181 -0.1281 -0.5041  0.0649
17687TIP3    H174476   3.806   2.649  16.200  0.3326  0.3385  0.4331
17687TIP3    H274477   3.938   2.678  16.132 -0.1873 -1.4994 -1.3968
17688TIP3   OH274478   3.718   1.484   5.835  0.6251 -0.0594 -0.0752
17688TIP3    H174479   3.757   1.428   5.767  1.0170  0.8951 -0.6583
17688TIP3    H274480   3.790   1.501   5.896  0.5952  0.0715 -0.0758
17689TIP3   OH274481   1.387   1.443   4.730  0.3762 -0.5754 -0.5885
17689TIP3    H174482   1.376   1.519   4.672  1.2444  0.2438  0.2966
17689TIP3    H274483   1.408   1.371   4.671 -1.7579 -0.4342 -1.5587
17690TIP3   OH274484   3.037   1.662  10.944  0.2413  0.1451  0.1497
17690TIP3    H174485   3.117   1.697  10.906  0.5834  0.4656  1.1441
17690TIP3    H274486   2.967   1.690  10.885  0.3986  3.2097  1.3788
17691TIP3   OH274487   3.892   2.876   3.618  0.3454  0.2091  0.2384
17691TIP3    H174488   3.972   2.857   3.570 -0.1714 -1.5461  0.0535
17691TIP3    H274489   3.844   2.937   3.562  0.9135  0.1619 -0.3036
17692TIP3   OH274490   0.731   4.343   0.599  0.2209  0.4941  0.1471
17692TIP3    H174491   0.698   4.313   0.514  1.1108 -1.2580  0.4079
17692TIP3    H274492   0.668   4.308   0.662  0.5635  0.2558  0.3564
17693TIP3   OH274493   3.714   4.697  15.261 -0.6158  0.0846 -0.5183
17693TIP3    H174494   3.734   4.666  15.349 -1.8658  1.3898  0.2463
17693TIP3    H274495   3.747   4.786  15.258  1.8348 -0.8371 -2.2900
17694TIP3   OH274496   1.645   5.940   5.408 -0.2093  0.0230 -0.1372
17694TIP3    H174497   1.622   5.938   5.315  0.4379 -1.0383 -0.2871
17694TIP3    H274498   1.591   6.010   5.445 -1.8708 -0.8000 -0.9376
17695TIP3   OH274499   0.520   6.055   3.273 -0.0892 -0.1683  0.2709
17695TIP3    H174500   0.534   6.134   3.325  1.8574  0.8572 -1.6893
17695TIP3    H274501   0.541   5.983   3.333  0.8807  0.9261  1.2830
17696TIP3   OH274502   3.156   1.971  14.110 -0.3640  0.5541  0.5754
17696TIP3    H174503   3.190   2.046  14.063 -0.1816  0.4902  0.6049
17696TIP3    H274504   3.165   1.994  14.203  0.9391 -0.0503  0.6066
17697TIP3   OH274505   5.423   4.013   1.327  0.2157 -0.1959  0.2218
17697TIP3    H174506   5.502   3.959   1.317  0.4836  0.2309  0.0085
17697TIP3    H274507   5.436   4.085   1.265 -0.1065  0.1530  0.5616
17698TIP3   OH274508   5.877   0.643   2.575  0.0157 -0.6439  0.0193
17698TIP3    H174509   5.943   0.697   2.530 -0.9962  0.2537 -0.3989
17698TIP3    H274510   5.802   0.644   2.517 -0.7959 -0.6649  1.0631
17699TIP3   OH274511   3.422   6.060   2.114 -0.0517  0.3571 -0.5045
17699TIP3    H174512   3.485   5.989   2.121  0.7297  1.1485  0.7710
17699TIP3    H274513   3.380   6.064   2.200  0.0863  1.5995 -0.4864
17700TIP3   OH274514   4.933   1.767   1.434 -0.2510 -0.1171 -0.1954
17700TIP3    H174515   4.919   1.843   1.490 -1.1394  0.5146 -1.2508
17700TIP3    H274516   4.897   1.693   1.482 -0.5609  0.3426  0.2790
17701TIP3   OH274517   1.160   6.426   3.325  0.4491 -0.0692 -0.9715
17701TIP3    H174518   1.177   6.391   3.238  3.2997 -1.5975  0.1480
17701TIP3    H274519   1.234   6.397   3.378 -0.9247  1.3292  1.8377
17702TIP3   OH274520   2.663   1.005  16.691  0.1164  0.2164  0.0529
17702TIP3    H174521   2.689   1.008  16.783 -1.7279  2.5260  0.5366
17702TIP3    H274522   2.745   1.014  16.643  0.7426  2.9806  1.5254
17703TIP3   OH274523   3.817   2.332   1.187  0.5122  0.3445  0.2678
17703TIP3    H174524   3.740   2.324   1.131 -0.5645 -0.2196  1.7930
17703TIP3    H274525   3.790   2.296   1.271  2.6633 -0.4883  0.6443
17704TIP3   OH274526   5.137   2.199   3.709  0.0406 -0.1355  0.6792
17704TIP3    H174527   5.218   2.187   3.759 -0.5267 -3.9052  0.8880
17704TIP3    H274528   5.070   2.160   3.764 -1.0135 -1.9869 -1.8009
17705TIP3   OH274529   3.692   1.399   0.626 -0.1473  0.0522 -0.1466
17705TIP3    H174530   3.602   1.416   0.598 -0.1402 -0.9059 -0.7538
17705TIP3    H274531   3.746   1.441   0.559 -0.1402 -0.4718 -0.4727
17706TIP3   OH274532   2.600   4.945  13.288 -0.2469  0.0717  0.5952
17706TIP3    H174533   2.539   5.018  13.292 -0.0511  0.1670  1.9423
17706TIP3    H274534   2.669   4.967  13.350  1.8474  0.5536 -1.8047
17707TIP3   OH274535   0.189   0.635   0.143 -0.2303 -0.1182 -0.2811
17707TIP3    H174536   0.135   0.713   0.129 -1.3420 -0.7095  0.6410
17707TIP3    H274537   0.127   0.567   0.169  0.7195 -1.3700 -1.2440
17708TIP3   OH274538   6.260   1.326   5.772 -0.1541 -0.4474 -0.0860
17708TIP3    H174539   6.346   1.283   5.769 -0.4323 -0.9374 -2.6291
17708TIP3    H274540   6.273   1.406   5.720 -1.6562 -1.3994 -1.9905
17709TIP3   OH274541   3.658   2.302  16.662 -0.2070 -0.3089 -0.3082
17709TIP3    H174542   3.718   2.375  16.649  1.0506 -1.1793  0.3711
17709TIP3    H274543   3.648   2.296  16.757 -1.5158 -0.0736 -0.4245
17710TIP3   OH274544   2.758   1.651   3.011  0.0832 -0.3662  0.1023
17710TIP3    H174545   2.809   1.728   3.034 -0.1054 -0.3166  0.3644
17710TIP3    H274546   2.814   1.601   2.952  0.2260 -0.0555 -0.0240
17711TIP3   OH274547   4.246   1.935   4.829 -0.4005  0.5540 -0.4538
17711TIP3    H174548   4.226   1.871   4.897 -1.4354 -0.3458 -1.5755
17711TIP3    H274549   4.162   1.949   4.785  0.5970 -0.1632 -2.6337
17712TIP3   OH274550   4.879   5.928  12.362  0.4142 -0.1146  0.1044
17712TIP3    H174551   4.832   5.912  12.444  1.5442 -0.5798  0.6695
17712TIP3    H274552   4.971   5.916  12.384  0.7315 -0.2802 -1.2430
17713TIP3   OH274553   4.998   3.438  16.777  0.5189  0.1907 -0.7037
17713TIP3    H174554   5.084   3.463  16.811  1.1295 -0.7006 -1.5918
17713TIP3    H274555   4.976   3.358  16.823 -0.5714  1.2652  0.7015
17714TIP3   OH274556   1.371   3.514  11.946 -0.2556 -0.2816 -0.0108
17714TIP3    H174557   1.420   3.555  11.875  0.6573  0.4160  0.9997
17714TIP3    H274558   1.431   3.448  11.981 -0.1788  0.3024  0.9776
17715TIP3   OH274559   5.565   6.504   2.258  0.2793 -0.1063 -0.3613
17715TIP3    H174560   5.510   6.582   2.267  0.8646  0.1933  0.7903
17715TIP3    H274561   5.595   6.506   2.167 -0.4021  0.5450 -0.5768
17716TIP3   OH274562   0.775   0.397   0.274 -0.1644  0.2771 -0.7413
17716TIP3    H174563   0.695   0.429   0.232  0.7279  2.1117 -1.0534
17716TIP3    H274564   0.821   0.476   0.302  0.9655 -0.8124  0.5181
17717TIP3   OH274565   6.523   6.230  15.488  0.2646 -0.2303  0.2036
17717TIP3    H174566   6.555   6.214  15.577  0.0208 -0.5115  0.2399
17717TIP3    H274567   6.521   6.144  15.447  2.3811  0.1315 -0.7557
17718TIP3   OH274568   4.971   0.508   4.901 -0.7364 -0.0397 -0.1867
17718TIP3    H174569   4.982   0.493   4.995 -1.7302 -0.8703 -0.1872
17718TIP3    H274570   5.005   0.429   4.859  0.4083  0.6462 -0.5762
17719TIP3   OH274571   4.657   0.026   2.329  0.5128 -0.1928  0.2605
17719TIP3    H174572   4.631   0.116   2.312  0.4149  0.0794  1.7483
17719TIP3    H274573   4.731   0.033   2.389 -0.5268 -1.1078  1.6990
17720TIP3   OH274574   4.140   6.667  14.141 -0.0761 -0.1145 -0.5601
17720TIP3    H174575   4.123   6.602  14.209 -1.3804  1.0716  0.2738
17720TIP3    H274576   4.053   6.686  14.103  0.5483 -0.3013 -2.1215
17721TIP3   OH274577   6.250   3.003   5.707 -0.3815  0.4557  0.8400
17721TIP3    H174578   6.197   3.011   5.786  0.0348  1.7339  1.0036
17721TIP3    H274579   6.276   2.911   5.704  0.5335  0.6235  2.7934
17722TIP3   OH274580   4.974   4.710   5.671 -0.2039 -0.2362  0.0920
17722TIP3    H174581   5.054   4.749   5.706 -0.2956 -1.7448  2.0741
17722TIP3    H274582   4.994   4.693   5.579  0.7850  1.8609 -0.1269
17723TIP3   OH274583   0.259   4.457  13.067  0.1602 -0.1564  0.3832
17723TIP3    H174584   0.346   4.495  13.068 -0.8085  2.1379  0.7209
17723TIP3    H274585   0.212   4.503  13.137 -2.2500  0.8908 -1.8608
17724TIP3   OH274586   4.513   0.450  16.681  0.4418 -0.2081  0.0395
17724TIP3    H174587   4.504   0.448  16.776  1.4148  0.3573  0.1528
17724TIP3    H274588   4.429   0.483  16.649 -0.2861 -1.4571  0.6346
17725TIP3   OH274589   4.302   4.503   2.965  0.1759 -0.5202 -0.1817
17725TIP3    H174590   4.253   4.546   3.035  2.5898 -1.2793  2.0154
17725TIP3    H274591   4.245   4.431   2.938 -1.7000  1.0378 -0.4766
17726TIP3   OH274592   2.209   4.560   3.281  0.4143  0.2616  0.1303
17726TIP3    H174593   2.148   4.552   3.207  1.0857  1.7020 -0.6145
17726TIP3    H274594   2.156   4.541   3.358 -0.5521 -0.2470 -0.6524
17727TIP3   OH274595   2.111   5.258   4.139  0.0140  0.8369  0.2540
17727TIP3    H174596   2.096   5.315   4.214  0.9446  1.7764 -0.2602
17727TIP3    H274597   2.058   5.297   4.069  0.7587  1.1723 -0.1367
17728TIP3   OH274598   5.804   2.945   5.397 -0.0642  0.5042  0.4607
17728TIP3    H174599   5.747   2.975   5.327  0.6267 -0.9415 -0.7645
17728TIP3    H274600   5.892   2.948   5.358  0.3250 -0.2858  1.2720
17729TIP3   OH274601   3.423   4.443   3.172  0.4273  0.0608  0.1106
17729TIP3    H174602   3.379   4.432   3.256  0.8172 -1.2650  0.1465
17729TIP3    H274603   3.434   4.538   3.163  1.7539  0.1472  2.2749
17730TIP3   OH274604   5.227   4.107   3.972  0.9441 -0.6326 -0.4182
17730TIP3    H174605   5.146   4.067   3.940 -0.5704  3.0444 -1.5048
17730TIP3    H274606   5.216   4.111   4.067  0.3371 -1.1245 -0.4667
17731TIP3   OH274607   1.190   6.661  13.373 -0.6149 -0.2039  0.5808
17731TIP3    H174608   1.148   6.740  13.405 -1.6896 -0.4182 -0.2392
17731TIP3    H274609   1.176   6.596  13.442 -0.9609 -0.0533  0.6553
17732TIP3   OH274610   6.129   1.352   2.006  0.6864 -0.2358  0.2754
17732TIP3    H174611   6.035   1.369   2.008  0.9494  1.5149 -1.1740
17732TIP3    H274612   6.136   1.256   2.014 -1.2031 -0.3860  0.3468
17733TIP3   OH274613   3.781   5.893   0.581  0.3014 -0.4298  0.2038
17733TIP3    H174614   3.781   5.987   0.599 -0.5519  0.1033 -2.3515
17733TIP3    H274615   3.872   5.871   0.564  0.4558 -0.0168  0.4905
17734TIP3   OH274616   1.883   6.720   2.117  0.4879 -0.3221 -0.7855
17734TIP3    H174617   1.945   6.675   2.058 -1.7291 -2.3407 -1.6477
17734TIP3    H274618   1.928   6.721   2.201  2.8054  0.6311 -1.9635
17735TIP3   OH274619   1.730   5.329  15.671 -0.3687 -0.3160  0.3154
17735TIP3    H174620   1.791   5.339  15.744 -1.3076 -0.1043  1.0803
17735TIP3    H274621   1.668   5.401  15.682 -0.1591  0.1059 -1.0580
17736TIP3   OH274622   6.732   3.937   0.106  0.1439  0.1541 -0.1452
17736TIP3    H174623   6.760   4.000   0.040  1.6808 -0.8154 -0.4295
17736TIP3    H274624   6.750   3.851   0.067 -0.7666 -0.4541  0.7448
17737TIP3   OH274625   2.178   0.927   4.081  0.3601  1.0768  0.3275
17737TIP3    H174626   2.126   1.006   4.094  0.0605  0.6063  2.1770
17737TIP3    H274627   2.115   0.861   4.053  0.2186  0.9187  1.0066
17738TIP3   OH274628   4.678   5.190  13.368 -0.4550  0.2461 -0.2748
17738TIP3    H174629   4.603   5.174  13.425  0.1351 -1.6174  0.0357
17738TIP3    H274630   4.644   5.244  13.297 -1.7870  0.4767  0.5278
17739TIP3   OH274631   5.026   3.736  14.623 -0.2612 -0.1560 -0.2305
17739TIP3    H174632   4.938   3.763  14.650  0.8784  4.1360 -0.3736
17739TIP3    H274633   5.065   3.700  14.702 -0.9465  1.2730  0.7730
17740TIP3   OH274634   4.450   2.531   3.237  0.6346 -0.4315 -0.1068
17740TIP3    H174635   4.468   2.555   3.146 -1.3777 -0.5743 -0.5580
17740TIP3    H274636   4.501   2.594   3.289 -0.0406  1.1347 -1.3082
17741TIP3   OH274637   1.622   1.728  15.669 -0.2727 -0.2060 -0.1170
17741TIP3    H174638   1.648   1.810  15.711 -0.1084 -0.0146 -0.5882
17741TIP3    H274639   1.597   1.753  15.580 -0.6754 -0.5985 -0.1144
17742TIP3   OH274640   5.758   1.736   4.210 -0.5067  0.0904 -0.2928
17742TIP3    H174641   5.848   1.732   4.178 -0.8103 -2.6277 -0.9336
17742TIP3    H274642   5.704   1.733   4.130 -1.2073 -2.4339  0.2425
17743TIP3   OH274643   0.949   5.659   1.275 -0.4737 -0.1159 -0.2637
17743TIP3    H174644   0.970   5.746   1.309  1.4170 -0.1119 -1.3833
17743TIP3    H274645   0.854   5.660   1.264 -0.3491  2.3296 -1.6288
17744TIP3   OH274646   1.491   2.113  12.186  0.4292  0.9159 -0.5123
17744TIP3    H174647   1.564   2.080  12.133 -0.6361 -2.6592  0.1281
17744TIP3    H274648   1.424   2.136  12.122 -0.0161 -1.2560 -0.8363
17745TIP3   OH274649   1.160   4.017  14.588  0.1010  0.1905 -0.5492
17745TIP3    H174650   1.246   3.990  14.623 -0.7481  1.6554  2.9036
17745TIP3    H274651   1.114   3.934  14.572  1.6402 -0.5843 -1.0775
17746TIP3   OH274652   0.984   2.030  15.261 -0.1584  0.1437  0.1163
17746TIP3    H174653   0.940   1.955  15.299 -1.0921  0.5933 -0.0619
17746TIP3    H274654   0.923   2.063  15.195  0.4322  0.7849 -0.1161
17747TIP3   OH274655   3.621   2.446   0.306 -0.5621 -0.1048  0.2245
17747TIP3    H174656   3.608   2.376   0.370  0.7055 -1.0254 -0.4928
17747TIP3    H274657   3.536   2.457   0.264 -1.4035  0.5164  2.0566
17748TIP3   OH274658   5.451   5.904  16.826 -0.0446 -0.1116 -0.1055
17748TIP3    H174659   5.436   5.894  16.920  0.2336  1.2282  0.0909
17748TIP3    H274660   5.387   5.846  16.786 -1.2745  0.5333  0.8802
17749TIP3   OH274661   0.676   5.999   6.243  0.3947  0.8856  0.8126
17749TIP3    H174662   0.697   5.908   6.224  2.0924  0.6813  3.3228
17749TIP3    H274663   0.605   6.021   6.183 -0.3465 -2.2242  0.4712
17750TIP3   OH274664   2.532   0.590  15.666 -0.1330  0.1753 -0.3494
17750TIP3    H174665   2.513   0.497  15.677  1.1124 -0.0524  0.0202
17750TIP3    H274666   2.590   0.611  15.739  0.2524  1.0465 -0.8918
17751TIP3   OH274667   0.472   1.295   1.913  0.3547  0.0366 -0.1228
17751TIP3    H174668   0.467   1.217   1.969 -1.5981  0.1109 -0.1636
17751TIP3    H274669   0.488   1.261   1.825 -0.3035 -0.3039 -0.1097
17752TIP3   OH274670   6.110   1.407   0.327 -0.0567  0.0024 -0.1136
17752TIP3    H174671   6.065   1.448   0.254  0.2743  1.1594  0.3270
17752TIP3    H274672   6.172   1.473   0.359  0.0723 -0.6137  0.9796
17753TIP3   OH274673   4.941   4.422   5.814 -0.0319  0.4947  0.3751
17753TIP3    H174674   4.899   4.404   5.730 -0.6618 -2.3238  1.2357
17753TIP3    H274675   5.031   4.445   5.791  0.2860 -1.9257 -1.0514
17754TIP3   OH274676   1.532   6.239  14.782  0.2182 -1.1327 -0.2210
17754TIP3    H174677   1.611   6.278  14.744 -2.4663  1.9845 -2.8146
17754TIP3    H274678   1.507   6.170  14.721 -1.0040  0.2018 -1.2347
17755TIP3   OH274679   0.335   1.400  12.175  0.5617 -0.1840 -0.3721
17755TIP3    H174680   0.340   1.480  12.227  0.2368 -0.0650 -0.5218
17755TIP3    H274681   0.279   1.342  12.227  0.3692 -0.1240 -0.5131
17756TIP3   OH274682   0.510   1.329   6.158 -0.0351 -0.2160  0.5221
17756TIP3    H174683   0.554   1.263   6.104 -0.4150  0.2684 -0.3985
17756TIP3    H274684   0.564   1.337   6.237 -0.7036 -2.5892  1.2453
17757TIP3   OH274685   0.955   3.917  16.912 -0.3772 -0.1532 -0.3345
17757TIP3    H174686   0.931   3.919  16.820 -1.2261 -0.1754 -0.1127
17757TIP3    H274687   0.888   3.862  16.954 -0.2088  0.1516  0.3530
17758TIP3   OH274688   2.763   0.469   0.684 -0.0727  0.1559  0.0499
17758TIP3    H174689   2.771   0.398   0.620 -0.6108 -1.2360  1.5098
17758TIP3    H274690   2.733   0.544   0.632 -0.3486 -0.9100 -1.3662
17759TIP3   OH274691   4.452   6.064  16.630 -0.0498 -0.4127  0.1038
17759TIP3    H174692   4.372   6.116  16.623 -0.3231 -0.7494  0.6340
17759TIP3    H274693   4.493   6.070  16.544 -0.4981  0.0079 -0.0802
17760TIP3   OH274694   6.371   5.724   3.368 -0.3879 -0.2110 -0.3303
17760TIP3    H174695   6.313   5.767   3.430 -0.6386  1.9548 -2.0129
17760TIP3    H274696   6.396   5.642   3.411 -1.3373  0.7780  2.1797
17761TIP3   OH274697   2.392   6.716  16.284  0.2713  0.1465  0.9837
17761TIP3    H174698   2.316   6.711  16.342 -1.4054  1.0319 -1.0638
17761TIP3    H274699   2.427   6.804  16.299 -0.5284  0.5995  0.2144
17762TIP3   OH274700   0.946   0.979   5.206  0.4983 -0.3427  0.2831
17762TIP3    H174701   0.946   0.965   5.301  1.7008  1.0286  0.5089
17762TIP3    H274702   0.856   0.962   5.179 -0.3734  1.3030  1.9991
17763TIP3   OH274703   1.466   2.335   2.553  0.7495  0.2075  0.0986
17763TIP3    H174704   1.436   2.412   2.504  1.3756 -0.2781 -1.0663
17763TIP3    H274705   1.385   2.289   2.575  0.5132 -0.2662 -1.6588
17764TIP3   OH274706   1.918   4.142   0.147 -0.0804  0.3380 -0.4218
17764TIP3    H174707   1.939   4.059   0.190 -0.1171 -0.6763 -2.3226
17764TIP3    H274708   1.891   4.117   0.059 -3.2078  2.0953 -0.0427
17765TIP3   OH274709   2.263   0.396   3.334 -0.4151 -0.7056  0.3214
17765TIP3    H174710   2.338   0.443   3.370 -0.2064 -1.6326  1.1066
17765TIP3    H274711   2.190   0.418   3.392 -0.9143  0.6873 -0.7920
17766TIP3   OH274712   0.463   4.377  13.348  0.0501  0.1630  0.3501
17766TIP3    H174713   0.400   4.313  13.315 -0.6008  0.3028  1.2977
17766TIP3    H274714   0.532   4.324  13.389 -0.0960  0.0374  0.4356
17767TIP3   OH274715   3.459   5.219  16.163 -0.3540  0.0640  0.0675
17767TIP3    H174716   3.389   5.207  16.099 -0.6118 -0.2737  0.4149
17767TIP3    H274717   3.538   5.188  16.119 -0.5051 -0.0297 -0.1359
17768TIP3   OH274718   5.618   1.189  17.108  0.1419 -0.1856  0.1889
17768TIP3    H174719   5.598   1.140  17.029 -0.3619 -0.2271  0.3397
17768TIP3    H274720   5.701   1.153  17.139  0.1459 -0.4292 -0.1088
17769TIP3   OH274721   0.284   4.691   3.498  0.0887  0.4271  0.5934
17769TIP3    H174722   0.230   4.659   3.426 -2.5842  1.5012  2.0676
17769TIP3    H274723   0.324   4.612   3.535  0.0967 -0.3036 -0.9317
17770TIP3   OH274724   0.621   6.650  13.336 -0.1992  0.1622 -0.3467
17770TIP3    H174725   0.704   6.688  13.308 -1.2888  1.0095 -2.5671
17770TIP3    H274726   0.630   6.556  13.320 -0.0187  0.3754 -1.4926
17771TIP3   OH274727   1.727   2.649   3.513  0.3967  0.3452 -0.2496
17771TIP3    H174728   1.676   2.730   3.511 -0.6887 -0.2545  2.1563
17771TIP3    H274729   1.760   2.644   3.603  0.3863 -1.9230 -0.3662
17772TIP3   OH274730   1.280   4.821  11.060  0.0079 -0.0017  0.4280
17772TIP3    H174731   1.340   4.848  10.991 -1.0824 -1.0150 -0.9366
17772TIP3    H274732   1.322   4.850  11.141  0.8571  2.0575 -0.7018
17773TIP3   OH274733   3.678   6.128  15.203  0.1802 -0.0889  0.1397
17773TIP3    H174734   3.610   6.189  15.230  0.3893 -0.2604  1.0679
17773TIP3    H274735   3.631   6.050  15.175 -0.0210 -0.0939  0.4902
17774TIP3   OH274736   6.560   2.859  14.634  0.1595  0.6017 -0.0688
17774TIP3    H174737   6.560   2.949  14.601 -0.5983  0.5022 -0.3440
17774TIP3    H274738   6.622   2.860  14.707  0.3093  1.2985 -0.2094
17775TIP3   OH274739   4.383   4.594  15.574 -0.1803 -0.7731 -0.2342
17775TIP3    H174740   4.364   4.503  15.598 -1.4397 -1.0003 -1.9937
17775TIP3    H274741   4.300   4.626  15.537  0.9802  0.3251 -1.9169
17776TIP3   OH274742   2.378   2.527   3.413 -0.0698  0.2003  0.3192
17776TIP3    H174743   2.393   2.619   3.392 -1.3153  0.2376 -0.4251
17776TIP3    H274744   2.465   2.494   3.437  0.3450  1.6252  0.8492
17777TIP3   OH274745   4.836   5.350   6.478  0.0720 -0.5379  0.1293
17777TIP3    H174746   4.769   5.284   6.497  1.7208 -1.8139  1.7279
17777TIP3    H274747   4.854   5.340   6.385 -2.6335  0.4852 -0.5318
17778TIP3   OH274748   5.557   6.639  14.046 -0.1683  0.2714  0.0259
17778TIP3    H174749   5.640   6.604  14.014 -0.5272  1.1378 -1.9788
17778TIP3    H274750   5.572   6.658  14.138  2.0924  1.0711 -0.4794
17779TIP3   OH274751   4.530   0.991  16.759 -0.0413  0.8389  0.1922
17779TIP3    H174752   4.507   1.077  16.795 -2.9344 -0.3696  1.4244
17779TIP3    H274753   4.478   0.983  16.679  0.4758  0.3792 -0.1014
17780TIP3   OH274754   6.701   5.692   0.548 -0.4179 -0.6067  0.2412
17780TIP3    H174755   6.651   5.770   0.573  1.7189  0.0480  2.7174
17780TIP3    H274756   6.776   5.727   0.498  0.2718 -1.1169  0.9143
17781TIP3   OH274757   1.590   5.723   3.973  0.6923  0.3437 -0.0754
17781TIP3    H174758   1.656   5.654   3.980  0.1668 -0.1978 -0.3200
17781TIP3    H274759   1.523   5.697   4.036 -0.2897 -0.2670 -1.3341
17782TIP3   OH274760   5.663   3.542  15.590  0.0653 -0.4221 -0.1123
17782TIP3    H174761   5.713   3.605  15.537 -0.0603 -0.8235 -0.7169
17782TIP3    H274762   5.683   3.457  15.551  0.4270 -0.7907  0.8569
17783TIP3   OH274763   0.036   0.016  16.093  0.0785 -0.8206  0.3869
17783TIP3    H174764   0.030   0.077  16.167  0.4944  0.2180 -0.4259
17783TIP3    H274765  -0.054   0.012  16.059  0.0812 -0.5305  0.3426
17784TIP3   OH274766   1.885   5.237  13.088  0.3056 -0.0941 -0.0985
17784TIP3    H174767   1.803   5.265  13.130 -0.7226  0.2770 -2.3003
17784TIP3    H274768   1.875   5.262  12.996  2.2579 -1.4612 -0.7151
17785TIP3   OH274769   0.991   0.425  13.110 -0.0350 -0.0222  0.2717
17785TIP3    H174770   1.008   0.354  13.047  0.3410 -0.3394  0.7317
17785TIP3    H274771   0.996   0.505  13.057 -1.3749 -0.3888 -0.4321
17786TIP3   OH274772   5.363   6.247  10.401  0.2356 -0.5484  0.0360
17786TIP3    H174773   5.357   6.318  10.466  2.6899  0.8669 -1.2075
17786TIP3    H274774   5.358   6.291  10.317 -0.5344 -2.1266 -0.7579
17787TIP3   OH274775   6.674   2.736   1.872 -0.0642 -0.2292  0.6114
17787TIP3    H174776   6.718   2.816   1.840 -1.7386 -0.3895 -2.2779
17787TIP3    H274777   6.598   2.768   1.920  2.0575 -0.0122  4.0429
17788TIP3   OH274778   1.875   6.617  11.115 -0.7501  0.8282 -0.8387
17788TIP3    H174779   1.911   6.622  11.203 -0.4650 -1.6807 -0.7901
17788TIP3    H274780   1.875   6.708  11.084 -0.1007  1.6260  1.4240
17789TIP3   OH274781   1.240   4.658  13.391 -0.0207  0.1934 -0.0203
17789TIP3    H174782   1.324   4.635  13.431  0.0613  0.7706  0.1415
17789TIP3    H274783   1.181   4.671  13.465 -0.8841 -2.5485 -0.1797
17790TIP3   OH274784   5.479   3.782   4.032  0.2373 -0.1379 -0.1901
17790TIP3    H174785   5.558   3.746   3.992  0.1403  0.1635 -0.6425
17790TIP3    H274786   5.425   3.812   3.959 -0.3828 -0.5143  0.1028
17791TIP3   OH274787   2.801   4.224   6.264  0.1934 -0.0114 -0.0866
17791TIP3    H174788   2.892   4.251   6.257 -0.0377  1.3227  1.6032
17791TIP3    H274789   2.786   4.214   6.358 -1.0821 -1.3845 -0.4102
17792TIP3   OH274790   0.307   2.864   6.050  0.2163 -0.9578  0.0085
17792TIP3    H174791   0.348   2.819   6.124 -0.2364  0.2756  1.0292
17792TIP3    H274792   0.380   2.898   5.999  0.4942  1.3871  1.9149
17793TIP3   OH274793   0.892   5.549  11.833  0.2711  0.1083  0.1681
17793TIP3    H174794   0.880   5.483  11.901 -1.2895  0.1734 -0.0204
17793TIP3    H274795   0.865   5.631  11.874  0.1541  0.2833 -0.2493
17794TIP3   OH274796   4.100   1.270   2.746  0.3564 -0.2020 -0.7505
17794TIP3    H174797   4.148   1.211   2.804 -0.5061  1.6095  1.8751
17794TIP3    H274798   4.168   1.308   2.689  1.5826 -0.0889  0.7710
17795TIP3   OH274799   5.473   1.119  15.707  0.6805 -0.3567 -0.0262
17795TIP3    H174800   5.564   1.148  15.710  0.3308  0.7321  0.8222
17795TIP3    H274801   5.475   1.035  15.663  2.1695 -0.6242  0.5397
17796TIP3   OH274802   0.849   2.673   1.918  0.1376  0.4108 -0.9877
17796TIP3    H174803   0.819   2.583   1.928  3.5562 -0.6439  0.6915
17796TIP3    H274804   0.856   2.686   1.824  0.1356 -1.2488 -1.2367
17797TIP3   OH274805   1.817   4.621   3.674  0.3689 -0.3333 -0.0796
17797TIP3    H174806   1.790   4.658   3.590  0.2774 -0.0023  0.0947
17797TIP3    H274807   1.895   4.569   3.653  0.1172 -0.5725 -0.4346
17798TIP3   OH274808   5.400   1.942  12.232 -0.3379  0.1299 -0.3123
17798TIP3    H174809   5.460   1.877  12.268 -1.9274 -1.3610 -0.2657
17798TIP3    H274810   5.374   1.906  12.147 -1.3827  0.5813 -0.1986
17799TIP3   OH274811   5.274   3.245   0.578 -0.1791  0.1248  0.2412
17799TIP3    H174812   5.228   3.171   0.617 -3.0397  0.4859 -2.2853
17799TIP3    H274813   5.239   3.251   0.489  0.5990  3.9823  0.1098
17800TIP3   OH274814   6.067   6.784   4.595 -0.0122  0.2241  0.5689
17800TIP3    H174815   6.151   6.741   4.580 -0.6561 -2.0080  3.0608
17800TIP3    H274816   6.080   6.834   4.676 -1.0300 -0.0180  0.8860
17801TIP3   OH274817   5.145   6.419  11.758 -0.0134  0.6940 -0.5188
17801TIP3    H174818   5.063   6.450  11.720 -1.0807 -0.4607  0.8224
17801TIP3    H274819   5.119   6.366  11.832  2.0234  2.7813  1.7893
17802TIP3   OH274820   1.173   0.931  13.768  0.1323 -1.0981 -0.4719
17802TIP3    H174821   1.188   0.865  13.836  0.7355 -1.6065 -1.0937
17802TIP3    H274822   1.262   0.956  13.740 -0.1032 -0.4269 -0.6234
17803TIP3   OH274823   4.563   0.834   4.816 -0.4102 -0.1105  0.4649
17803TIP3    H174824   4.588   0.811   4.726 -1.3898  0.7445 -0.0444
17803TIP3    H274825   4.614   0.913   4.835  0.9213 -1.1334  1.2209
17804TIP3   OH274826   4.795   1.021  16.108  0.2237  0.1715  0.2845
17804TIP3    H174827   4.761   1.100  16.066  0.5613  0.6507  0.9042
17804TIP3    H274828   4.886   1.041  16.128  0.3787 -0.4643  0.2371
17805TIP3   OH274829   1.203   4.307   4.681  0.2688 -0.0053  0.4832
17805TIP3    H174830   1.277   4.354   4.642  0.0041  0.5936  0.7076
17805TIP3    H274831   1.162   4.261   4.608  0.6462 -0.0503  0.2983
17806TIP3   OH274832   0.330   1.645   2.747  0.3498  0.3506 -0.4316
17806TIP3    H174833   0.356   1.594   2.823  0.3061 -0.6888 -1.1043
17806TIP3    H274834   0.404   1.702   2.729  1.2248 -0.9009 -0.8907
17807TIP3   OH274835   0.750   0.911   1.520  0.2147 -0.0511 -0.8341
17807TIP3    H174836   0.736   0.828   1.475 -1.5886 -0.2007  0.0025
17807TIP3    H274837   0.738   0.977   1.452 -2.0168 -0.3015 -0.7044
17808TIP3   OH274838   2.593   0.521   3.552 -0.3234 -0.0292 -0.1300
17808TIP3    H174839   2.568   0.606   3.589 -0.1021  0.5759 -1.3315
17808TIP3    H274840   2.637   0.543   3.470  3.4525 -1.0875  1.5022
17809TIP3   OH274841   3.648   3.103  12.938  0.1682 -0.2593 -0.6593
17809TIP3    H174842   3.579   3.160  12.971  0.0890 -0.1961 -0.9345
17809TIP3    H274843   3.634   3.020  12.985  1.1507  0.3803  0.7907
17810TIP3   OH274844   3.934   3.327   0.969  0.1809  0.3320  0.4801
17810TIP3    H174845   3.991   3.251   0.967  0.3169  0.4693 -1.1678
17810TIP3    H274846   3.901   3.330   1.059 -1.0586 -2.5809  0.1590
17811TIP3   OH274847   5.015   3.886  15.974  0.0294  0.3222  0.2677
17811TIP3    H174848   5.061   3.870  16.056  1.0438 -1.8000 -0.6759
17811TIP3    H274849   4.926   3.907  16.000  0.5487  0.5124  1.9416
17812TIP3   OH274850   2.389   5.046   1.911  0.8579  0.1085  0.2222
17812TIP3    H174851   2.375   5.117   1.974 -0.7085  0.8515 -0.9198
17812TIP3    H274852   2.388   5.089   1.825  2.9667 -0.8815 -0.3524
17813TIP3   OH274853   3.115   5.369  16.389 -0.0517 -0.5605 -0.2288
17813TIP3    H174854   3.150   5.384  16.476  2.3806 -0.4020 -1.1908
17813TIP3    H274855   3.125   5.275  16.375 -1.3990 -0.7605  0.0304
17814TIP3   OH274856   4.833   1.628   6.394  0.1755  0.6234 -0.6149
17814TIP3    H174857   4.912   1.575   6.408  1.0517  2.2631  0.7307
17814TIP3    H274858   4.862   1.699   6.336 -0.4968  0.8157 -0.7195
17815TIP3   OH274859   1.631   4.722  16.849 -0.6632  0.0927 -0.2111
17815TIP3    H174860   1.723   4.714  16.827 -0.3579 -0.1514  1.1246
17815TIP3    H274861   1.628   4.787  16.920 -1.4399 -0.3771  0.1999
17816TIP3   OH274862   2.699   1.484  10.942  0.5680  0.0865 -0.9010
17816TIP3    H174863   2.611   1.456  10.916  0.3196  0.5312 -0.5301
17816TIP3    H274864   2.756   1.446  10.875  0.2738 -1.6313 -0.2045
17817TIP3   OH274865   3.639   4.861   3.307  0.1207  0.1355  0.2133
17817TIP3    H174866   3.578   4.805   3.260 -2.8654  1.3993  2.4536
17817TIP3    H274867   3.669   4.808   3.380  1.3007 -0.2607 -0.5313
17818TIP3   OH274868   1.319   0.897  15.856 -0.1407 -0.2217  0.2503
17818TIP3    H174869   1.317   0.954  15.779 -2.8409  1.2176  1.3024
17818TIP3    H274870   1.275   0.817  15.827 -1.6312  0.5212  0.4159
17819TIP3   OH274871   2.727   2.064   1.217 -0.2877 -0.1978 -0.0911
17819TIP3    H174872   2.805   2.032   1.172  0.0595 -2.2524  1.8226
17819TIP3    H274873   2.751   2.151   1.248  1.1553 -0.6871  0.2071
17820TIP3   OH274874   0.625   5.431  13.576 -0.9745 -0.0211  0.3870
17820TIP3    H174875   0.551   5.487  13.600  0.4733  2.6834 -1.2350
17820TIP3    H274876   0.693   5.492  13.548  0.6772 -2.6160 -1.4660
17821TIP3   OH274877   3.869   4.363   4.095  0.1608 -0.2623 -0.3374
17821TIP3    H174878   3.850   4.355   4.188  0.2300  1.1123 -0.1917
17821TIP3    H274879   3.930   4.436   4.089  0.2127 -0.3849 -1.4531
17822TIP3   OH274880   0.783   3.805  13.006 -0.1677  0.2321 -0.0186
17822TIP3    H174881   0.828   3.862  12.944 -1.5552  0.4945 -0.8178
17822TIP3    H274882   0.778   3.720  12.961  0.3218 -0.0310  0.4273
17823TIP3   OH274883   6.600   3.145  12.477  0.1006  0.1567  0.6854
17823TIP3    H174884   6.574   3.136  12.385  1.4173 -1.1026  0.4078
17823TIP3    H274885   6.519   3.161  12.524 -1.3738 -4.4506 -0.0496
17824TIP3   OH274886   5.357   4.327  14.648 -0.1651  0.5636  0.4620
17824TIP3    H174887   5.394   4.394  14.591 -2.1095  1.3874  0.1326
17824TIP3    H274888   5.355   4.368  14.735  1.6198 -0.2416  0.9123
17825TIP3   OH274889   2.402   5.738   2.246 -0.1390  0.1272 -0.2176
17825TIP3    H174890   2.416   5.771   2.157  0.0287  1.1379  0.1751
17825TIP3    H274891   2.446   5.801   2.302 -0.8813 -0.0937  0.6323
17826TIP3   OH274892   2.230   1.299   2.953  0.4022  0.0328 -0.3898
17826TIP3    H174893   2.283   1.258   3.021 -0.6319  0.1647  0.5080
17826TIP3    H274894   2.265   1.387   2.944  1.2396 -0.3342 -0.8020
17827TIP3   OH274895   3.068   1.425   0.382 -0.1397 -0.0850 -0.9841
17827TIP3    H174896   3.157   1.420   0.348 -0.6071 -1.6936 -2.0084
17827TIP3    H274897   3.014   1.380   0.317 -1.5243 -0.2479  0.2366
17828TIP3   OH274898   1.214   3.522   3.334 -0.0704  0.0444  0.0685
17828TIP3    H174899   1.191   3.519   3.427  0.7325  0.1235  0.2717
17828TIP3    H274900   1.249   3.435   3.315  0.6509  0.3341  0.0696
17829TIP3   OH274901   4.396   4.612  12.206 -0.2803 -0.0100  0.2110
17829TIP3    H174902   4.455   4.610  12.130 -1.1572 -1.9345 -0.4638
17829TIP3    H274903   4.411   4.697  12.246  0.3651  0.9617 -2.0086
17830TIP3   OH274904   3.412   4.432   1.667  0.0755 -0.5918 -0.2040
17830TIP3    H174905   3.443   4.341   1.661 -0.0971 -0.7682  1.3489
17830TIP3    H274906   3.317   4.426   1.657  0.0371 -0.6056  0.1883
17831TIP3   OH274907   2.121   1.071   3.830 -0.2662 -0.6666 -0.1964
17831TIP3    H174908   2.106   1.151   3.781  1.3674  0.3355  0.9085
17831TIP3    H274909   2.045   1.016   3.811 -2.3487  1.8947  0.5764
17832TIP3   OH274910   3.397   2.257   2.983  0.0609 -0.8063  0.3315
17832TIP3    H174911   3.359   2.336   2.946  0.0306 -0.9125  0.1387
17832TIP3    H274912   3.419   2.281   3.073  0.7902 -0.3343  0.0328
17833TIP3   OH274913   5.423   1.585  11.906  0.0346 -0.6217  0.3319
17833TIP3    H174914   5.358   1.551  11.844 -0.3614 -1.2310  1.0701
17833TIP3    H274915   5.501   1.533  11.890 -0.1372 -0.9317  0.4950
17834TIP3   OH274916   2.148   0.933   6.277  0.1376  0.9602  0.1512
17834TIP3    H174917   2.168   0.932   6.370 -2.0378 -0.0783  0.6282
17834TIP3    H274918   2.137   1.026   6.256  1.7899  1.2853  0.6398
17835TIP3   OH274919   6.554   4.011  12.890  0.2828  0.0606 -0.7824
17835TIP3    H174920   6.513   3.929  12.862 -1.8252  0.7437  0.2508
17835TIP3    H274921   6.483   4.061  12.930  1.7627  1.9978 -0.5286
17836TIP3   OH274922   0.208   4.559  14.296  0.8042 -0.1525  0.4493
17836TIP3    H174923   0.192   4.478  14.344 -2.8021 -0.9138 -1.8161
17836TIP3    H274924   0.238   4.530  14.210 -2.5549  0.7350 -1.1056
17837TIP3   OH274925   5.382   5.731  12.409  0.3256 -0.7154 -0.0685
17837TIP3    H174926   5.389   5.636  12.417  1.5576 -0.8215 -2.1958
17837TIP3    H274927   5.469   5.760  12.384 -0.2702  0.8900 -0.3589
17838TIP3   OH274928   6.488   1.158   0.871 -0.0365 -0.4211  0.0521
17838TIP3    H174929   6.517   1.210   0.945  0.7578 -1.2469  0.3199
17838TIP3    H274930   6.443   1.083   0.910 -1.0174 -0.0522 -0.3318
17839TIP3   OH274931   5.522   2.376   1.044  0.5512  0.1322  0.5381
17839TIP3    H174932   5.611   2.397   1.072  1.0151 -0.3071 -0.5807
17839TIP3    H274933   5.515   2.413   0.955 -0.2525 -0.1599  0.4747
17840TIP3   OH274934   3.715   0.961   1.181 -0.6783 -0.0022 -0.1262
17840TIP3    H174935   3.699   1.055   1.173  0.1833  0.2505  0.9158
17840TIP3    H274936   3.744   0.950   1.272 -0.2608 -1.1980 -0.3973
17841TIP3   OH274937   4.433   2.537   1.855 -0.4172 -0.3135  0.8436
17841TIP3    H174938   4.352   2.514   1.901 -1.5891 -2.5836 -2.1638
17841TIP3    H274939   4.495   2.467   1.878 -0.5846 -0.7248  0.0686
17842TIP3   OH274940   2.848   3.660   5.620 -0.4372 -0.4506 -0.1654
17842TIP3    H174941   2.893   3.699   5.545 -0.5647 -2.3517 -1.2487
17842TIP3    H274942   2.913   3.663   5.691 -0.2794  1.2437 -0.3616
17843TIP3   OH274943   1.399   4.812   1.229 -0.7599  0.0677  0.2112
17843TIP3    H174944   1.335   4.857   1.174 -2.4284 -0.5242  1.6107
17843TIP3    H274945   1.483   4.850   1.204 -1.8921  2.4881 -0.0847
17844TIP3   OH274946   1.492   3.953   5.114 -0.2311  0.2643  0.2955
17844TIP3    H174947   1.549   3.885   5.078  0.6235  0.2777  1.5814
17844TIP3    H274948   1.538   4.035   5.096  0.2337  0.2674  1.4391
17845TIP3   OH274949   1.345   2.890   4.709 -0.4234 -0.3716 -0.0641
17845TIP3    H174950   1.326   2.893   4.615  0.6140 -3.3501 -0.4264
17845TIP3    H274951   1.261   2.867   4.749 -0.6444 -0.0911 -0.3621
17846TIP3   OH274952   4.410   2.099  16.616 -0.3633  0.5638 -0.1371
17846TIP3    H174953   4.392   2.127  16.705 -0.2268  0.4362 -0.0710
17846TIP3    H274954   4.407   2.004  16.619  0.2193  0.5433 -0.1443
17847TIP3   OH274955   0.267   6.066   0.963 -0.0944 -0.5260 -0.4072
17847TIP3    H174956   0.181   6.052   0.925  0.1057  0.0308 -1.0579
17847TIP3    H274957   0.251   6.120   1.041 -0.3542 -0.6121 -0.4024
17848TIP3   OH274958   6.262   4.737  13.590  0.3025  0.0341  0.6910
17848TIP3    H174959   6.303   4.817  13.623 -0.9696  1.4141 -0.9952
17848TIP3    H274960   6.185   4.767  13.543  0.6420 -2.0635 -1.3066
17849TIP3   OH274961   2.174   3.361  12.403  0.4808 -0.5862 -0.0420
17849TIP3    H174962   2.181   3.435  12.464 -0.8721  1.0544 -1.7913
17849TIP3    H274963   2.184   3.401  12.317 -0.6733 -2.4162 -1.0418
17850TIP3   OH274964   6.398   3.842   5.489 -0.5015  0.2066  0.4336
17850TIP3    H174965   6.478   3.794   5.508 -1.6297 -1.2878  1.6138
17850TIP3    H274966   6.348   3.838   5.571 -1.7874  1.0527 -0.2908
17851TIP3   OH274967   1.202   1.691  11.831  0.0360 -0.9792 -0.1664
17851TIP3    H174968   1.132   1.675  11.768 -0.3879 -0.5886  0.2040
17851TIP3    H274969   1.271   1.733  11.780  0.4348 -2.3301 -0.7616
17852TIP3   OH274970   1.183   5.794   4.320  0.0061  0.2936  0.2263
17852TIP3    H174971   1.090   5.809   4.307  0.5290  2.6324 -1.1587
17852TIP3    H274972   1.205   5.847   4.397  0.2193 -0.1807  0.4955
17853TIP3   OH274973   1.731   4.346  12.914  0.5411  0.0424  0.1265
17853TIP3    H174974   1.695   4.419  12.964 -0.2055 -0.5010  0.3926
17853TIP3    H274975   1.735   4.378  12.823 -2.3230 -0.4817 -0.2357
17854TIP3   OH274976   0.087   4.556   2.484 -0.4770  0.2677 -0.0737
17854TIP3    H174977   0.065   4.557   2.578 -0.1351  0.1518  0.0063
17854TIP3    H274978   0.133   4.474   2.471  0.4698  0.7923 -0.1138
17855TIP3   OH274979   1.753   5.296   1.712 -0.2397  0.2380 -0.1876
17855TIP3    H174980   1.676   5.304   1.656 -0.3780 -0.0322 -0.0312
17855TIP3    H274981   1.818   5.252   1.656 -0.5683 -0.5570  0.0563
17856TIP3   OH274982   3.270   6.091  12.184  0.2384  0.0404 -0.2513
17856TIP3    H174983   3.248   6.072  12.093 -1.1753  0.9738 -0.1285
17856TIP3    H274984   3.247   6.011  12.232 -0.8267  0.2292 -0.4443
17857TIP3   OH274985   5.532   3.135  11.900  0.4187  0.0545  0.4821
17857TIP3    H174986   5.445   3.095  11.905 -0.2774  1.5454  0.5540
17857TIP3    H274987   5.515   3.229  11.894  1.9557  0.2347 -2.0505
17858TIP3   OH274988   3.749   1.689  15.821 -0.3780 -0.0460  0.1415
17858TIP3    H174989   3.703   1.748  15.881  1.2197 -0.5942  1.9382
17858TIP3    H274990   3.804   1.747  15.769  1.3324  0.0740  2.0325
17859TIP3   OH274991   3.343   4.455   5.796 -0.2728 -0.6355  0.1304
17859TIP3    H174992   3.427   4.429   5.833  0.3908 -0.8824 -1.5289
17859TIP3    H274993   3.314   4.379   5.746 -0.4308  0.2159 -1.1036
17860TIP3   OH274994   0.260   3.678  14.942 -0.4224  0.1885  0.2870
17860TIP3    H174995   0.170   3.708  14.941 -0.4542  0.0946  0.3630
17860TIP3    H274996   0.304   3.736  15.004 -0.0703  1.2849 -0.9475
17861TIP3   OH274997   5.042   1.969   0.535  0.2932 -0.2378 -0.4260
17861TIP3    H174998   5.025   1.908   0.606  1.0851  0.3276  0.2541
17861TIP3    H274999   4.983   1.941   0.465 -0.7754 -0.5494  0.5871
17862TIP3   OH275000   6.609   6.017   4.332 -0.2660  0.2136 -0.9137
17862TIP3    H175001   6.620   6.072   4.409  0.6877 -0.3575 -0.6351
17862TIP3    H275002   6.584   5.931   4.367 -0.7361  0.1930 -1.2873
17863TIP3   OH275003   1.322   1.011   2.236 -0.5436  0.0373 -0.7363
17863TIP3    H175004   1.285   1.051   2.157 -4.1476  0.4572  1.0523
17863TIP3    H275005   1.265   0.937   2.255  0.3072 -0.1104  1.4276
17864TIP3   OH275006   1.733   3.851  16.541 -0.0457 -0.8799  0.5477
17864TIP3    H175007   1.828   3.861  16.540 -0.0689 -0.5844  1.2003
17864TIP3    H275008   1.701   3.928  16.588 -0.7303 -0.0273 -1.2569
17865TIP3   OH275009   0.998   4.128   2.321 -0.4884 -0.2928  0.4637
17865TIP3    H175010   1.033   4.068   2.255  0.3567  0.2067  0.4425
17865TIP3    H275011   1.063   4.125   2.392 -1.0090 -0.2515  0.9447
17866TIP3   OH275012   6.721   0.372   2.254  0.4857  0.6467 -0.1055
17866TIP3    H175013   6.673   0.302   2.209  2.6178 -0.7750 -0.2397
17866TIP3    H275014   6.740   0.336   2.341 -0.1589  1.8749  0.5670
17867TIP3   OH275015   4.057   1.439   0.231 -0.3662 -0.2129  0.3010
17867TIP3    H175016   4.146   1.428   0.264 -1.2630 -1.9780  2.2663
17867TIP3    H275017   4.025   1.350   0.216 -1.5189  0.4199 -1.2393
17868TIP3   OH275018   2.421   2.257  11.851 -0.2886  0.2130 -0.0938
17868TIP3    H175019   2.435   2.305  11.769 -2.6346 -0.7686 -1.1095
17868TIP3    H275020   2.482   2.184  11.845 -1.5849 -0.7737 -1.7620
17869TIP3   OH275021   2.171   0.785  12.085  0.3035 -1.0025 -0.0517
17869TIP3    H175022   2.176   0.866  12.137 -0.1706  0.3727 -2.0804
17869TIP3    H275023   2.261   0.751  12.086  0.9424  0.5790 -0.7378
17870TIP3   OH275024   5.606   0.821   1.001 -0.1599  0.2104 -0.0521
17870TIP3    H175025   5.558   0.741   1.021  0.9346 -0.4330  0.0207
17870TIP3    H275026   5.539   0.890   1.004 -0.9768 -0.5924  0.5982
17871TIP3   OH275027   4.060   1.491   4.999  0.4396 -0.7305 -0.1459
17871TIP3    H175028   3.978   1.505   5.046  0.3587  3.7055 -1.3441
17871TIP3    H275029   4.122   1.463   5.066 -1.1221 -0.3713  1.4758
17872TIP3   OH275030   6.254   1.941  14.177 -0.1432 -0.0094 -0.0702
17872TIP3    H175031   6.243   1.956  14.270  0.4873  1.1146 -0.1730
17872TIP3    H275032   6.241   2.027  14.136  1.8922 -0.0134 -0.7941
17873TIP3   OH275033   3.488   0.576  16.005  0.4233 -0.0212  0.2029
17873TIP3    H175034   3.486   0.513  15.933  1.2791  0.5130 -0.2952
17873TIP3    H275035   3.432   0.648  15.976 -0.4565 -0.4906  0.7206
17874TIP3   OH275036   0.328   1.826   4.331  0.0894  0.3092  0.5363
17874TIP3    H175037   0.259   1.762   4.347 -0.3150  0.4615 -0.5288
17874TIP3    H275038   0.287   1.911   4.351 -0.8088  0.6108 -2.3549
17875TIP3   OH275039   1.914   2.850  12.885  0.2650  0.3531  0.2982
17875TIP3    H175040   1.924   2.853  12.790 -2.0254 -0.6102  0.0077
17875TIP3    H275041   1.940   2.938  12.914  0.3677  0.8597 -1.2653
17876TIP3   OH275042   2.422   6.091   0.997 -0.3861  0.0759 -0.3239
17876TIP3    H175043   2.478   6.036   0.943  0.4026 -0.5724  1.1517
17876TIP3    H275044   2.391   6.034   1.067  0.3455  1.4460  1.1663
17877TIP3   OH275045   6.293   2.375   1.319  1.0020  0.0925  0.6661
17877TIP3    H175046   6.295   2.443   1.387  0.2873  0.7088  0.0744
17877TIP3    H275047   6.303   2.423   1.237 -0.2485 -0.4491  0.1983
17878TIP3   OH275048   5.783   1.134  13.482  0.1532  0.2141 -0.2784
17878TIP3    H175049   5.857   1.116  13.540  1.2014  1.1982 -1.2756
17878TIP3    H275050   5.789   1.228  13.464 -0.3484 -0.0177 -1.7090
17879TIP3   OH275051   1.218   4.288  15.135  0.5797 -0.0711 -0.3053
17879TIP3    H175052   1.236   4.380  15.152 -1.0634  0.4617 -1.4228
17879TIP3    H275053   1.258   4.271  15.050  0.4768 -0.2718 -0.3145
17880TIP3   OH275054   6.046   2.622   3.589 -0.5941  0.1386 -0.4133
17880TIP3    H175055   6.046   2.533   3.625  0.6554 -0.1060 -0.9844
17880TIP3    H275056   6.051   2.609   3.494 -2.2388  0.8015 -0.6005
17881TIP3   OH275057   2.739   1.069   0.937 -0.1825 -0.0408  0.4759
17881TIP3    H175058   2.721   1.160   0.962  0.0721 -0.0711  0.7763
17881TIP3    H275059   2.834   1.061   0.943 -0.2056 -0.3354  0.4785
17882TIP3   OH275060   2.133   6.766  12.147 -0.0399  0.4068 -0.1159
17882TIP3    H175061   2.114   6.832  12.080  1.7809  2.0697  0.9478
17882TIP3    H275062   2.110   6.809  12.230 -0.6598 -1.0006  0.4597
17883TIP3   OH275063   3.887   2.180  13.154 -0.4597 -0.3620  0.1294
17883TIP3    H175064   3.807   2.130  13.169 -0.3382 -0.5545  0.1484
17883TIP3    H275065   3.870   2.266  13.191 -1.3318  0.1838 -1.4942
17884TIP3   OH275066   2.247   2.736  16.048  0.1526  0.4877  0.0169
17884TIP3    H175067   2.257   2.704  15.959 -1.4692 -0.7999  0.2715
17884TIP3    H275068   2.165   2.696  16.079 -0.0502  2.0455  1.5880
17885TIP3   OH275069   5.804   1.491   5.603 -0.0992 -0.0585 -0.0513
17885TIP3    H175070   5.839   1.576   5.576 -0.1349  0.0736  0.3245
17885TIP3    H275071   5.880   1.433   5.599  0.0044  0.0695  0.0518
17886TIP3   OH275072   6.733   2.252  11.784  0.9653  0.8983  0.3837
17886TIP3    H175073   6.767   2.285  11.868  1.7953 -0.5389  0.6269
17886TIP3    H275074   6.798   2.281  11.719  0.0112  2.5311  0.1441
17887TIP3   OH275075   3.127   2.617  11.705 -0.4902  0.5972 -0.5521
17887TIP3    H175076   3.184   2.662  11.767  0.2904  0.4810 -1.1862
17887TIP3    H275077   3.183   2.551  11.664 -1.0844  0.4732 -1.1632
17888TIP3   OH275078   4.904   5.971  10.628  0.2589  0.3872  0.2599
17888TIP3    H175079   4.981   5.937  10.583  0.5662 -1.2436  1.9540
17888TIP3    H275080   4.858   5.893  10.659 -2.0985  1.3245 -0.6994
17889TIP3   OH275081   0.052   2.984  12.307  0.2363 -0.2355  0.0787
17889TIP3    H175082   0.005   3.067  12.315  0.6994 -0.0028  0.4189
17889TIP3    H275083   0.054   2.950  12.396 -0.3529 -0.8370 -0.1328
17890TIP3   OH275084   1.605   3.837   3.547 -0.5264 -0.5752  0.2338
17890TIP3    H175085   1.547   3.798   3.613 -1.7085 -1.6197 -1.3866
17890TIP3    H275086   1.546   3.888   3.491 -0.0411 -2.2303 -1.8704
17891TIP3   OH275087   0.807   6.332  17.105 -0.3659  0.0021 -0.0966
17891TIP3    H175088   0.736   6.370  17.054 -1.3704 -0.7971  0.6800
17891TIP3    H275089   0.811   6.241  17.076  0.8674  0.2270 -0.6952
17892TIP3   OH275090   6.162   1.134   1.630  0.0624 -0.5537 -0.1525
17892TIP3    H175091   6.099   1.062   1.623 -1.5857  0.9156 -0.5345
17892TIP3    H275092   6.188   1.153   1.540 -0.5099  0.2047 -0.1618
17893TIP3   OH275093   3.540   3.571   0.725  0.0870 -0.6718 -0.0088
17893TIP3    H175094   3.582   3.652   0.752 -0.0434 -0.6608  0.1650
17893TIP3    H275095   3.599   3.533   0.661 -0.3915  0.1206 -0.9311
17894TIP3   OH275096   0.553   2.366  13.193  0.0178 -0.0447 -0.1273
17894TIP3    H175097   0.480   2.371  13.132  0.8844  0.7973 -1.1174
17894TIP3    H275098   0.583   2.275  13.188  1.8662  0.6380 -3.1176
17895TIP3   OH275099   5.500   3.846  12.897  0.4816 -0.3725  0.1528
17895TIP3    H175100   5.543   3.760  12.898  0.9694 -0.2486 -3.1391
17895TIP3    H275101   5.407   3.826  12.888  0.5399 -0.5671 -0.0247
17896TIP3   OH275102   6.467   4.094   2.028 -0.0310  0.0932  0.0746
17896TIP3    H175103   6.459   4.064   2.118  1.7553  0.7004  0.4564
17896TIP3    H275104   6.457   4.014   1.975 -0.3927 -0.3679  0.8322
17897TIP3   OH275105   1.318   4.835   2.517  0.1342 -0.0623  0.3218
17897TIP3    H175106   1.314   4.757   2.462  2.0819  0.0864 -0.0615
17897TIP3    H275107   1.371   4.897   2.466  1.1256  0.4267  1.9224
17898TIP3   OH275108   0.161   1.130  13.004 -0.0244 -0.4637  0.2122
17898TIP3    H175109   0.182   1.191  13.075  1.1348  0.3639 -0.8184
17898TIP3    H275110   0.149   1.186  12.927 -0.6863 -1.3977 -0.3767
17899TIP3   OH275111   2.785   5.427  16.613 -1.0453  0.0811  0.4578
17899TIP3    H175112   2.721   5.477  16.563 -0.2856  1.6552  1.0022
17899TIP3    H275113   2.853   5.491  16.635 -0.4069 -1.0359  1.8150
17900TIP3   OH275114   0.351   3.948  13.848 -0.4832 -0.0652 -0.0425
17900TIP3    H175115   0.330   4.024  13.794 -1.3999  0.0217  0.4276
17900TIP3    H275116   0.397   3.985  13.924  0.3536 -0.1340 -0.5142
17901TIP3   OH275117   4.499   1.783  16.280  0.5385 -0.5379  0.1835
17901TIP3    H175118   4.496   1.746  16.192 -2.4258  1.7705 -0.7815
17901TIP3    H275119   4.544   1.867  16.270 -2.1242  0.9631  0.2914
17902TIP3   OH275120   3.558   5.586   3.149  0.0339  0.8129 -0.0269
17902TIP3    H175121   3.643   5.605   3.111  0.7497  1.1572  1.7130
17902TIP3    H275122   3.549   5.648   3.221 -0.6516 -0.7848  1.2871
17903TIP3   OH275123   5.519   5.574   1.157  0.3428 -0.0059  0.5299
17903TIP3    H175124   5.611   5.550   1.155 -0.0792 -1.6081 -1.5932
17903TIP3    H275125   5.477   5.506   1.209  0.1921  0.0666  0.5043
17904TIP3   OH275126   3.619   3.935  14.408  0.3434 -0.5637  0.5481
17904TIP3    H175127   3.710   3.963  14.396  1.0567 -3.1504 -0.4688
17904TIP3    H275128   3.622   3.876  14.483 -0.5119 -0.6894  0.4831
17905TIP3   OH275129   4.980   1.220  12.107 -0.5763 -0.0475  0.3192
17905TIP3    H175130   4.944   1.301  12.071 -0.6052 -0.5226 -0.7525
17905TIP3    H275131   5.064   1.210  12.062  0.8915  0.9962  2.7074
17906TIP3   OH275132   2.314   3.566  14.351  0.1293 -0.6020 -0.5625
17906TIP3    H175133   2.285   3.647  14.309  0.0067 -0.7128 -0.6934
17906TIP3    H275134   2.391   3.539  14.300  1.2732  0.3917  0.5917
17907TIP3   OH275135   1.434   2.564  13.704 -0.0795 -0.2798  0.0592
17907TIP3    H175136   1.484   2.645  13.717 -1.1900  0.3596  0.4735
17907TIP3    H275137   1.400   2.571  13.614  0.4202 -0.6341 -0.1615
17908TIP3   OH275138   4.094   5.686  12.294 -0.0700 -0.3199 -0.5159
17908TIP3    H175139   4.004   5.658  12.306  0.4187 -1.5103  0.5901
17908TIP3    H275140   4.121   5.717  12.381  0.1754  1.2694 -1.1477
17909TIP3   OH275141   6.420   3.026  13.345 -0.2820 -0.2215  0.4579
17909TIP3    H175142   6.493   2.986  13.300 -0.2658 -0.4784  0.7127
17909TIP3    H275143   6.420   2.986  13.432 -1.1010 -0.6815  0.2515
17910TIP3   OH275144   0.480   4.809   5.007 -1.0650 -0.1852 -0.2353
17910TIP3    H175145   0.546   4.749   5.041 -1.7442 -0.1267  1.2059
17910TIP3    H275146   0.460   4.774   4.920 -0.7316 -1.4892  0.1897
17911TIP3   OH275147   1.433   1.428   1.911  0.2315  0.3740 -0.4581
17911TIP3    H175148   1.494   1.501   1.910 -0.4460  0.9510 -0.0703
17911TIP3    H275149   1.421   1.408   2.004  1.5670 -1.2170 -0.5911
17912TIP3   OH275150   1.485   5.531   3.123 -0.4721  0.1351  0.1958
17912TIP3    H175151   1.483   5.468   3.195 -2.0783 -0.8738 -0.6875
17912TIP3    H275152   1.404   5.581   3.132  0.5465  1.7415  0.5768
17913TIP3   OH275153   4.475   5.086   5.947 -0.0839  0.0017  0.2594
17913TIP3    H175154   4.426   5.042   6.017 -1.7986  0.0318 -0.8820
17913TIP3    H275155   4.550   5.030   5.931  0.1478 -0.1768  1.8937
17914TIP3   OH275156   4.774   1.448  12.872  0.0471  0.3272  0.3565
17914TIP3    H175157   4.764   1.430  12.779 -1.7268  4.0079 -0.2302
17914TIP3    H275158   4.691   1.421  12.911  0.4944 -0.4603  0.7972
17915TIP3   OH275159   4.738   3.820  16.017  0.3454 -0.0135  0.3759
17915TIP3    H175160   4.738   3.825  15.921 -1.2057  1.8629  0.4507
17915TIP3    H275161   4.647   3.836  16.042  0.2863 -2.7313  2.0884
17916TIP3   OH275162   2.239   4.938  12.618 -0.5662  0.4346 -0.1147
17916TIP3    H175163   2.265   4.868  12.558 -0.8110  1.8239 -1.8966
17916TIP3    H275164   2.179   4.896  12.680  1.1005 -1.4317  0.2992
17917TIP3   OH275165   0.213   3.119  11.997  0.6331  0.3305  0.1904
17917TIP3    H175166   0.275   3.074  11.939  1.9003  1.3832  0.6885
17917TIP3    H275167   0.128   3.080  11.976  1.6276 -2.0635  0.3891
17918TIP3   OH275168   5.198   3.725   5.916 -0.8681 -0.1780  0.0870
17918TIP3    H175169   5.215   3.709   6.008 -0.6437 -1.9906 -0.2576
17918TIP3    H275170   5.104   3.742   5.911 -0.8816 -0.0848  0.6404
17919TIP3   OH275171   4.909   6.629  11.326  0.3283 -0.5293 -0.7753
17919TIP3    H175172   4.897   6.651  11.418 -0.3830 -1.1268 -0.7191
17919TIP3    H275173   4.939   6.538  11.327  1.4025 -0.1802 -1.0841
17920TIP3   OH275174   1.389   6.296  12.597 -0.4601 -0.1808  0.1193
17920TIP3    H175175   1.347   6.252  12.671  0.6971  1.8547  2.0542
17920TIP3    H275176   1.441   6.366  12.637 -1.3748  2.2365 -2.7600
17921TIP3   OH275177   6.257   4.686   0.486 -0.6146 -0.0412  0.2401
17921TIP3    H175178   6.298   4.727   0.410 -0.0560  0.8168  0.9934
17921TIP3    H275179   6.233   4.599   0.456 -0.9405  0.5014 -1.0929
17922TIP3   OH275180   0.125   0.509  16.269 -0.2488  0.1673 -0.1872
17922TIP3    H175181   0.069   0.514  16.192 -0.1958  0.8406 -0.1816
17922TIP3    H275182   0.182   0.586  16.262 -0.2239  0.2096  0.5059
17923TIP3   OH275183   6.628   5.185  16.168 -0.9962 -0.7827  0.1725
17923TIP3    H175184   6.626   5.094  16.198 -2.8824 -1.2957 -1.3935
17923TIP3    H275185   6.586   5.235  16.238 -1.7182 -1.4013  0.1909
17924TIP3   OH275186   3.672   5.702   5.960  0.7562  0.2958  0.1732
17924TIP3    H175187   3.710   5.645   6.027  0.2659  0.4759  0.6097
17924TIP3    H275188   3.734   5.700   5.888  1.1728 -0.0894  0.5442
17925TIP3   OH275189   4.146   1.806  10.676  0.1867 -0.4745 -0.5011
17925TIP3    H175190   4.068   1.857  10.657 -0.2754 -1.0399 -0.1472
17925TIP3    H275191   4.115   1.735  10.732  0.9631 -0.6701 -0.3112
17926TIP3   OH275192   6.427   1.563  12.616  0.4745 -0.0677  0.2568
17926TIP3    H175193   6.477   1.641  12.593  1.8147 -0.5160  1.5456
17926TIP3    H275194   6.492   1.504  12.654 -0.7049 -1.4274  0.2001
17927TIP3   OH275195   5.929   2.085   4.622  0.2966  0.1371  0.1477
17927TIP3    H175196   6.016   2.080   4.662  0.1855  0.1155  0.3856
17927TIP3    H275197   5.929   2.017   4.555 -0.4729 -1.6827  1.9427
17928TIP3   OH275198   4.541   4.264  17.183 -0.5829  0.3521 -0.0780
17928TIP3    H175199   4.620   4.226  17.145 -1.7928 -3.0261  0.5936
17928TIP3    H275200   4.570   4.305  17.264  0.7736  0.8712 -0.8142
17929TIP3   OH275201   1.911   2.768   5.998 -0.3118 -0.1197 -0.1132
17929TIP3    H175202   1.934   2.688   5.951 -0.1366  0.5299 -1.1582
17929TIP3    H275203   1.908   2.742   6.090  0.0254 -1.2580 -0.4154
17930TIP3   OH275204   5.510   2.837   6.396  0.1289 -0.0718 -0.0951
17930TIP3    H175205   5.515   2.754   6.348  1.6759 -0.7777  1.2300
17930TIP3    H275206   5.416   2.853   6.407 -0.1834 -1.5020 -0.5940
17931TIP3   OH275207   6.006   5.330  14.250  0.4142  0.2165 -0.1857
17931TIP3    H175208   6.079   5.284  14.208  0.6949  0.9314 -0.4904
17931TIP3    H275209   5.939   5.336  14.182  0.8733  1.3856 -0.5501
17932TIP3   OH275210   4.841   6.016   1.677 -0.2047  0.0360 -0.1693
17932TIP3    H175211   4.865   6.038   1.587 -0.2694  0.9284  0.0259
17932TIP3    H275212   4.805   6.097   1.713  1.4549  0.1982  1.2157
17933TIP3   OH275213   1.398   4.519  14.236 -0.3474 -0.1778 -0.0628
17933TIP3    H175214   1.395   4.528  14.141  1.6871  1.1858 -0.0327
17933TIP3    H275215   1.401   4.425  14.251 -2.4637 -0.4743 -1.2551
17934TIP3   OH275216   5.734   1.430   0.647 -0.0051  0.2277 -0.3692
17934TIP3    H175217   5.823   1.397   0.631  0.2041 -1.4034  3.6301
17934TIP3    H275218   5.678   1.379   0.589  1.4447 -0.0328 -1.5715
17935TIP3   OH275219   0.310   3.711   0.118 -0.0332  0.3028 -0.0605
17935TIP3    H175220   0.343   3.697   0.207 -0.1848 -1.9356 -0.3175
17935TIP3    H275221   0.369   3.775   0.080 -0.6340  2.1657  2.0210
17936TIP3   OH275222   4.102   1.989   2.303  0.2866  0.2615 -0.3515
17936TIP3    H175223   4.164   2.030   2.243 -0.4900 -0.1355 -1.4535
17936TIP3    H275224   4.141   2.000   2.390  0.0313  3.4649 -0.5885
17937TIP3   OH275225   5.385   4.243   4.383  0.1226  0.0328  0.1988
17937TIP3    H175226   5.351   4.168   4.431  0.9943 -0.9931 -0.7669
17937TIP3    H275227   5.334   4.246   4.303 -0.0179  0.5850  0.3012
17938TIP3   OH275228   3.580   4.213   5.896  0.0009  0.1927  0.2615
17938TIP3    H175229   3.536   4.273   5.955  0.3084  0.1267  0.5641
17938TIP3    H275230   3.667   4.252   5.881  0.6835 -0.8191  1.5004
17939TIP3   OH275231   6.596   3.314  11.131  0.1676  0.3878  0.0940
17939TIP3    H175232   6.650   3.388  11.159  1.1874 -0.7993  1.3463
17939TIP3    H275233   6.582   3.263  11.211  1.8870 -2.3107 -1.2463
17940TIP3   OH275234   1.628   4.786  15.695  0.2364 -0.1471  0.4927
17940TIP3    H175235   1.657   4.867  15.736 -0.0240 -0.7119  1.8368
17940TIP3    H275236   1.667   4.717  15.749 -0.2325 -0.9125 -0.1383
17941TIP3   OH275237   3.372   0.837   1.811 -0.0265 -0.6064  0.4489
17941TIP3    H175238   3.388   0.916   1.760  1.4197 -1.4617 -0.4270
17941TIP3    H275239   3.298   0.795   1.767 -1.0977  0.4335  1.1733
17942TIP3   OH275240   6.137   5.937  15.777  0.3023 -0.4197 -0.3554
17942TIP3    H175241   6.103   5.859  15.734 -0.5322 -0.7811  0.9288
17942TIP3    H275242   6.232   5.930  15.769  0.2087 -1.3052 -0.6918
17943TIP3   OH275243   2.181   2.535  12.274  0.0853  0.1456  0.1881
17943TIP3    H175244   2.215   2.597  12.210  3.8825 -2.0091 -0.0172
17943TIP3    H275245   2.123   2.478  12.224  1.3641 -0.2058 -0.9316
17944TIP3   OH275246   1.839   2.836  17.238  0.0676 -0.1656 -0.2716
17944TIP3    H175247   1.849   2.813  17.330  1.3005 -2.3459 -0.9260
17944TIP3    H275248   1.924   2.817  17.199  0.7033  4.0257 -1.2269
17945TIP3   OH275249   4.991   1.651   3.528  0.1511 -0.0612 -0.1106
17945TIP3    H175250   4.981   1.561   3.497 -2.2768  0.5686 -1.3350
17945TIP3    H275251   4.964   1.648   3.619 -0.9199 -0.4037 -0.4288
17946TIP3   OH275252   0.890   6.237  11.562  0.2119  0.0558  0.2602
17946TIP3    H175253   0.913   6.155  11.518 -0.2348 -0.6245  1.2508
17946TIP3    H275254   0.973   6.282  11.574  0.3165  0.3070 -1.3834
17947TIP3   OH275255   0.407   2.573   5.734  0.3906 -0.7223  0.3104
17947TIP3    H175256   0.394   2.644   5.671 -0.1777 -2.0019 -1.0188
17947TIP3    H275257   0.490   2.533   5.709 -0.2010 -1.7020 -0.0771
17948TIP3   OH275258   0.677   5.862  15.754 -0.0967  0.3146  0.7818
17948TIP3    H175259   0.734   5.936  15.774  0.5460  0.4623 -1.4456
17948TIP3    H275260   0.589   5.899  15.755  0.1862  1.0384  0.1708
17949TIP3   OH275261   3.138   5.966  16.957  0.2928  0.2048  0.1114
17949TIP3    H175262   3.231   5.960  16.934  0.0650 -2.4127 -0.2882
17949TIP3    H275263   3.127   5.907  17.031 -1.1153  0.3008 -0.0055
17950TIP3   OH275264   4.757   1.343   4.724  0.1778 -0.2816  0.6925
17950TIP3    H175265   4.752   1.251   4.696 -0.8502 -0.2831  0.8550
17950TIP3    H275266   4.850   1.358   4.738  0.8582 -0.1134 -3.3058
17951TIP3   OH275267   4.695   0.265   0.912  0.1341  0.0811  0.7077
17951TIP3    H175268   4.703   0.173   0.936 -1.9498 -0.5151 -0.7510
17951TIP3    H275269   4.750   0.275   0.835 -1.9234 -0.6624 -0.8875
17952TIP3   OH275270   0.294   2.012  13.091 -0.4062  1.1247 -0.0234
17952TIP3    H175271   0.377   1.964  13.084  0.1725  1.9997  0.8852
17952TIP3    H275272   0.294   2.070  13.015 -0.5734  0.5345 -0.4807
17953TIP3   OH275273   0.025   3.195   2.311 -0.3869  0.1604 -0.3176
17953TIP3    H175274  -0.020   3.135   2.371  0.6013  1.1602  1.4478
17953TIP3    H275275   0.084   3.138   2.260 -0.6475 -0.5808  0.1952
17954TIP3   OH275276   2.497   4.818  12.717  0.3582  0.2523  0.2206
17954TIP3    H175277   2.454   4.838  12.800  0.5269  0.4676  0.2548
17954TIP3    H275278   2.451   4.872  12.653 -0.4021 -0.6266  0.0186
17955TIP3   OH275279   3.307   0.459   2.610 -0.0126 -0.3111 -0.1614
17955TIP3    H175280   3.398   0.465   2.638 -0.0948 -1.5479  0.3751
17955TIP3    H275281   3.302   0.378   2.560 -0.9827 -0.6467  0.4568
17956TIP3   OH275282   1.223   4.263  15.835  0.4053 -0.1164 -0.2945
17956TIP3    H175283   1.249   4.215  15.913  0.5691  0.9385  0.3071
17956TIP3    H275284   1.155   4.323  15.865 -0.6538 -0.8012 -1.2806
17957TIP3   OH275285   1.191   0.921  12.789 -0.1298  0.0664  0.2481
17957TIP3    H175286   1.235   1.003  12.767  1.7135 -1.0092 -0.0986
17957TIP3    H275287   1.238   0.854  12.740 -0.9752 -1.3497  1.3388
17958TIP3   OH275288   3.196   5.202  15.288 -0.6099 -0.0574  0.1116
17958TIP3    H175289   3.187   5.289  15.250  0.1230 -1.5735 -3.8100
17958TIP3    H275290   3.287   5.198  15.317 -1.0482  0.9484  1.7203
17959TIP3   OH275291   5.359   0.628  14.071  0.0764  0.0291  0.0719
17959TIP3    H175292   5.379   0.696  14.134  0.2286  0.1703 -0.1276
17959TIP3    H275293   5.442   0.582  14.058 -0.2992 -0.9759  1.1226
17960TIP3   OH275294   5.418   1.434   5.593  0.0207  0.3403 -0.0947
17960TIP3    H175295   5.351   1.467   5.653 -0.2338  0.0373 -0.2079
17960TIP3    H275296   5.500   1.442   5.641 -0.0420  1.1188 -0.1155
17961TIP3   OH275297   6.639   3.382  16.896  0.0293  0.9967 -0.5928
17961TIP3    H175298   6.704   3.316  16.874  0.8283  2.2975 -2.2970
17961TIP3    H275299   6.563   3.360  16.842 -0.0482  0.9280 -0.4592
17962TIP3   OH275300   4.575   1.200   5.307 -0.5483 -0.0160  0.1081
17962TIP3    H175301   4.541   1.224   5.221 -0.1118  0.4013  0.0448
17962TIP3    H275302   4.589   1.285   5.351 -0.5624 -0.2187  0.5057
17963TIP3   OH275303   0.175   4.046  14.901  0.1698 -0.7923  0.1297
17963TIP3    H175304   0.099   3.987  14.903 -0.3676 -0.1030  0.2009
17963TIP3    H275305   0.141   4.130  14.931  0.9937 -0.5071  0.2730
17964TIP3   OH275306   2.064   1.955  12.523 -0.3858  0.0883 -0.3535
17964TIP3    H175307   2.085   1.922  12.610 -0.0841  0.1616 -0.3979
17964TIP3    H275308   1.976   1.922  12.505 -0.4980  0.1784  0.0302
17965TIP3   OH275309   0.045   3.947   5.875  0.2526 -0.1658 -0.0068
17965TIP3    H175310  -0.044   3.913   5.863  0.4016 -0.0365 -1.5893
17965TIP3    H275311   0.091   3.878   5.922 -0.9127  0.1189  1.5904
17966TIP3   OH275312   2.904   3.989   3.142  0.0364  0.2512 -0.4584
17966TIP3    H175313   2.955   3.959   3.067 -0.7091 -1.0428 -0.4697
17966TIP3    H275314   2.876   4.077   3.118 -0.3095 -0.1957 -1.7728
17967TIP3   OH275315   0.880   5.977   0.484 -0.1581 -0.2665 -0.7001
17967TIP3    H175316   0.966   6.017   0.476 -0.1828 -0.1537 -0.4186
17967TIP3    H275317   0.883   5.930   0.568 -0.9696  1.2311  0.1971
17968TIP3   OH275318   3.329   0.979   1.166  0.0030 -0.2341 -0.6068
17968TIP3    H175319   3.273   0.906   1.137 -0.1060 -0.7501  0.8591
17968TIP3    H275320   3.363   1.016   1.085 -0.7820 -1.2606 -1.4282
17969TIP3   OH275321   1.258   3.167  15.437  0.3515 -0.0325  1.1746
17969TIP3    H175322   1.254   3.198  15.347 -0.9690 -0.5020  1.0532
17969TIP3    H275323   1.278   3.074  15.430  1.3511  0.1596  1.4170
17970TIP3   OH275324   5.041   3.131  14.581  0.1498 -0.0389 -0.0604
17970TIP3    H175325   5.113   3.079  14.546  0.2100 -0.7900  1.1791
17970TIP3    H275326   5.080   3.217  14.600  0.1368  0.3529 -1.7311
17971TIP3   OH275327   5.220   4.317   2.872  0.4359  0.3422  0.1038
17971TIP3    H175328   5.216   4.256   2.798 -0.8803  0.6813 -0.1171
17971TIP3    H275329   5.227   4.403   2.832  0.0644  0.5011  0.3777
17972TIP3   OH275330   4.729   4.911   3.283  0.0976  0.0559 -0.2123
17972TIP3    H175331   4.800   4.922   3.346 -1.7289  1.8831  1.6021
17972TIP3    H275332   4.770   4.928   3.198  1.6259  2.1080  0.8725
17973TIP3   OH275333   0.245   1.472  16.105 -0.2305 -0.0647 -0.0705
17973TIP3    H175334   0.334   1.440  16.089 -0.1670  0.0762 -0.0005
17973TIP3    H275335   0.192   1.429  16.039 -0.3913 -1.4939  0.9593
17974TIP3   OH275336   4.168   4.070  16.778 -0.2971  0.0284  0.0566
17974TIP3    H175337   4.109   4.012  16.730 -2.0088  2.5941 -1.0740
17974TIP3    H275338   4.168   4.151  16.727  2.7628  0.7313  1.0705
17975TIP3   OH275339   4.074   4.565  14.352 -0.3518  0.1484 -0.4878
17975TIP3    H175340   4.153   4.586  14.303 -0.7727 -0.3566 -1.3782
17975TIP3    H275341   4.002   4.590  14.295 -0.8442 -1.0557 -0.4188
17976TIP3   OH275342   5.820   6.092   2.232  0.4812 -0.1237  0.5150
17976TIP3    H175343   5.853   6.060   2.148 -1.3087  0.3835 -0.4338
17976TIP3    H275344   5.883   6.158   2.260  0.9109 -0.0464 -0.6188
17977TIP3   OH275345   4.095   3.380  12.080 -0.0945  0.3254 -0.1656
17977TIP3    H175346   4.181   3.386  12.122  0.0728 -0.2054 -0.4284
17977TIP3    H275347   4.115   3.356  11.989 -0.5054  0.4399 -0.2838
17978TIP3   OH275348   4.562   0.770   1.724  0.6333 -0.2144  0.0597
17978TIP3    H175349   4.522   0.723   1.798 -0.1639 -2.4690 -1.7274
17978TIP3    H275350   4.641   0.808   1.760 -1.6174  1.9272  3.0045
17979TIP3   OH275351   0.807   3.058   6.459  0.3566  0.0294 -0.0350
17979TIP3    H175352   0.858   3.104   6.392  0.0726 -0.8631 -0.8643
17979TIP3    H275353   0.821   3.110   6.539 -1.2816  2.5188 -1.3064
17980TIP3   OH275354   4.373   3.176   2.044  0.0042 -0.4526 -0.2101
17980TIP3    H175355   4.353   3.196   2.135  0.0396 -0.5533 -0.1801
17980TIP3    H275356   4.364   3.081   2.037  2.0804 -0.6967  0.2017
17981TIP3   OH275357   6.063   5.591   1.164 -0.0826 -0.1746 -0.2916
17981TIP3    H175358   6.156   5.584   1.144 -0.5619 -0.9493 -2.3559
17981TIP3    H275359   6.056   5.563   1.255  1.6505 -0.4203 -0.2171
17982TIP3   OH275360   2.943   3.043   4.175  0.0139  0.4315 -0.5566
17982TIP3    H175361   2.928   2.956   4.138 -1.1456  0.1988  0.4400
17982TIP3    H275362   2.857   3.073   4.203  0.5341  1.5526 -0.1218
17983TIP3   OH275363   0.001   2.253  12.345  0.0821 -0.5838  0.3758
17983TIP3    H175364   0.090   2.264  12.377 -0.1600  0.4694  0.7094
17983TIP3    H275365  -0.034   2.179  12.395  0.7685 -1.0189  0.2186
17984TIP3   OH275366   3.047   4.059  14.162 -0.2856 -0.3756  0.4185
17984TIP3    H175367   3.003   4.074  14.078 -1.4252  2.4972  1.4706
17984TIP3    H275368   3.015   3.973  14.190 -1.6406 -0.3743 -1.0247
17985TIP3   OH275369   2.762   5.093  13.472  0.2696 -0.5341 -0.7595
17985TIP3    H175370   2.697   5.150  13.432 -0.8273 -0.8855  0.4800
17985TIP3    H275371   2.829   5.152  13.507 -1.3007  0.0864  1.3065
17986TIP3   OH275372   0.877   0.983   1.996 -0.0429 -0.1814 -0.1499
17986TIP3    H175373   0.791   1.024   2.003 -0.2201 -0.5304 -0.2769
17986TIP3    H275374   0.858   0.890   1.982  0.3487 -0.1422 -0.9799
17987TIP3   OH275375   6.448   0.723  14.251 -0.1778  0.0397  0.1087
17987TIP3    H175376   6.468   0.788  14.184 -0.8529  0.0655 -0.0713
17987TIP3    H275377   6.486   0.642  14.217 -0.4568  0.0669 -0.2672
17988TIP3   OH275378   0.296   4.955  14.974 -0.2195 -0.4588 -0.0384
17988TIP3    H175379   0.201   4.942  14.976 -0.3942  0.5207 -1.0774
17988TIP3    H275380   0.307   5.049  14.983  0.7158 -0.6962  1.3334
17989TIP3   OH275381   3.339   4.227   3.041 -0.0049  0.1150  0.3754
17989TIP3    H175382   3.375   4.286   3.107 -3.2472 -0.0879  2.4116
17989TIP3    H275383   3.362   4.140   3.071  1.1273  0.1269 -0.4088
17990TIP3   OH275384   6.202   1.362  10.617  0.4479  0.3974 -0.6746
17990TIP3    H175385   6.297   1.370  10.619  0.6606 -1.8014 -1.0642
17990TIP3    H275386   6.178   1.378  10.526  0.4983  0.4997 -0.6698
17991TIP3   OH275387   0.031   3.645  13.840 -0.2390  0.2277 -0.1283
17991TIP3    H175388   0.087   3.705  13.791 -1.7323 -0.2811 -2.5591
17991TIP3    H275389   0.085   3.616  13.914  1.6483  1.9662 -0.7769
17992TIP3   OH275390   6.695   0.436   2.807  0.3557  0.4696 -0.1448
17992TIP3    H175391   6.752   0.364   2.833  0.9316  1.1248  0.4364
17992TIP3    H275392   6.680   0.485   2.887  2.0824  2.4709 -0.9997
17993TIP3   OH275393   3.660   0.216  12.873 -0.1255  0.0286  0.1765
17993TIP3    H175394   3.676   0.232  12.966  1.0386  0.3724 -0.0708
17993TIP3    H275395   3.683   0.124  12.860 -0.3276 -0.0303  0.2405
17994TIP3   OH275396   5.144   4.980  12.307  0.3402 -0.2094 -0.1316
17994TIP3    H175397   5.054   4.959  12.281  0.5220 -1.2728  0.0607
17994TIP3    H275398   5.181   4.896  12.335  1.2661  0.2926  0.1768
17995TIP3   OH275399   4.850   5.091  16.417  0.3862  0.0719 -0.1690
17995TIP3    H175400   4.841   5.161  16.352 -0.8846 -0.0441 -0.1280
17995TIP3    H275401   4.762   5.054  16.425  0.6098 -0.1740  1.3349
17996TIP3   OH275402   2.807   4.742  13.708 -0.0550  0.6469 -0.6832
17996TIP3    H175403   2.735   4.704  13.658  1.8580 -2.5151 -1.1743
17996TIP3    H275404   2.866   4.778  13.642 -0.2332  1.5479 -0.3673
17997TIP3   OH275405   1.981   3.633   2.525  0.0563 -0.6882  0.1318
17997TIP3    H175406   1.905   3.685   2.497  0.6274  0.9507  1.5275
17997TIP3    H275407   1.948   3.579   2.596  0.0057 -0.5969  0.1773
17998TIP3   OH275408   0.022   3.014  14.746  0.2696  0.1803 -0.2881
17998TIP3    H175409   0.026   3.062  14.828  0.7813  0.1175 -0.2768
17998TIP3    H275410  -0.050   3.055  14.698 -0.6412 -0.3901  0.5700
17999TIP3   OH275411   2.358   3.524  17.122 -0.3903 -0.3888  0.3097
17999TIP3    H175412   2.284   3.471  17.094  1.2663 -3.2527  1.1620
17999TIP3    H275413   2.361   3.512  17.217  1.0495 -0.1694  0.3005
18000TIP3   OH275414   4.151   3.024  10.830 -0.1725 -0.0782  0.0461
18000TIP3    H175415   4.209   2.979  10.768 -0.1139  0.2566 -0.1426
18000TIP3    H275416   4.071   2.970  10.830  0.0470 -0.4051  0.1239
18001TIP3   OH275417   6.580   2.548  15.760  0.1586  0.2645  0.1466
18001TIP3    H175418   6.670   2.545  15.793 -0.6446 -2.7509  2.3002
18001TIP3    H275419   6.530   2.495  15.823 -2.5998 -0.4875 -2.5754
18002TIP3   OH275420   3.061   6.232   5.133 -0.2188  0.2645 -0.1451
18002TIP3    H175421   3.082   6.324   5.118  1.3864  0.1301  1.1738
18002TIP3    H275422   3.018   6.231   5.219  3.5638 -0.6867  1.8244
18003TIP3   OH275423   5.854   1.356   1.991  0.2669 -0.3363 -0.5056
18003TIP3    H175424   5.785   1.306   2.034 -0.3526 -0.4001 -1.5527
18003TIP3    H275425   5.835   1.447   2.013  0.5194 -0.4436  0.1586
18004TIP3   OH275426   6.690   3.664  16.893  0.3073  0.0415  0.2794
18004TIP3    H175427   6.753   3.658  16.821  0.6206  0.3390  0.5300
18004TIP3    H275428   6.653   3.576  16.900  0.8067 -0.1687  0.2330
18005TIP3   OH275429   2.084   3.674   0.136  0.0359  0.2974 -0.1399
18005TIP3    H175430   2.104   3.581   0.143  1.7141  0.5976 -0.5021
18005TIP3    H275431   2.090   3.693   0.042 -0.4492  0.7251 -0.0855
18006TIP3   OH275432   3.735   4.950   4.045  0.2529  0.3515  0.0941
18006TIP3    H175433   3.763   4.995   3.966  2.0246 -1.5606 -0.4040
18006TIP3    H275434   3.707   4.864   4.015 -1.6749  0.5514  1.2237
18007TIP3   OH275435   4.930   4.381  16.431 -0.5345  0.0304 -0.8411
18007TIP3    H175436   4.973   4.296  16.446 -0.1831  0.6046  1.5492
18007TIP3    H275437   4.858   4.382  16.494  0.6020  2.2861  0.4615
18008TIP3   OH275438   4.952   5.808  14.715  0.0025 -0.3463  0.9121
18008TIP3    H175439   5.041   5.833  14.693 -0.6489  1.3161  0.0845
18008TIP3    H275440   4.920   5.762  14.637  0.2213 -1.1904  1.3160
18009TIP3   OH275441   5.475   2.958  15.757 -0.2515  0.0456  0.7174
18009TIP3    H175442   5.450   3.020  15.825 -0.4061 -0.3403  1.0161
18009TIP3    H275443   5.396   2.906  15.742 -0.6817  1.1284 -0.8547
18010TIP3   OH275444   2.005   2.875  12.014 -0.8076  0.2143 -0.5053
18010TIP3    H175445   2.007   2.914  12.102 -0.8430  0.1277 -0.4654
18010TIP3    H275446   1.912   2.875  11.990 -0.9322 -0.8643 -0.0397
18011TIP3   OH275447   0.451   6.467  13.924  0.7574  0.6137  0.3565
18011TIP3    H175448   0.468   6.437  13.834  1.1445  0.0508  0.6103
18011TIP3    H275449   0.427   6.559  13.915  0.6647  0.5265 -0.3378
18012TIP3   OH275450   0.954   2.957  12.644  0.9098 -0.4264 -0.3489
18012TIP3    H175451   0.917   2.878  12.683 -3.0836 -0.1095 -3.1330
18012TIP3    H275452   0.951   3.022  12.713  0.4701 -1.6881  0.8399
18013TIP3   OH275453   3.047   6.128   4.766 -0.1775 -0.1269  0.1540
18013TIP3    H175454   3.078   6.071   4.695 -1.1722  2.5353 -2.4958
18013TIP3    H275455   3.013   6.067   4.832 -1.1019 -2.6149 -2.5262
18014TIP3   OH275456   2.395   1.009  16.304 -0.4026 -0.1675  0.3988
18014TIP3    H175457   2.457   1.004  16.232 -0.1780  1.6905  0.4560
18014TIP3    H275458   2.337   1.081  16.281 -2.1214 -1.4193  0.6850
18015TIP3   OH275459   2.135   6.457   1.819  0.4044  0.2423 -0.8315
18015TIP3    H175460   2.074   6.479   1.749  0.0368 -0.9489 -0.8961
18015TIP3    H275461   2.130   6.531   1.880 -2.1698 -0.4738 -0.1198
18016TIP3   OH275462   2.132   5.391  10.555  0.3047  0.3915 -0.5547
18016TIP3    H175463   2.161   5.418  10.642 -1.3516  2.7702 -0.7131
18016TIP3    H275464   2.180   5.310  10.539  0.2276 -0.4115  2.7967
18017TIP3   OH275465   4.767   0.266   5.144 -0.2230  0.2943 -0.0460
18017TIP3    H175466   4.760   0.318   5.225 -2.2553 -1.5226  0.9937
18017TIP3    H275467   4.682   0.277   5.102  0.7685  1.0999 -1.9233
18018TIP3   OH275468   4.198   4.042  15.875  0.5037  0.1989 -0.4206
18018TIP3    H175469   4.172   4.112  15.934  0.9981  0.4909 -0.5513
18018TIP3    H275470   4.164   4.069  15.789 -0.0817 -0.1515 -0.3034
18019TIP3   OH275471   1.756   2.146   3.784 -0.4438 -0.0481 -0.5543
18019TIP3    H175472   1.773   2.223   3.729  1.5168 -0.7626 -0.9913
18019TIP3    H275473   1.832   2.141   3.842 -0.6982 -1.4827 -0.3261
18020TIP3   OH275474   2.415   0.058   5.898  0.2945  0.1015  0.2525
18020TIP3    H175475   2.343   0.001   5.926 -0.6463  0.5420 -1.2465
18020TIP3    H275476   2.467   0.005   5.838 -0.7088  0.8778 -1.3198
18021TIP3   OH275477   3.437   4.635   1.417 -0.4959 -0.0011 -0.0267
18021TIP3    H175478   3.437   4.573   1.490 -2.0695 -0.7445 -0.6422
18021TIP3    H275479   3.440   4.581   1.338  0.8707  0.7944 -0.5306
18022TIP3   OH275480   2.817   2.285  15.985 -0.3575  0.4538 -0.7763
18022TIP3    H175481   2.836   2.350  15.917 -0.4152  0.9830 -0.2911
18022TIP3    H275482   2.871   2.209  15.962 -1.6059 -0.0019 -2.3537
18023TIP3   OH275483   2.354   0.715   5.551 -0.0998  0.3216  0.0144
18023TIP3    H175484   2.282   0.699   5.612 -0.3444  1.0130 -0.0835
18023TIP3    H275485   2.391   0.629   5.534 -1.6222 -0.1966 -0.8115
18024TIP3   OH275486   6.264   2.752   0.946 -0.1058  0.0688  0.6286
18024TIP3    H175487   6.244   2.705   0.864 -0.3544  1.1275  0.0762
18024TIP3    H275488   6.288   2.683   1.007  0.3597 -0.7201 -0.4243
18025TIP3   OH275489   0.455   2.473   3.217 -0.2081  0.5045  0.1939
18025TIP3    H175490   0.371   2.496   3.177  0.6019  1.4000 -1.0224
18025TIP3    H275491   0.498   2.557   3.232 -0.2666  0.1571  2.4857
18026TIP3   OH275492   3.160   4.719   1.659 -0.4373  0.2617  0.1905
18026TIP3    H175493   3.145   4.801   1.706 -0.9810  0.4740 -0.3433
18026TIP3    H275494   3.211   4.665   1.719 -0.5075  0.8074  0.7362
18027TIP3   OH275495   0.143   4.123   4.062  0.3642 -0.0618  0.0700
18027TIP3    H175496   0.125   4.175   4.141 -0.2910 -1.4238  0.8458
18027TIP3    H275497   0.230   4.086   4.078  0.2737 -0.2550  0.1258
18028TIP3   OH275498   0.279   1.521   5.476 -0.0514  0.0859  0.0727
18028TIP3    H175499   0.374   1.518   5.485 -0.0219  1.0815  0.1749
18028TIP3    H275500   0.261   1.481   5.391  0.3297 -1.5447  0.7425
18029TIP3   OH275501   5.900   0.367  10.781 -0.0122  0.4630 -0.0324
18029TIP3    H175502   5.903   0.273  10.798 -3.4159 -0.2261 -2.6733
18029TIP3    H275503   5.818   0.381  10.733  0.7742  4.6703 -0.4162
18030TIP3   OH275504   4.046   5.766  15.620  0.2413 -0.4494 -0.4983
18030TIP3    H175505   4.047   5.672  15.600  0.1854 -0.5332 -0.1022
18030TIP3    H275506   4.091   5.773  15.704  0.7706 -0.0552 -0.8178
18031TIP3   OH275507   2.461   2.461   6.135  0.1502  0.1521 -0.3760
18031TIP3    H175508   2.555   2.474   6.131  0.2469  0.1064  1.2614
18031TIP3    H275509   2.450   2.371   6.166 -0.4508 -0.4273 -2.2100
18032TIP3   OH275510   5.166   1.644   6.504 -0.9579 -0.2351 -0.2514
18032TIP3    H175511   5.188   1.560   6.464  0.7789 -0.6340  1.4446
18032TIP3    H275512   5.124   1.621   6.587 -0.8486  0.5645  0.0322
18033TIP3   OH275513   5.074   4.205  15.348  0.5796 -0.5685  0.4512
18033TIP3    H175514   5.117   4.281  15.309  0.7067 -0.3453  1.0155
18033TIP3    H275515   5.009   4.242  15.408  0.9285 -0.9038  1.0407
18034TIP3   OH275516   4.463   6.501   5.169  0.2830 -0.4339  0.8482
18034TIP3    H175517   4.494   6.494   5.078  0.8351 -1.1435  1.0865
18034TIP3    H275518   4.461   6.410   5.200  0.2445 -0.1735  1.5943
18035TIP3   OH275519   1.714   2.820   1.497  0.1167  0.5348  0.7242
18035TIP3    H175520   1.675   2.783   1.576 -0.3345 -0.2758  0.1285
18035TIP3    H275521   1.805   2.791   1.500  0.0625  0.3758  0.8694
18036TIP3   OH275522   2.708   1.937  14.303  0.9275  0.3074  0.4634
18036TIP3    H175523   2.750   1.852  14.298 -0.1675 -0.2594  0.7530
18036TIP3    H275524   2.724   1.967  14.392  3.0279  1.3185 -0.2160
18037TIP3   OH275525   0.240   5.092  11.751  0.4384 -0.3695  0.7108
18037TIP3    H175526   0.151   5.107  11.783  0.2779 -0.1199  0.1644
18037TIP3    H275527   0.297   5.123  11.820  0.1017 -1.9527  1.7312
18038TIP3   OH275528   3.947   5.721   5.452  0.0668  0.7514  0.2174
18038TIP3    H175529   4.028   5.707   5.501  0.6641  1.2413 -0.6051
18038TIP3    H275530   3.972   5.707   5.361 -0.5108  2.0089 -0.1474
18039TIP3   OH275531   4.596   0.914   0.578  0.0612 -0.4249  0.4182
18039TIP3    H175532   4.551   0.859   0.642 -0.3239 -1.5650 -0.8104
18039TIP3    H275533   4.680   0.871   0.564  0.3908  0.1563  0.6184
18040TIP3   OH275534   3.355   3.712   3.200  0.1447 -0.5968  0.2332
18040TIP3    H175535   3.278   3.721   3.257  0.1645 -1.1161  0.3396
18040TIP3    H275536   3.336   3.635   3.146 -0.1287  0.2193 -0.8563
18041TIP3   OH275537   0.966   3.678   0.561 -0.1662  0.3511  0.2885
18041TIP3    H175538   1.052   3.688   0.521 -0.3068  0.0901 -0.0791
18041TIP3    H275539   0.933   3.595   0.528 -1.4459  1.4275 -1.2413
18042TIP3   OH275540   5.643   3.004  13.449 -0.1931 -0.6238  0.3553
18042TIP3    H175541   5.664   3.006  13.543  0.9841 -0.3389  0.0866
18042TIP3    H275542   5.726   2.984  13.406 -0.8477 -1.3523 -0.5937
18043TIP3   OH275543   2.355   3.187  14.037  0.0800 -0.0189 -0.0436
18043TIP3    H175544   2.382   3.133  14.112 -0.0443 -0.1207 -0.0716
18043TIP3    H275545   2.312   3.125  13.978 -2.5311  0.5494  1.1550
18044TIP3   OH275546   4.106   5.968   2.576 -0.0991 -0.6142  0.4790
18044TIP3    H175547   4.157   5.891   2.552 -1.0853 -1.3618  0.7683
18044TIP3    H275548   4.038   5.974   2.508  0.4004  0.4191  0.0535
18045TIP3   OH275549   1.611   2.455  15.594  0.3615 -0.0679 -0.0635
18045TIP3    H175550   1.546   2.517  15.627 -0.8152 -0.2153 -1.9772
18045TIP3    H275551   1.676   2.510  15.550  0.2418 -0.0755 -0.2511
18046TIP3   OH275552   2.431   5.256   0.317 -0.1460  0.2837 -0.0234
18046TIP3    H175553   2.486   5.278   0.242  0.1226  0.1627  0.1372
18046TIP3    H275554   2.365   5.196   0.281  0.5108 -0.4743  0.0167
18047TIP3   OH275555   1.093   1.520  12.821 -0.7070  0.0180 -0.2075
18047TIP3    H175556   1.060   1.610  12.808  0.6139  0.7707  1.4812
18047TIP3    H275557   1.144   1.502  12.742 -0.1591  1.1303 -0.1211
18048TIP3   OH275558   2.773   1.730  10.827  0.0514  0.0755 -0.0462
18048TIP3    H175559   2.745   1.644  10.860 -1.1027  0.1684 -0.7693
18048TIP3    H275560   2.729   1.793  10.884  0.3958  0.2014  0.0823
18049TIP3   OH275561   1.840   5.653   3.778 -0.0872  0.0140  0.4936
18049TIP3    H175562   1.763   5.604   3.750 -1.6137  1.1573  2.5595
18049TIP3    H275563   1.905   5.585   3.798 -1.7703 -1.1613  2.1634
18050TIP3   OH275564   0.701   5.654   4.403 -0.3862 -0.3090  0.0389
18050TIP3    H175565   0.617   5.643   4.446 -0.7847  0.2195 -0.5868
18050TIP3    H275566   0.691   5.609   4.319 -0.3546  0.5161 -0.4133
18051TIP3   OH275567   1.057   2.195  14.583  0.1821  0.3402 -0.4623
18051TIP3    H175568   1.098   2.236  14.659 -1.7118 -0.2792  0.9441
18051TIP3    H275569   1.117   2.124  14.559  1.5511  1.4858 -0.5206
18052TIP3   OH275570   2.813   4.220   4.678  0.1943 -0.0411  0.2195
18052TIP3    H175571   2.774   4.220   4.591 -0.7680  0.1634  0.6394
18052TIP3    H275572   2.862   4.138   4.683  3.2299  1.5883 -1.8091
18053TIP3   OH275573   3.170   1.622   1.983 -0.6775 -0.0974  0.1934
18053TIP3    H175574   3.259   1.624   2.019 -0.1242 -2.0532 -0.9854
18053TIP3    H275575   3.114   1.606   2.058  0.2353 -1.6879  0.5623
18054TIP3   OH275576   5.061   1.977  11.873 -1.0273  0.1254  0.1866
18054TIP3    H175577   5.130   1.993  11.936 -0.7405  1.0872 -0.3607
18054TIP3    H275578   5.094   2.014  11.791 -0.6982 -2.5405 -0.9394
18055TIP3   OH275579   0.185   0.392   2.133  0.7430  0.0742  1.0791
18055TIP3    H175580   0.164   0.354   2.048  2.7328  1.6669 -0.1574
18055TIP3    H275581   0.105   0.382   2.184 -0.1121 -1.9440 -0.5755
18056TIP3   OH275582   5.395   3.525  14.606  0.0664 -0.0459 -0.3386
18056TIP3    H175583   5.445   3.584  14.662  1.6862 -2.2247  0.5968
18056TIP3    H275584   5.457   3.456  14.582 -1.3834 -0.6329 -2.5539
18057TIP3   OH275585   2.758   4.211   4.397  0.0683 -0.0431  0.0599
18057TIP3    H175586   2.676   4.249   4.428 -0.1804 -1.3415  1.0459
18057TIP3    H275587   2.756   4.221   4.302 -0.2905  1.7891  0.2479
18058TIP3   OH275588   4.494   2.542   2.968  0.0387  0.5209  0.0771
18058TIP3    H175589   4.492   2.446   2.972 -0.8489  0.4749 -1.2850
18058TIP3    H275590   4.420   2.566   2.913  2.3779  1.7979 -2.6729
18059TIP3   OH275591   4.243   2.391   3.715 -0.0514 -0.5866  0.2934
18059TIP3    H175592   4.200   2.443   3.783  2.6554  0.2716  1.4276
18059TIP3    H275593   4.261   2.454   3.645 -0.4871 -0.9210 -0.1291
18060TIP3   OH275594   3.082   0.668  15.355  0.3709  0.0596 -0.3309
18060TIP3    H175595   3.032   0.609  15.299  0.2747 -1.0252  0.8964
18060TIP3    H275596   3.017   0.705  15.415  0.7927 -0.1708  0.2623
18061TIP3   OH275597   5.678   6.062   6.170 -0.2365 -0.0283 -0.1721
18061TIP3    H175598   5.593   6.103   6.156 -1.2914 -1.8164  0.7112
18061TIP3    H275599   5.716   6.111   6.243 -0.8986  0.2371  0.0036
18062TIP3   OH275600   5.289   0.993   5.043  0.0016 -0.4876  0.2741
18062TIP3    H175601   5.380   1.019   5.030  0.5211 -1.4304  1.9216
18062TIP3    H275602   5.260   0.962   4.957  1.2962 -0.3946 -0.2030
18063TIP3   OH275603   4.689   5.824  13.803 -0.0068 -0.2653  0.2248
18063TIP3    H175604   4.758   5.792  13.744  0.0859  0.9859 -0.3473
18063TIP3    H275605   4.736   5.873  13.870 -0.1828 -1.0269  0.9200
18064TIP3   OH275606   3.234   0.426   3.026 -0.1895 -0.3925  0.3215
18064TIP3    H175607   3.164   0.378   3.069 -1.5949  0.9445 -0.4114
18064TIP3    H275608   3.280   0.360   2.975 -1.3109 -1.1992  0.3256
18065TIP3   OH275609   3.275   6.356   1.487  0.3317 -0.0206 -0.4385
18065TIP3    H175610   3.320   6.284   1.443  0.9261  0.6204 -0.8909
18065TIP3    H275611   3.336   6.430   1.482 -0.9969  1.0381 -1.6089
18066TIP3   OH275612   4.561   4.283   4.500  0.1137  0.6215 -0.6508
18066TIP3    H175613   4.565   4.328   4.585  0.8922 -0.0180 -0.3452
18066TIP3    H275614   4.467   4.268   4.486 -0.0803  1.4281 -0.2752
18067TIP3   OH275615   3.719   0.969  13.108  0.5250 -0.0705 -0.4896
18067TIP3    H175616   3.768   1.049  13.122  0.1073  0.1955 -0.5353
18067TIP3    H275617   3.664   0.987  13.031  0.9229 -0.6323 -0.9144
18068TIP3   OH275618   2.093   2.924   1.776 -0.0198 -0.0320 -0.3862
18068TIP3    H175619   2.135   2.994   1.826  1.2925 -0.4016 -0.9613
18068TIP3    H275620   2.142   2.920   1.694 -2.2675  0.7196 -1.8260
18069TIP3   OH275621   5.788   2.195  11.770  0.1566  0.3627  0.4166
18069TIP3    H175622   5.879   2.226  11.779 -0.4680  2.2578  0.3618
18069TIP3    H275623   5.755   2.242  11.694 -0.5687 -1.0903 -0.1655
18070TIP3   OH275624   5.029   1.527  11.710 -0.1899 -0.0205  0.1503
18070TIP3    H175625   4.983   1.566  11.636  1.3673  0.9003 -0.3486
18070TIP3    H275626   5.107   1.581  11.722  0.6073 -1.3497  1.1923
18071TIP3   OH275627   5.154   2.924   5.425  0.2194  0.3182  0.5355
18071TIP3    H175628   5.106   2.997   5.386 -0.4684  0.2850  1.2861
18071TIP3    H275629   5.118   2.918   5.514 -0.7116 -1.8068  0.0412
18072TIP3   OH275630   6.707   0.532   3.658  0.1198 -0.1315 -0.5914
18072TIP3    H175631   6.640   0.470   3.631 -0.7848  0.8415 -0.6233
18072TIP3    H275632   6.659   0.602   3.704  1.2392 -0.0136  0.4395
18073TIP3   OH275633   3.448   0.044   3.427 -0.2882  0.2206 -0.1742
18073TIP3    H175634   3.501   0.123   3.438  1.3770 -1.1711  2.2984
18073TIP3    H275635   3.506  -0.018   3.382 -0.7358 -0.3702  0.0506
18074TIP3   OH275636   1.544   2.412   0.489  0.0718 -0.1224 -0.3629
18074TIP3    H175637   1.605   2.463   0.436 -1.8760  0.9863 -1.6300
18074TIP3    H275638   1.509   2.474   0.552  0.0343 -0.6657  0.1557
18075TIP3   OH275639   6.188   0.241   4.443 -0.6537  0.4657  0.3192
18075TIP3    H175640   6.208   0.221   4.535 -0.6121 -0.8075  0.0534
18075TIP3    H275641   6.272   0.229   4.398 -0.5843  1.4843  0.1717
18076TIP3   OH275642   3.329   3.744   6.610 -0.6171 -0.1476 -0.3126
18076TIP3    H175643   3.413   3.732   6.654  0.6462  0.4082 -2.5301
18076TIP3    H275644   3.333   3.685   6.535 -2.2498 -0.1428 -0.4296
18077TIP3   OH275645   1.338   6.334  14.485 -0.0108 -0.0383  0.3628
18077TIP3    H175646   1.307   6.333  14.576 -0.2985 -0.1253  0.2628
18077TIP3    H275647   1.259   6.335  14.432  0.1604  0.6325  0.1122
18078TIP3   OH275648   3.190   1.191   0.643  1.1168  0.0449  0.2724
18078TIP3    H175649   3.251   1.155   0.707  0.6734 -1.8145 -0.3264
18078TIP3    H275650   3.232   1.176   0.559 -0.4158 -1.8518 -0.1995
18079TIP3   OH275651   5.499   5.277  13.186  0.1121 -0.0094  0.1799
18079TIP3    H175652   5.577   5.236  13.150 -0.1853  0.6247 -1.2274
18079TIP3    H275653   5.433   5.270  13.117 -0.7132  0.5465  0.8859
18080TIP3   OH275654   3.716   0.190  16.000 -0.3741  0.0769 -0.5209
18080TIP3    H175655   3.654   0.236  16.057 -0.0422  1.5564 -1.3114
18080TIP3    H275656   3.669   0.112  15.971 -1.4365  0.5742 -0.1676
18081TIP3   OH275657   3.503   6.723   5.698 -0.2273 -0.3922 -0.3148
18081TIP3    H175658   3.533   6.792   5.756 -3.2989 -0.1784  1.1144
18081TIP3    H275659   3.478   6.768   5.617 -1.7120  0.1544  0.4225
18082TIP3   OH275660   6.762   2.304   6.007  0.5590 -0.0790 -0.4343
18082TIP3    H175661   6.693   2.295   5.942 -0.0896  0.9248  0.0951
18082TIP3    H275662   6.822   2.369   5.971 -0.0437  0.8251  0.1427
18083TIP3   OH275663   4.875   4.448  12.384 -0.8232 -0.2235 -0.4107
18083TIP3    H175664   4.869   4.488  12.297 -0.7503  3.1596  1.0780
18083TIP3    H275665   4.790   4.406  12.397 -1.6007  1.0443 -1.2787
18084TIP3   OH275666   1.063   6.071   5.296 -0.0243  0.3053 -0.0893
18084TIP3    H175667   1.040   6.144   5.239  1.9322  0.1342 -1.1207
18084TIP3    H275668   0.990   6.009   5.286 -0.3570  0.8858 -1.3183
18085TIP3   OH275669   2.108   1.362  14.449  0.0362  0.6867 -0.6319
18085TIP3    H175670   2.154   1.280  14.465 -1.0709  0.0348 -0.7218
18085TIP3    H275671   2.027   1.354  14.500  0.4862  2.2314  0.3247
18086TIP3   OH275672   2.634   1.307  13.909  0.0403 -0.2072  1.0561
18086TIP3    H175673   2.601   1.217  13.911  0.8091 -0.6670 -3.1418
18086TIP3    H275674   2.729   1.298  13.913  0.0619  0.5616  2.6935
18087TIP3   OH275675   2.542   3.566   6.315 -0.3194 -0.0269 -0.3011
18087TIP3    H175676   2.555   3.472   6.299 -0.4209 -0.3102  1.2503
18087TIP3    H275677   2.628   3.605   6.303  0.5400 -0.8620  2.7365
18088TIP3   OH275678   4.075   0.908  13.446  0.3441 -0.2399  0.0217
18088TIP3    H175679   3.986   0.897  13.481  2.1894 -2.5030  4.2812
18088TIP3    H275680   4.086   0.833  13.386 -0.2914 -0.4548  0.1648
18089TIP3   OH275681   6.437   5.672  11.953  0.3392 -0.6776 -0.1062
18089TIP3    H175682   6.384   5.636  11.881  2.0957 -2.3960 -0.5789
18089TIP3    H275683   6.516   5.704  11.911  1.2169 -1.3421  1.0099
18090TIP3   OH275684   4.560   1.090   2.424  0.2754 -0.3297 -0.3376
18090TIP3    H175685   4.513   1.172   2.408  1.7684  0.3301 -1.5125
18090TIP3    H275686   4.530   1.031   2.355  1.7677  0.3725 -1.6238
18091TIP3   OH275687   6.708   0.082  12.965  0.2759  0.0985 -0.4793
18091TIP3    H175688   6.740   0.162  13.006  0.1304  0.5205 -1.1673
18091TIP3    H275689   6.768   0.013  12.994  1.0703  0.6642 -0.7709
18092TIP3   OH275690   0.457   2.147   4.197 -0.3732  0.1413  0.3799
18092TIP3    H175691   0.503   2.142   4.114 -1.0500  2.4696 -0.1799
18092TIP3    H275692   0.525   2.136   4.264  1.4087  5.3875 -0.3713
18093TIP3   OH275693   6.538   3.093   5.936 -0.3978  0.0945  0.4211
18093TIP3    H175694   6.588   3.171   5.960 -2.7839  1.3429  1.4306
18093TIP3    H275695   6.516   3.106   5.844  2.0683 -1.0255 -0.3835
18094TIP3   OH275696   2.244   3.603   0.480  0.3217 -0.0233  1.0378
18094TIP3    H175697   2.162   3.652   0.470 -0.2931 -0.5946  3.0361
18094TIP3    H275698   2.304   3.664   0.523  0.6083  0.0361  0.5612
18095TIP3   OH275699   2.405   5.842   3.942 -0.0109  0.3079  0.2573
18095TIP3    H175700   2.394   5.779   4.013  1.6230  1.6274  1.6948
18095TIP3    H275701   2.316   5.871   3.923 -0.6119 -1.1611  0.7299
18096TIP3   OH275702   5.529   2.223   3.739  0.0969 -0.1473 -0.5870
18096TIP3    H175703   5.552   2.281   3.666 -0.5533 -0.0710 -0.7347
18096TIP3    H275704   5.613   2.201   3.779  0.4025  0.3952 -0.9140
18097TIP3   OH275705   3.738   2.137   4.579 -0.1138 -0.3295  0.4548
18097TIP3    H175706   3.745   2.156   4.672 -0.1056 -1.0149  0.5976
18097TIP3    H275707   3.746   2.042   4.573 -1.2445 -0.3935 -0.1388
18098TIP3   OH275708   4.235   3.761   1.865  0.0973 -1.0269  0.3054
18098TIP3    H175709   4.308   3.810   1.902 -0.4733  0.9309 -1.0994
18098TIP3    H275710   4.247   3.765   1.771 -0.2187 -3.2538  0.1319
18099TIP3   OH275711   6.733   4.892   4.519  0.0098  0.6404  0.3442
18099TIP3    H175712   6.638   4.881   4.514  0.0794  0.7978 -1.6746
18099TIP3    H275713   6.763   4.878   4.429  1.7448  1.9690  0.7019
18100TIP3   OH275714   6.591   3.535  13.341 -0.3466 -0.2976 -1.1039
18100TIP3    H175715   6.496   3.527  13.356 -0.1565 -0.3184  0.1487
18100TIP3    H275716   6.627   3.450  13.365  0.4262  0.8571  2.2115
18101TIP3   OH275717   5.031   3.285  13.973  0.3281 -0.6756 -0.3202
18101TIP3    H175718   5.073   3.371  13.969  1.5624 -1.2776 -0.7328
18101TIP3    H275719   5.066   3.245  14.053 -1.0169 -0.4068  0.4069
18102TIP3   OH275720   5.172   4.924  14.521  0.3300 -0.1437  0.2253
18102TIP3    H175721   5.086   4.955  14.493 -0.0208 -1.6810 -0.4254
18102TIP3    H275722   5.188   4.847  14.468  1.7306 -0.3734  0.9709
18103TIP3   OH275723   3.914   6.773  13.454 -0.3652 -0.3192  0.3919
18103TIP3    H175724   3.940   6.840  13.517  0.1773  0.0994 -0.2693
18103TIP3    H275725   3.944   6.807  13.370  0.7219 -1.8327  0.1629
18104TIP3   OH275726   2.769   4.037  15.802 -0.7224 -0.3846 -0.3023
18104TIP3    H175727   2.695   4.054  15.861  0.0119 -0.3451  0.6295
18104TIP3    H275728   2.839   4.008  15.861 -0.1607 -0.9154 -1.2368
18105TIP3   OH275729   3.969   0.924   6.742 -0.3262 -0.2498  0.0111
18105TIP3    H175730   3.966   0.969   6.657  1.0299 -1.1163 -0.5010
18105TIP3    H275731   4.054   0.881   6.744 -0.3340 -0.2089  1.8425
18106TIP3   OH275732   4.933   3.540   2.284 -0.1115  0.4838  0.3897
18106TIP3    H175733   4.877   3.520   2.209 -2.2615  1.2512  1.7555
18106TIP3    H275734   4.965   3.629   2.266 -0.2884  0.5052  0.1795
18107TIP3   OH275735   2.533   1.000  15.202  0.0723  0.2715 -0.4996
18107TIP3    H175736   2.493   1.040  15.124 -0.7476 -1.4674 -0.9822
18107TIP3    H275737   2.462   0.997  15.266 -0.2751 -1.7312 -0.9554
18108TIP3   OH275738   5.619   3.039  15.339  0.2291  0.2369 -0.6176
18108TIP3    H175739   5.544   3.050  15.281 -0.2357 -0.3143 -0.1303
18108TIP3    H275740   5.648   2.949  15.325  1.9314  0.9945 -2.1293
18109TIP3   OH275741   3.354   6.097  13.322  0.1858  0.1522  0.3874
18109TIP3    H175742   3.389   6.162  13.261  1.3714 -1.7299 -0.9849
18109TIP3    H275743   3.431   6.057  13.363 -0.5199 -0.4428  1.1678
18110TIP3   OH275744   5.127   1.975  16.189  0.1705  0.5767 -0.5105
18110TIP3    H175745   5.215   1.960  16.222 -0.6214 -0.0741  1.3901
18110TIP3    H275746   5.119   1.917  16.114  0.6613 -0.9154  0.5751
18111TIP3   OH275747   6.024   4.869   2.132  0.5293  0.3914  0.7212
18111TIP3    H175748   6.073   4.793   2.164 -0.1853 -0.2543  0.3148
18111TIP3    H275749   5.933   4.839   2.133  0.2391  1.2845  0.6604
18112TIP3   OH275750   0.588   0.422  14.062  0.4475 -0.7457  0.4883
18112TIP3    H175751   0.599   0.329  14.044  2.3906 -0.1337 -1.8090
18112TIP3    H275752   0.521   0.451  13.999  1.3119 -0.2182 -0.2068
18113TIP3   OH275753   1.446   6.675  16.183 -0.0032  0.5595  0.1344
18113TIP3    H175754   1.363   6.645  16.222 -0.9527  1.4352 -1.1742
18113TIP3    H275755   1.507   6.678  16.257 -0.6914 -1.6395  0.8437
18114TIP3   OH275756   3.211   1.389   1.708 -0.1836 -0.0101 -0.4174
18114TIP3    H175757   3.207   1.366   1.616 -1.8784 -1.6302  0.0343
18114TIP3    H275758   3.166   1.474   1.713  0.7889  0.5658 -1.2047
18115TIP3   OH275759   6.358   4.073   4.015  0.4188 -0.5029 -0.2219
18115TIP3    H175760   6.431   4.122   3.976 -0.6570 -0.3105 -2.0692
18115TIP3    H275761   6.338   4.119   4.096  0.7112  0.9560 -0.9606
18116TIP3   OH275762   4.075   5.385   4.226 -0.3671  0.3132 -0.7389
18116TIP3    H175763   4.115   5.301   4.249 -0.1753  0.4919 -0.3992
18116TIP3    H275764   3.996   5.390   4.280 -0.9039 -0.0846 -1.4881
18117TIP3   OH275765   6.701   1.650  13.594  0.2368  0.3505  0.3610
18117TIP3    H175766   6.723   1.716  13.529  0.0760  0.3986  0.3558
18117TIP3    H275767   6.615   1.676  13.627 -1.1615 -1.4036 -1.6709
18118TIP3   OH275768   1.338   2.425  11.474 -0.1266 -0.0690  0.8046
18118TIP3    H175769   1.379   2.339  11.463  0.8998  0.6457 -1.1812
18118TIP3    H275770   1.387   2.466  11.545  0.1280 -0.6771  0.9834
18119TIP3   OH275771   1.256   3.689   4.571 -0.1612 -0.8426 -0.2608
18119TIP3    H175772   1.163   3.695   4.595  0.4195 -1.8211  2.3775
18119TIP3    H275773   1.288   3.612   4.617  2.3044  0.2945 -0.0068
18120TIP3   OH275774   1.781   5.326  13.854  0.5722  0.8694  0.4505
18120TIP3    H175775   1.691   5.336  13.823  1.0490  0.3439 -1.2034
18120TIP3    H275776   1.831   5.389  13.801  1.2089  0.9558  1.1575
18121TIP3   OH275777   5.743   5.713  14.811 -0.4071 -0.0944 -0.1170
18121TIP3    H175778   5.735   5.698  14.717  2.0610  1.6372 -0.6701
18121TIP3    H275779   5.718   5.805  14.823 -0.7657 -0.3198  0.9359
18122TIP3   OH275780   1.776   4.838   5.106  0.2147  0.5020 -0.1618
18122TIP3    H175781   1.780   4.906   5.039  0.5434 -0.3832 -1.0514
18122TIP3    H275782   1.855   4.786   5.093 -0.4885 -0.6131 -0.0854
18123TIP3   OH275783   0.724   0.353  12.202  0.4524  0.1104 -0.1114
18123TIP3    H175784   0.795   0.416  12.214  1.0973 -0.5300 -0.5425
18123TIP3    H275785   0.748   0.305  12.123 -0.3652 -0.2412 -0.1481
18124TIP3   OH275786   5.710   3.816  16.630 -0.1378  0.0896  0.5998
18124TIP3    H175787   5.643   3.852  16.688 -1.4202  0.4213 -1.0517
18124TIP3    H275788   5.676   3.729  16.606  1.2697 -0.8128  1.7931
18125TIP3   OH275789   3.992   4.321  16.948  0.6134  0.2200 -0.5566
18125TIP3    H175790   3.899   4.331  16.970  0.5480 -1.7497  0.1523
18125TIP3    H275791   4.012   4.398  16.894 -0.5241  2.5145  2.1328
18126TIP3   OH275792   3.527   4.043  13.368 -0.2955 -0.4197 -0.2545
18126TIP3    H175793   3.468   4.094  13.311 -0.0440 -0.4615 -0.5533
18126TIP3    H275794   3.516   4.083  13.454  0.1878  0.3892 -0.5626
18127TIP3   OH275795   1.994   4.302  11.321 -0.2513 -0.5951 -0.3504
18127TIP3    H175796   1.938   4.229  11.294 -0.9266 -0.7996  1.5308
18127TIP3    H275797   2.072   4.293  11.267 -0.8636 -1.9450 -1.0464
18128TIP3   OH275798   6.436   2.387  12.007  0.2265 -0.3851  0.0174
18128TIP3    H175799   6.360   2.424  12.051 -0.2279 -1.0749 -0.1847
18128TIP3    H275800   6.508   2.445  12.031  0.0286 -0.8713  1.8553
18129TIP3   OH275801   2.009   5.787  15.698  0.1485 -0.1355 -0.3771
18129TIP3    H175802   2.074   5.846  15.660  2.2041 -1.7522  0.5171
18129TIP3    H275803   2.025   5.703  15.654 -1.5356 -0.4854 -0.3354
18130TIP3   OH275804   5.958   3.196   2.432 -0.2177  0.2601  0.2805
18130TIP3    H175805   5.938   3.193   2.526 -0.1202  0.2849  0.3019
18130TIP3    H275806   5.903   3.267   2.399 -0.9041 -0.3185  0.1599
18131TIP3   OH275807   3.122   6.633  16.386 -0.0963 -0.2741  0.2307
18131TIP3    H175808   3.102   6.581  16.309  2.2564 -0.3236 -0.3830
18131TIP3    H275809   3.155   6.570  16.450  0.2003  0.0793  0.4348
18132TIP3   OH275810   0.476   6.603   4.340 -0.3728 -0.1306 -0.0713
18132TIP3    H175811   0.460   6.519   4.383 -2.1665  1.2880  2.1723
18132TIP3    H275812   0.412   6.662   4.379  0.4180  2.1394 -2.0844
18133TIP3   OH275813   5.669   2.863   2.688  0.1918 -0.6456 -0.0260
18133TIP3    H175814   5.622   2.933   2.733 -1.3899 -2.1693  0.7398
18133TIP3    H275815   5.722   2.822   2.757  1.1085 -0.2475 -0.4744
18134TIP3   OH275816   2.418   3.623   1.590  0.0570 -0.3967  0.1559
18134TIP3    H175817   2.339   3.659   1.630 -0.6648  0.7743 -2.2008
18134TIP3    H275818   2.489   3.677   1.624 -0.3980 -0.1716  0.7536
18135TIP3   OH275819   1.034   2.326  16.967 -0.5885  0.6485  0.4160
18135TIP3    H175820   1.105   2.367  17.016 -1.6067  1.2853  1.3784
18135TIP3    H275821   0.957   2.339  17.022 -1.5031  0.2257 -0.7670
18136TIP3   OH275822   1.636   4.849   3.789 -0.2302  0.0254 -0.3647
18136TIP3    H175823   1.688   4.772   3.766  0.6032  0.3163  0.5221
18136TIP3    H275824   1.599   4.878   3.706  0.3434 -0.6866 -0.8801
18137TIP3   OH275825   2.940   2.284   3.983 -0.0063  0.4881  0.3944
18137TIP3    H175826   2.980   2.240   3.909 -1.2720  2.9875 -1.8780
18137TIP3    H275827   2.857   2.238   3.997 -0.1046  0.4786 -0.2226
18138TIP3   OH275828   4.964   1.941   1.207  0.4275 -0.4449 -0.0751
18138TIP3    H175829   5.054   1.908   1.199  0.1707 -0.8972 -1.2070
18138TIP3    H275830   4.926   1.889   1.278  1.2960  0.3040  0.9580
18139TIP3   OH275831   1.744   5.780   1.590  0.0238 -0.4710 -0.2652
18139TIP3    H175832   1.702   5.703   1.629 -0.8126  0.4816  0.7493
18139TIP3    H275833   1.721   5.775   1.497  0.2794 -1.6366 -0.2744
18140TIP3   OH275834   4.952   0.250   4.038  0.0453 -0.4094 -0.0461
18140TIP3    H175835   5.034   0.289   4.066 -0.2132 -0.6123  1.0020
18140TIP3    H275836   4.977   0.165   4.000  0.3313 -0.3968  0.1129
18141TIP3   OH275837   0.828   5.746   6.136  0.1234 -0.4792  0.2663
18141TIP3    H175838   0.910   5.711   6.171  0.2462  0.5261  1.0232
18141TIP3    H275839   0.762   5.724   6.202  0.1224  0.3122  0.5370
18142TIP3   OH275840   2.416   1.159   4.700  0.1312 -0.6567 -0.0566
18142TIP3    H175841   2.457   1.107   4.630 -1.5414 -1.7689 -0.2354
18142TIP3    H275842   2.380   1.094   4.760 -1.0736  0.3117  0.2747
18143TIP3   OH275843   1.516   4.009   0.240  0.2998  0.6798  0.1615
18143TIP3    H175844   1.565   3.951   0.298  1.0782 -0.1924 -1.3125
18143TIP3    H275845   1.465   4.064   0.298 -0.2299 -1.2879  1.6147
18144TIP3   OH275846   1.849   5.204   3.805 -0.3434 -0.0019 -0.1292
18144TIP3    H175847   1.910   5.273   3.832 -0.1029 -0.3548  0.2384
18144TIP3    H275848   1.889   5.123   3.837 -0.9666 -0.2419  0.0440
18145TIP3   OH275849   0.023   6.078  16.466  0.1028  0.1837  0.0881
18145TIP3    H175850   0.081   6.079  16.542 -0.1506 -0.2608  0.2911
18145TIP3    H275851   0.082   6.077  16.391  0.3557  0.0367  0.2892
18146TIP3   OH275852   3.437   0.935  14.923 -0.3057 -0.5564 -0.1548
18146TIP3    H175853   3.405   1.005  14.980  0.0328 -1.0753  0.6979
18146TIP3    H275854   3.406   0.958  14.836  1.7717  1.8885 -0.3270
18147TIP3   OH275855   5.659   5.315   5.262  0.3103  0.1619 -0.1066
18147TIP3    H175856   5.662   5.408   5.239  1.7729  0.1778  0.1555
18147TIP3    H275857   5.637   5.271   5.180  2.1795  0.5242 -0.8266
18148TIP3   OH275858   4.016   2.032  10.905 -0.1640  0.1267 -0.1520
18148TIP3    H175859   4.102   2.073  10.903  0.1300 -0.5208 -0.6859
18148TIP3    H275860   3.994   2.016  10.813 -0.7282  0.0373 -0.0029
18149TIP3   OH275861   0.774   0.571   0.624 -0.4282 -0.4491  0.1243
18149TIP3    H175862   0.768   0.604   0.714 -1.7423  0.4451 -0.2726
18149TIP3    H275863   0.754   0.647   0.569 -0.3519 -1.1601 -0.9105
18150TIP3   OH275864   5.024   0.508  14.391  0.9008  0.0562 -0.5728
18150TIP3    H175865   4.982   0.465  14.317  1.4758  0.8237 -1.3599
18150TIP3    H275866   4.951   0.536  14.447  0.4906 -0.9702 -0.5914
18151TIP3   OH275867   4.869   1.425   0.010  0.2015  0.7824  0.8574
18151TIP3    H175868   4.898   1.473  -0.067  0.7895 -0.8372  0.0468
18151TIP3    H275869   4.877   1.488   0.082  0.3966  2.0623 -0.2635
18152TIP3   OH275870   4.917   2.225  12.689  0.4399 -0.1400 -0.4457
18152TIP3    H175871   4.937   2.264  12.603  1.2569 -1.3867 -0.8417
18152TIP3    H275872   4.822   2.236  12.698  0.8928  3.8617  0.4476
18153TIP3   OH275873   4.961   6.169   4.075 -0.0324  0.0618  0.3868
18153TIP3    H175874   4.893   6.179   4.009  0.6899  0.5139 -0.3050
18153TIP3    H275875   5.019   6.101   4.039  1.1453  1.3050 -0.1333
18154TIP3   OH275876   1.587   2.888  14.503  0.0820 -0.1617 -0.5518
18154TIP3    H175877   1.674   2.900  14.464  0.8373 -1.0143  0.8141
18154TIP3    H275878   1.559   2.977  14.527 -0.0976  0.2900 -2.3643
18155TIP3   OH275879   0.267   6.169   5.834  0.0144  0.4142 -0.5373
18155TIP3    H175880   0.199   6.124   5.884 -0.8110  0.9511 -1.1640
18155TIP3    H275881   0.336   6.188   5.898 -0.8240  0.6812  0.2908
18156TIP3   OH275882   4.508   4.453   4.871 -0.5140 -0.2125 -0.6843
18156TIP3    H175883   4.495   4.516   4.800 -0.0411 -1.1162 -1.5815
18156TIP3    H275884   4.421   4.439   4.906 -0.6276  0.9394 -0.4819
18157TIP3   OH275885   3.587   3.475   3.584  0.0446  0.5464 -0.0804
18157TIP3    H175886   3.631   3.476   3.499 -0.1467  2.7572 -0.1728
18157TIP3    H275887   3.655   3.446   3.645  0.3520 -0.4529 -0.8746
18158TIP3   OH275888   4.511   6.239   2.854  0.6866  0.7135 -0.5975
18158TIP3    H175889   4.444   6.254   2.787 -1.5634  0.5620  1.5182
18158TIP3    H275890   4.495   6.149   2.884  0.9750  1.1289  0.8446
18159TIP3   OH275891   5.857   3.076   3.471  0.7069  0.3616 -0.0516
18159TIP3    H175892   5.880   3.024   3.548  1.3937 -0.9549 -1.1318
18159TIP3    H275893   5.811   3.153   3.507  2.3776  0.5380  1.7746
18160TIP3   OH275894   4.780   3.794  16.421  0.0031 -0.3188  0.3189
18160TIP3    H175895   4.871   3.804  16.393  0.3773  0.3992  1.7397
18160TIP3    H275896   4.730   3.847  16.359  0.5802 -0.4987 -0.3045
18161TIP3   OH275897   3.947   0.783  16.127 -0.0980  0.1743  0.0748
18161TIP3    H175898   3.872   0.734  16.094 -0.5432  0.1833  1.0463
18161TIP3    H275899   3.911   0.868  16.152  0.2239  0.1735  0.5577
18162TIP3   OH275900   5.277   5.897   0.151  0.1961  0.4035 -0.2154
18162TIP3    H175901   5.230   5.958   0.094 -1.0046  0.2108  0.5522
18162TIP3    H275902   5.337   5.851   0.093 -0.2166  1.0032 -1.1249
18163TIP3   OH275903   5.349   2.449   2.049  0.5279 -0.0879 -0.4807
18163TIP3    H175904   5.271   2.408   2.013  0.7308 -0.0672 -0.9496
18163TIP3    H275905   5.399   2.376   2.086 -0.1984  0.0271  0.7458
18164TIP3   OH275906   0.195   5.443   5.855 -0.4844 -0.2212 -0.6016
18164TIP3    H175907   0.217   5.521   5.907  0.4035 -0.3013 -0.8523
18164TIP3    H275908   0.204   5.370   5.917 -0.7796 -0.1774 -0.5083
18165TIP3   OH275909   3.413   0.927  16.675  0.0019 -0.2020  0.0514
18165TIP3    H175910   3.453   0.943  16.760  0.6081  0.4460 -0.3428
18165TIP3    H275911   3.487   0.905  16.618 -0.4448 -1.0609 -0.2139
18166TIP3   OH275912   2.977   1.624   4.892  0.2302 -0.3081 -0.0041
18166TIP3    H175913   2.986   1.636   4.987  1.0715 -0.5196 -0.0523
18166TIP3    H275914   3.009   1.535   4.876  0.4825 -0.1245 -0.5362
18167TIP3   OH275915   3.713   4.278  17.034  0.0551  0.1752 -0.5939
18167TIP3    H175916   3.717   4.198  17.086 -1.2453 -0.6132 -1.6836
18167TIP3    H275917   3.630   4.319  17.060  0.8991  1.3720  0.2412
18168TIP3   OH275918   4.851   6.080  16.934  0.6019 -0.1919 -0.1807
18168TIP3    H175919   4.934   6.037  16.956  1.4814  1.8473  0.5524
18168TIP3    H275920   4.844   6.070  16.839 -0.2761 -3.7923  0.1683
18169TIP3   OH275921   3.669   3.628  12.932  0.2179  0.2970 -0.1041
18169TIP3    H175922   3.661   3.633  13.027 -0.7095 -1.3279 -0.0741
18169TIP3    H275923   3.713   3.546  12.916  0.7856  0.7867 -1.0717
18170TIP3   OH275924   4.359   0.400  13.389  0.0306 -0.2517  0.3842
18170TIP3    H175925   4.335   0.427  13.301  0.7221  0.0921  0.3028
18170TIP3    H275926   4.349   0.305  13.389 -0.6301 -0.1881  0.1392
18171TIP3   OH275927   2.739   0.702  12.644  0.4745 -0.0815 -0.2843
18171TIP3    H175928   2.830   0.719  12.620  0.3299  1.5645  0.2576
18171TIP3    H275929   2.744   0.668  12.733  0.5315  0.4019 -0.1016
18172TIP3   OH275930   0.244   3.507   2.626  0.0249 -0.0813 -0.3332
18172TIP3    H175931   0.235   3.412   2.623 -1.2124 -0.0364  1.4529
18172TIP3    H275932   0.167   3.537   2.674  0.1123  1.8723 -1.3793
18173TIP3   OH275933   6.658   0.158   5.395 -0.4360 -0.1827  0.5622
18173TIP3    H175934   6.600   0.136   5.322 -0.8137  2.5529 -0.0211
18173TIP3    H275935   6.600   0.167   5.470 -0.3420 -0.6974  0.6987
18174TIP3   OH275936   4.185   5.563   4.056  0.0116  0.0342  0.8590
18174TIP3    H175937   4.142   5.501   4.114  1.2138  0.1465  1.8833
18174TIP3    H275938   4.260   5.515   4.021 -1.4425 -0.4928 -1.6754
18175TIP3   OH275939   2.495   1.795   1.080 -0.3699  0.1136  0.2266
18175TIP3    H175940   2.479   1.781   0.987  1.0310 -1.8516  0.2547
18175TIP3    H275941   2.590   1.792   1.089 -0.4667  0.7818  1.6639
18176TIP3   OH275942   3.153   4.439   0.522 -0.6464  0.3511  0.3320
18176TIP3    H175943   3.069   4.483   0.511 -0.7175 -0.0506 -0.7790
18176TIP3    H275944   3.173   4.402   0.436  1.3771  1.6907  0.1821
18177TIP3   OH275945   4.293   1.269   1.974 -0.0740  0.0806  0.3514
18177TIP3    H175946   4.244   1.334   2.025 -0.8292 -0.5202  0.4084
18177TIP3    H275947   4.304   1.195   2.034 -1.0221 -0.6518 -0.3764
18178TIP3   OH275948   1.133   0.436  15.459 -0.0654  0.1343  0.1392
18178TIP3    H175949   1.041   0.416  15.442 -0.0359 -0.9804  1.2712
18178TIP3    H275950   1.159   0.493  15.386 -1.9198  1.2812  0.3497
18179TIP3   OH275951   2.488   6.489   3.412  0.1437 -0.3815  0.0596
18179TIP3    H175952   2.535   6.569   3.389 -0.2805 -0.4170 -0.9775
18179TIP3    H275953   2.404   6.498   3.367  0.2697 -1.6142 -0.4408
18180TIP3   OH275954   0.324   2.289  13.502  0.0515 -0.3423  0.0454
18180TIP3    H175955   0.302   2.213  13.449 -0.0484 -0.8022  0.7336
18180TIP3    H275956   0.362   2.252  13.582  0.1957  0.3375  0.2971
18181TIP3   OH275957   5.703   0.843   2.792  0.0122  0.9834 -0.5330
18181TIP3    H175958   5.719   0.848   2.887  0.2467 -0.8362 -0.4588
18181TIP3    H275959   5.616   0.803   2.784  0.2662  0.5383 -1.0931
18182TIP3   OH275960   4.326   1.407   5.693  0.0662 -0.1123 -0.0542
18182TIP3    H175961   4.345   1.496   5.664  0.8202  0.3254  1.6959
18182TIP3    H275962   4.406   1.358   5.674  0.7044  0.2673  1.6220
18183TIP3   OH275963   1.336   0.716  14.732 -0.0774 -0.2282 -0.0355
18183TIP3    H175964   1.402   0.776  14.769 -0.3379 -0.0281  0.1088
18183TIP3    H275965   1.327   0.647  14.797 -1.4332  0.7616  0.8689
18184TIP3   OH275966   2.991   0.214  11.945 -0.1490  0.6588 -0.4849
18184TIP3    H175967   2.963   0.123  11.940 -1.3970  1.0267 -0.3748
18184TIP3    H275968   3.041   0.228  11.864  1.1995 -0.4920  0.1501
18185TIP3   OH275969   1.229   6.327  11.184  0.1703 -0.4606 -0.1559
18185TIP3    H175970   1.180   6.249  11.161 -0.2751 -0.4191  0.6213
18185TIP3    H275971   1.317   6.313  11.147 -0.2354 -0.8138 -0.9958
18186TIP3   OH275972   0.768   1.679  11.737  0.4221 -0.2664 -0.1887
18186TIP3    H175973   0.735   1.745  11.676  0.2826 -0.2609 -0.1058
18186TIP3    H275974   0.708   1.604  11.726  2.3953 -1.5610 -2.5439
18187TIP3   OH275975   1.157   3.263   2.735  0.4891 -0.6755 -0.2459
18187TIP3    H175976   1.151   3.253   2.640 -0.4625  0.8405 -0.3679
18187TIP3    H275977   1.224   3.200   2.762  2.2307  0.2694 -2.1885
18188TIP3   OH275978   3.498   0.320  15.817 -0.2277 -0.1586  0.7966
18188TIP3    H175979   3.403   0.312  15.820 -0.1836 -1.7575 -1.1545
18188TIP3    H275980   3.530   0.261  15.885 -0.5934 -1.0373  0.2174
18189TIP3   OH275981   0.325   6.336   2.387 -0.2355 -0.7373  0.1985
18189TIP3    H175982   0.402   6.351   2.441  0.4182  1.0152 -1.1315
18189TIP3    H275983   0.351   6.268   2.325  0.8182  0.8886 -1.2184
18190TIP3   OH275984   0.346   6.736  12.333 -0.2130  0.9441  0.1022
18190TIP3    H175985   0.288   6.696  12.268 -0.7629 -0.4436  1.4261
18190TIP3    H275986   0.341   6.830  12.315  0.1638  0.5360 -2.2841
18191TIP3   OH275987   1.267   0.584  10.774  0.0735 -0.2689  0.5952
18191TIP3    H175988   1.265   0.489  10.763  1.1026 -0.3506  1.1167
18191TIP3    H275989   1.175   0.610  10.770 -0.1552 -1.1832 -0.4055
18192TIP3   OH275990   2.973   5.200   4.854  0.2999 -0.7252  0.0235
18192TIP3    H175991   3.023   5.260   4.798  1.0690  0.9110  2.3452
18192TIP3    H275992   2.981   5.115   4.812  2.4888  0.0978 -1.3251
18193TIP3   OH275993   2.828   3.352  11.870 -0.5237 -0.2798 -0.1941
18193TIP3    H175994   2.789   3.286  11.927 -0.9706 -0.7359 -1.0273
18193TIP3    H275995   2.765   3.424  11.870 -0.7847 -0.5065 -0.5483
18194TIP3   OH275996   2.696   0.381  16.788  0.0376 -0.6522 -0.0568
18194TIP3    H175997   2.612   0.336  16.799 -0.7864  0.6118 -0.9814
18194TIP3    H275998   2.733   0.344  16.708 -0.4284 -0.0333 -0.5674
18195TIP3   OH275999   4.352   0.228  16.225  0.0426  0.0749 -0.2989
18195TIP3    H176000   4.367   0.134  16.235  0.8630  0.1554 -0.6945
18195TIP3    H276001   4.435   0.268  16.251 -0.4847  0.7247  0.4123
18196TIP3   OH276002   6.775   5.718  13.458 -0.2910  0.4993  0.2757
18196TIP3    H176003   6.714   5.668  13.405 -1.5263  1.4544  0.7399
18196TIP3    H276004   6.852   5.729  13.403 -0.2263 -1.3949 -0.0331
18197TIP3   OH276005   0.159   3.529  14.071 -0.2751 -0.0935 -0.5896
18197TIP3    H176006   0.102   3.534  14.148 -0.4655 -1.6826 -0.6035
18197TIP3    H276007   0.221   3.601  14.083  1.0996 -1.6492  2.2012
18198TIP3   OH276008   6.690   4.948   3.913  0.2168  0.2842 -0.2489
18198TIP3    H176009   6.604   4.947   3.953 -0.1449 -0.8106 -1.0365
18198TIP3    H276010   6.698   4.863   3.869  2.6121 -0.6198  1.7561
18199TIP3   OH276011   5.909   6.273   6.000 -0.1666 -0.6762  0.0588
18199TIP3    H176012   5.814   6.279   5.985 -0.3349 -1.9321  0.5585
18199TIP3    H276013   5.947   6.328   5.933 -1.2472 -0.4006 -0.3436
18200TIP3   OH276014   3.906   3.190   1.853  0.4753 -0.3726  0.4001
18200TIP3    H176015   3.913   3.164   1.945  1.2125  0.5171  0.6087
18200TIP3    H276016   3.867   3.278   1.856  1.8536  0.2705 -0.0400
18201TIP3   OH276017   1.173   6.558  13.120 -0.3128  0.1124 -0.3946
18201TIP3    H176018   1.091   6.561  13.071 -0.8722 -1.0880  0.4401
18201TIP3    H276019   1.159   6.618  13.193 -0.2578  0.3069 -0.5439
18202TIP3   OH276020   2.381   5.919  14.436 -0.6508 -0.7736  0.0814
18202TIP3    H176021   2.341   5.847  14.485 -0.2104 -1.5040 -0.6179
18202TIP3    H276022   2.348   5.908  14.347 -0.5536 -0.1278 -0.0328
18203TIP3   OH276023   5.452   3.416   0.929 -0.7143  0.2018  0.0840
18203TIP3    H176024   5.518   3.466   0.977 -2.3995  3.2534 -0.6698
18203TIP3    H276025   5.415   3.357   0.995  0.0462  1.2446  1.4679
18204TIP3   OH276026   3.977   5.866  11.547 -0.1030 -0.2003 -0.1574
18204TIP3    H176027   4.000   5.775  11.529 -1.1754 -0.5952  0.4856
18204TIP3    H276028   3.991   5.911  11.463 -0.5439 -1.1337 -0.7331
18205TIP3   OH276029   5.664   2.634   2.224  0.2342 -0.4514 -0.1945
18205TIP3    H176030   5.603   2.701   2.196 -1.0057 -1.5251 -0.1150
18205TIP3    H276031   5.656   2.632   2.319  0.2706 -0.7016 -0.1954
18206TIP3   OH276032   3.674   2.660   3.329  1.0003  0.0678 -0.7169
18206TIP3    H176033   3.641   2.739   3.371 -0.4847  0.1612 -2.0213
18206TIP3    H276034   3.708   2.607   3.401 -2.0435 -0.0430  0.7099
18207TIP3   OH276035   5.662   3.366   3.996 -0.7515  0.2847 -1.0522
18207TIP3    H176036   5.587   3.323   4.037  0.3667  0.0470  0.7621
18207TIP3    H276037   5.705   3.296   3.947  0.3931 -0.4411  0.9413
18208TIP3   OH276038   3.498   3.445  16.015  0.0807 -0.0018  0.4462
18208TIP3    H176039   3.505   3.462  15.921 -1.8215  0.0912  0.3042
18208TIP3    H276040   3.577   3.395  16.036 -0.2183 -1.3587 -1.4977
18209TIP3   OH276041   0.122   5.133  14.781 -0.2126  0.1203  0.3036
18209TIP3    H176042   0.062   5.099  14.847  0.7814 -0.3822  0.9511
18209TIP3    H276043   0.193   5.172  14.831 -0.0357  0.7913 -0.4603
18210TIP3   OH276044   1.832   3.187  13.886  0.2433 -0.0745 -0.0557
18210TIP3    H176045   1.913   3.137  13.899  0.7595  1.1056  1.2676
18210TIP3    H276046   1.839   3.261  13.946 -1.1457  0.8575 -1.0182
18211TIP3   OH276047   6.609   4.728  12.478 -0.3661  0.0187 -0.3149
18211TIP3    H176048   6.698   4.728  12.441 -0.9481  1.7452 -1.7532
18211TIP3    H276049   6.554   4.768  12.410 -1.9708  0.4382  1.1895
18212TIP3   OH276050   2.510   0.399   2.531 -0.0966 -0.3661 -0.3466
18212TIP3    H176051   2.440   0.403   2.596 -1.3880 -1.4262 -1.6125
18212TIP3    H276052   2.582   0.353   2.575 -0.6318 -0.3033  0.6015
18213TIP3   OH276053   1.345   2.165  11.313  0.1079 -0.2141  0.5034
18213TIP3    H176054   1.414   2.231  11.305  0.1498 -0.1955  1.0564
18213TIP3    H276055   1.302   2.166  11.227  1.0044 -0.4660  0.0387
18214TIP3   OH276056   3.012   4.508  13.754 -0.0198  0.1093 -0.3429
18214TIP3    H176057   3.036   4.594  13.722  0.5059  0.2858  0.4980
18214TIP3    H276058   3.012   4.517  13.849  0.0316 -0.8074 -0.2475
18215TIP3   OH276059   4.832   1.176   5.033 -0.4845 -0.4610  0.3248
18215TIP3    H176060   4.758   1.136   4.988 -1.0643 -0.1027  0.9480
18215TIP3    H276061   4.795   1.253   5.077  1.0257  2.2073 -2.7841
18216TIP3   OH276062   3.454   5.251   3.400 -0.1210  0.0483 -0.0151
18216TIP3    H176063   3.484   5.339   3.424  0.1993 -0.4562  1.4965
18216TIP3    H276064   3.367   5.264   3.364 -0.3814  0.9070  0.9101
18217TIP3   OH276065   3.359   6.253  13.707  0.7232  0.8464  0.1736
18217TIP3    H176066   3.381   6.165  13.740 -0.4175  0.3453 -0.3977
18217TIP3    H276067   3.435   6.277  13.653  0.6415 -0.1787 -0.4194
18218TIP3   OH276068   4.341   3.943  12.341  0.4121  0.1100  0.5875
18218TIP3    H176069   4.291   3.893  12.405 -0.8773  0.1761 -0.3617
18218TIP3    H276070   4.413   3.981  12.391 -0.4289 -0.0607  1.9368
18219TIP3   OH276071   6.090   4.952  17.002 -0.6452 -0.0044 -0.3196
18219TIP3    H176072   6.101   4.932  17.095  0.1216  1.4421 -0.0867
18219TIP3    H276073   6.118   4.872  16.957  0.9821 -0.0007  0.6305
18220TIP3   OH276074   4.982   0.190   0.089 -0.3821  0.6507 -0.5314
18220TIP3    H176075   4.982   0.247   0.012 -0.0006  0.0655 -0.9722
18220TIP3    H276076   5.073   0.188   0.118 -0.1456 -0.7764 -1.3103
18221TIP3   OH276077   3.039   0.597  15.928 -0.0676  0.2482 -0.1402
18221TIP3    H176078   3.053   0.516  15.880  2.0054  1.0600 -0.9867
18221TIP3    H276079   3.087   0.663  15.878 -0.0294  1.6050  1.6151
18222TIP3   OH276080   6.395   3.598  14.169 -0.4488  0.1184 -1.0660
18222TIP3    H176081   6.344   3.521  14.144 -0.9517  0.2934 -0.5922
18222TIP3    H276082   6.329   3.663  14.194  0.0294 -0.2372  1.2587
18223TIP3   OH276083   0.366   0.547  17.195  0.7435 -0.1659 -0.7132
18223TIP3    H176084   0.284   0.578  17.234  0.4261 -1.2097 -0.5432
18223TIP3    H276085   0.397   0.621  17.143 -2.1115 -0.9061 -3.6259
18224TIP3   OH276086   6.173   4.979  14.676 -0.3989 -0.0574 -0.1368
18224TIP3    H176087   6.088   4.975  14.721 -0.7388  1.7651 -0.6085
18224TIP3    H276088   6.237   4.971  14.747 -0.9304 -1.4243  0.2260
18225TIP3   OH276089   1.622   1.220  11.624 -0.2378  0.0743  0.6991
18225TIP3    H176090   1.558   1.251  11.688  0.0444  1.0458  0.5219
18225TIP3    H276091   1.629   1.126  11.640 -1.6141 -0.0134  0.7914
18226TIP3   OH276092   4.084   2.690  13.190 -0.4046  0.0204 -0.1312
18226TIP3    H176093   4.135   2.609  13.198  0.3916  0.4175 -1.0415
18226TIP3    H276094   4.046   2.685  13.103  0.2866  0.9871 -0.4933
18227TIP3   OH276095   0.468   6.715   6.027 -0.5602 -0.1458 -0.0513
18227TIP3    H176096   0.546   6.769   6.015 -0.0354 -1.2623 -1.8447
18227TIP3    H276097   0.485   6.665   6.107  0.6270 -0.4497 -0.4788
18228TIP3   OH276098   0.007   1.159   4.775  0.6549  0.0544 -0.6330
18228TIP3    H176099   0.058   1.216   4.717 -0.8157  0.5510 -1.4802
18228TIP3    H276100  -0.066   1.129   4.721  1.6160 -3.0223 -0.3150
18229TIP3   OH276101   2.426   3.383   3.744  0.0164  0.4642 -0.2957
18229TIP3    H176102   2.368   3.413   3.674  1.9254  0.9930 -1.6770
18229TIP3    H276103   2.514   3.408   3.716  1.1795 -2.2605  0.7029
18230TIP3   OH276104   4.694   4.121  14.446 -0.3032 -0.1232 -0.3756
18230TIP3    H176105   4.674   4.211  14.472  0.0607  0.0054 -0.5417
18230TIP3    H276106   4.790   4.116  14.444 -0.3165 -0.6090 -0.0337
18231TIP3   OH276107   5.666   4.174   5.175  0.0439  0.1223  0.2360
18231TIP3    H176108   5.700   4.238   5.112 -0.3530 -0.8847 -1.0257
18231TIP3    H276109   5.572   4.172   5.158  0.2906 -2.0909 -0.9427
18232TIP3   OH276110   0.230   5.682   2.118  0.2768  0.0405 -0.2377
18232TIP3    H176111   0.149   5.630   2.119 -0.7751  1.6727  0.1486
18232TIP3    H276112   0.222   5.740   2.193  3.3143 -1.9804  1.7569
18233TIP3   OH276113   2.143   2.044   5.071  0.7045  0.3071  0.2011
18233TIP3    H176114   2.236   2.059   5.088  0.2455  1.6467  1.6471
18233TIP3    H276115   2.118   2.114   5.011  0.8171 -0.5957 -0.9252
18234TIP3   OH276116   4.161   2.380  14.636  0.5039 -0.3866  0.4527
18234TIP3    H176117   4.207   2.324  14.573  0.0054 -1.7165  1.2470
18234TIP3    H276118   4.204   2.363  14.720  1.4956  1.7514  0.4193
18235TIP3   OH276119   5.836   5.083  16.634  0.3290 -0.0614 -0.6011
18235TIP3    H176120   5.755   5.033  16.626  0.0409 -0.2864  2.9398
18235TIP3    H276121   5.901   5.019  16.659  0.8513  0.6881 -0.0289
18236TIP3   OH276122   1.941   5.203   5.785 -0.1633  0.0752  0.8881
18236TIP3    H176123   1.924   5.165   5.871 -0.6597  2.0166  1.6668
18236TIP3    H276124   1.860   5.247   5.761  0.1737  0.0734 -0.3090
18237TIP3   OH276125   6.281   6.017  16.594  0.4194  0.0282  0.3266
18237TIP3    H176126   6.306   6.105  16.624 -1.8621  1.0051 -0.4970
18237TIP3    H276127   6.338   5.958  16.643  0.8223  1.8798  2.1752
18238TIP3   OH276128   2.710   6.207  15.197  0.7891 -0.4253 -0.3593
18238TIP3    H176129   2.715   6.229  15.104 -0.1952  3.1887  0.3603
18238TIP3    H276130   2.664   6.123  15.199  0.5844 -0.4420 -3.0922
18239TIP3   OH276131   3.015   4.081  15.059  0.3060  0.3279 -0.3085
18239TIP3    H176132   2.951   4.079  14.987  0.4330 -0.1412 -0.4164
18239TIP3    H276133   3.008   4.169  15.096 -1.9769 -0.4139  1.1080
18240TIP3   OH276134   4.796   3.335  15.568  0.5709  0.4446  0.1250
18240TIP3    H176135   4.774   3.385  15.646  0.9377  0.0036  0.5143
18240TIP3    H276136   4.721   3.346  15.510  0.5060  1.1726  0.3398
18241TIP3   OH276137   6.401   2.413  12.964  0.5054  0.1786  0.3867
18241TIP3    H176138   6.397   2.344  13.031  2.9116  1.4886  1.9498
18241TIP3    H276139   6.317   2.457  12.970  0.0428 -0.8098  1.3813
18242TIP3   OH276140   1.323   6.376   4.948  0.9224 -0.3617 -0.2408
18242TIP3    H176141   1.360   6.420   4.871  0.5455  1.6586  0.6791
18242TIP3    H276142   1.230   6.397   4.945  0.7490 -1.0555  0.2642
18243TIP3   OH276143   6.564   4.604   0.394 -0.1714  0.1430  0.0403
18243TIP3    H176144   6.560   4.512   0.365  1.1173  0.4905 -1.2928
18243TIP3    H276145   6.558   4.655   0.313  3.6059  1.1385  0.2887
18244TIP3   OH276146   0.650   0.669  11.258  0.1550 -0.5026 -0.1424
18244TIP3    H176147   0.706   0.603  11.218 -0.0971 -0.0896 -1.1909
18244TIP3    H276148   0.561   0.646  11.231  0.1412  0.7565 -1.2840
18245TIP3   OH276149   6.152   0.075   3.318  0.1832  0.2921  0.1718
18245TIP3    H176150   6.156  -0.017   3.344  1.6909  0.9732  2.6007
18245TIP3    H276151   6.060   0.099   3.330 -0.2988 -0.9600 -0.8335
18246TIP3   OH276152   5.321   6.655   4.980  0.1813  0.4403  0.8249
18246TIP3    H176153   5.324   6.648   5.075 -1.2824  1.9530  1.0245
18246TIP3    H276154   5.237   6.698   4.962  0.6666  0.6468 -1.1083
18247TIP3   OH276155   3.469   0.721  11.812  0.7646  0.0123  0.0141
18247TIP3    H176156   3.474   0.627  11.829 -0.6173 -0.1591 -0.4865
18247TIP3    H276157   3.417   0.729  11.732  1.9937  1.1395 -0.6791
18248TIP3   OH276158   0.795   5.653   0.925  0.0033  0.4116 -0.0067
18248TIP3    H176159   0.819   5.560   0.926 -0.1193  0.3852  0.3368
18248TIP3    H276160   0.757   5.669   1.011 -1.2036  0.4604 -0.5371
18249TIP3   OH276161   0.888   2.109   4.106  0.0421  0.0368  0.6237
18249TIP3    H176162   0.962   2.049   4.095  1.0190  1.2867  0.2107
18249TIP3    H276163   0.925   2.184   4.154 -1.0760  0.4417  0.8618
18250TIP3   OH276164   0.255   5.415   2.433  0.0872  0.0516  0.5109
18250TIP3    H176165   0.176   5.398   2.383 -0.8837  3.7336  0.6322
18250TIP3    H276166   0.226   5.467   2.508  2.3891  0.2222  1.3490
18251TIP3   OH276167   2.186   3.942  15.494  0.5844 -0.2194  0.1226
18251TIP3    H176168   2.099   3.940  15.535  0.9031 -1.7657  0.7649
18251TIP3    H276169   2.247   3.939  15.567  1.1805  0.0743 -0.3575
18252TIP3   OH276170   5.087   4.586   4.604 -0.5160 -0.2221 -0.2574
18252TIP3    H176171   5.047   4.641   4.672 -0.7930 -0.8540  0.0891
18252TIP3    H276172   5.142   4.525   4.652  0.2968  0.1651 -0.6867
18253TIP3   OH276173   4.752   0.814   1.373  0.2971 -0.4180  0.1684
18253TIP3    H176174   4.707   0.748   1.425  2.6694 -2.1453  0.0933
18253TIP3    H276175   4.741   0.895   1.423 -2.2743 -0.9281  0.4803
18254TIP3   OH276176   4.880   2.547   0.761  0.7046  0.3269  0.4915
18254TIP3    H176177   4.833   2.627   0.786  1.2069  0.9196 -0.4628
18254TIP3    H276178   4.835   2.477   0.809 -2.8978  0.4994 -2.3930
18255TIP3   OH276179   1.960   3.063   3.222  0.4322 -0.2846  0.8309
18255TIP3    H176180   1.918   3.123   3.283 -1.7081  0.5010 -1.3304
18255TIP3    H276181   1.916   2.979   3.237 -0.3001 -0.0213  0.1852
18256TIP3   OH276182   4.845   0.885  12.615  0.3203 -0.2989  0.2368
18256TIP3    H176183   4.940   0.892  12.628  0.2871  2.3584 -0.6995
18256TIP3    H276184   4.810   0.964  12.656 -1.3288 -0.3597 -1.0369
18257TIP3   OH276185   0.825   2.929  13.541  0.3620  0.1177 -0.2877
18257TIP3    H176186   0.766   2.892  13.476 -0.5130 -1.1398  1.1771
18257TIP3    H276187   0.773   2.934  13.621  2.7981 -3.1628  1.6626
18258TIP3   OH276188   0.935   1.783   6.362  0.0815 -0.2360 -0.0785
18258TIP3    H176189   0.934   1.766   6.457 -1.5421  0.9449  0.1164
18258TIP3    H276190   0.847   1.761   6.333 -0.7579  3.4849 -0.5774
18259TIP3   OH276191   1.154   1.297  12.988 -0.6883 -0.6742  0.2714
18259TIP3    H176192   1.145   1.369  12.926  0.2862 -0.8986 -0.1375
18259TIP3    H276193   1.237   1.255  12.965 -1.4015 -2.1252  0.3160
18260TIP3   OH276194   4.537   3.047  16.010  0.1904  0.0890 -0.0578
18260TIP3    H176195   4.605   3.092  15.960  0.6501  0.7873  1.1643
18260TIP3    H276196   4.560   2.954  16.004  1.6934  0.3757  0.9557
18261TIP3   OH276197   3.201   4.633  12.931  0.5816  0.5817  0.3978
18261TIP3    H176198   3.111   4.605  12.948  0.2040  1.6446  0.1957
18261TIP3    H276199   3.192   4.703  12.866  1.4727  1.3600  1.1010
18262TIP3   OH276200   6.420   3.911  15.084  0.0160  0.5274 -0.6526
18262TIP3    H176201   6.442   3.951  15.169 -0.4702 -0.0701 -0.2468
18262TIP3    H276202   6.459   3.824  15.087 -1.9240 -0.3417 -0.1411
18263TIP3   OH276203   1.105   2.988   5.843 -0.2973  0.1869  0.0591
18263TIP3    H176204   1.201   2.989   5.842 -0.2945 -0.6705 -0.6305
18263TIP3    H276205   1.082   2.980   5.935  0.2837  1.2239  0.3076
18264TIP3   OH276206   3.511   1.363  12.932  0.1398  0.0130 -0.2617
18264TIP3    H176207   3.581   1.409  12.885  0.0169 -0.4380 -0.8904
18264TIP3    H276208   3.431   1.390  12.887 -0.1475  0.9560  0.7963
18265TIP3   OH276209   4.595   2.246   4.250  0.2058  0.6217  0.3181
18265TIP3    H176210   4.563   2.196   4.325  1.6020  0.5603  0.8821
18265TIP3    H276211   4.517   2.259   4.195 -0.3876 -1.2367  0.6808
18266TIP3   OH276212   5.977   5.093   5.310 -0.3846 -0.2233  0.2105
18266TIP3    H176213   6.067   5.096   5.277 -0.6919  0.8093 -0.5402
18266TIP3    H276214   5.981   5.138   5.394 -0.4976  1.2111 -0.5432
18267TIP3   OH276215   1.709   5.893   4.718  0.1277 -0.2124  0.6577
18267TIP3    H176216   1.767   5.932   4.653 -2.3298  0.6711 -1.0709
18267TIP3    H276217   1.754   5.909   4.802  1.6708  1.7135 -0.4812
18268TIP3   OH276218   2.791   3.193  16.934  0.0619 -0.2025 -0.8005
18268TIP3    H176219   2.786   3.179  16.839 -1.8750  0.1051 -0.7661
18268TIP3    H276220   2.700   3.200  16.961  0.6084 -0.4509  1.1220
18269TIP3   OH276221   3.482   6.289  15.974  0.1463  0.6285  0.3160
18269TIP3    H176222   3.404   6.339  15.949 -2.2983 -1.2233  3.9095
18269TIP3    H276223   3.466   6.201  15.941  0.9834  0.3680  0.5912
18270TIP3   OH276224   0.965   2.775  15.384  0.5905  0.2918  0.0858
18270TIP3    H176225   1.054   2.786  15.351  0.5742  2.1563  0.6025
18270TIP3    H276226   0.924   2.714  15.323  1.9184  0.1878 -0.7227
18271TIP3   OH276227   2.002   1.951  12.811  0.3590 -0.5617  0.2382
18271TIP3    H176228   1.916   1.978  12.841 -0.2271  0.0291 -1.9135
18271TIP3    H276229   2.054   1.942  12.892 -1.2916  0.4543  1.4402
18272TIP3   OH276230   6.579   4.332  13.228 -0.1966 -0.1608  0.0823
18272TIP3    H176231   6.486   4.347  13.248 -0.0004 -0.4257  1.2292
18272TIP3    H276232   6.626   4.391  13.287  0.4237 -1.4941  0.9504
18273TIP3   OH276233   6.255   3.946  15.805 -0.0568 -0.3272 -0.4012
18273TIP3    H176234   6.250   3.865  15.856 -0.0540  0.1384  0.3417
18273TIP3    H276235   6.280   4.013  15.868 -3.0945  0.8459 -0.3739
18274TIP3   OH276236   6.612   1.531   1.570  0.0797  0.1805 -0.5651
18274TIP3    H176237   6.618   1.436   1.573  1.4702  0.1319 -3.3975
18274TIP3    H276238   6.700   1.561   1.596 -0.1350  0.6885 -0.4128
18275TIP3   OH276239   2.451   0.507   0.280  0.2064  0.1288 -0.5013
18275TIP3    H176240   2.384   0.575   0.272 -0.0515 -0.1684 -0.9548
18275TIP3    H276241   2.528   0.543   0.236  0.2382  0.3451 -0.2639
18276TIP3   OH276242   2.568   0.180   1.280 -0.1760  0.4403 -0.5998
18276TIP3    H176243   2.552   0.112   1.346 -0.8519  0.7409 -0.4534
18276TIP3    H276244   2.642   0.147   1.229 -0.8854 -0.6701 -0.9063
18277TIP3   OH276245   3.406   6.063   4.111 -0.2019  0.0163 -0.1411
18277TIP3    H176246   3.426   6.106   4.194 -0.1595  0.4052 -0.3509
18277TIP3    H276247   3.333   6.114   4.075 -0.6501 -0.5463 -0.0347
18278TIP3   OH276248   6.286   6.307   4.364 -0.2503  1.0863 -0.4702
18278TIP3    H176249   6.293   6.354   4.281 -1.0584  2.1963  0.0759
18278TIP3    H276250   6.259   6.218   4.339 -0.1850  1.3290 -1.4083
18279TIP3   OH276251   1.442   2.618  11.276 -0.5996  0.7847 -0.3411
18279TIP3    H176252   1.435   2.574  11.361 -0.8920  1.9403  0.2374
18279TIP3    H276253   1.510   2.684  11.288 -0.6834  0.9906 -0.9883
18280TIP3   OH276254   2.265   6.705  11.570  0.5274  0.0746 -0.0205
18280TIP3    H176255   2.201   6.722  11.639 -0.8341 -0.9187 -1.0241
18280TIP3    H276256   2.323   6.781  11.572 -0.5910  0.9243  0.9820
18281TIP3   OH276257   3.195   2.640  15.092  0.6911  0.2549 -0.1499
18281TIP3    H176258   3.240   2.586  15.157 -0.5454  0.1181  0.6032
18281TIP3    H276259   3.126   2.685  15.141 -1.0939 -0.8536 -1.5823
18282TIP3   OH276260   1.975   6.619  14.223 -0.2235  0.0175  0.3762
18282TIP3    H176261   1.987   6.532  14.259 -0.6653  1.0656  3.1370
18282TIP3    H276262   2.020   6.678  14.283  0.6048  1.6676 -1.7730
18283TIP3   OH276263   5.230   0.194   0.174 -0.4269  0.2542 -0.5658
18283TIP3    H176264   5.219   0.243   0.256  0.1776  1.2402 -1.0613
18283TIP3    H276265   5.237   0.102   0.201  0.7748  0.6731  0.5751
18284TIP3   OH276266   5.266   3.956  13.483  0.2803  0.0194  0.4907
18284TIP3    H176267   5.355   3.929  13.504  0.3393 -0.2156 -0.0650
18284TIP3    H276268   5.274   4.002  13.399 -0.3055 -1.0883 -0.1792
18285TIP3   OH276269   0.212   4.402  12.789  0.2314 -0.0345  0.2334
18285TIP3    H176270   0.197   4.311  12.762 -0.5593  0.0335  0.4304
18285TIP3    H276271   0.173   4.408  12.877 -1.6267  1.0551 -0.6397
18286TIP3   OH276272   1.868   4.419  16.317 -0.6111  0.1397 -0.3072
18286TIP3    H176273   1.849   4.431  16.224  0.2061  1.8829 -0.2790
18286TIP3    H276274   1.809   4.480  16.361 -0.1627  0.1847  0.2308
18287TIP3   OH276275   6.617   0.910  11.437 -0.3817 -0.2373  0.0041
18287TIP3    H176276   6.615   0.819  11.408 -1.6975 -0.1986 -0.0438
18287TIP3    H276277   6.528   0.942  11.424  0.2020  1.2314 -0.5134
18288TIP3   OH276278   3.197   0.378   4.768 -0.1559 -0.3027 -0.1471
18288TIP3    H176279   3.138   0.312   4.731 -1.5508  1.1061 -0.4664
18288TIP3    H276280   3.193   0.451   4.706 -0.2822  0.9420  1.3100
18289TIP3   OH276281   3.279   0.048   4.141  0.5996 -0.3923 -0.2368
18289TIP3    H176282   3.328   0.070   4.220  0.1563  0.8376 -0.2969
18289TIP3    H276283   3.340   0.068   4.070 -0.2592  1.9785 -0.3523
18290TIP3   OH276284   5.066   0.940   2.328  0.4366 -0.5271  0.3023
18290TIP3    H176285   5.159   0.921   2.316  0.8614 -0.1627  2.7444
18290TIP3    H276286   5.022   0.857   2.310  1.4777 -1.4010  1.6048
18291TIP3   OH276287   6.447   0.662  12.765 -0.0135 -0.6524  0.6978
18291TIP3    H176288   6.421   0.741  12.717  0.2857 -0.1653  1.3167
18291TIP3    H276289   6.365   0.616  12.782 -0.2551 -0.1772  0.8334
18292TIP3   OH276290   3.717   4.623  14.433 -0.1340 -0.7027 -0.0454
18292TIP3    H176291   3.779   4.577  14.489 -1.5550 -0.7381  1.5448
18292TIP3    H276292   3.758   4.624  14.347  2.5482  0.2401  1.2057
18293TIP3   OH276293   3.213   0.311   3.713  0.1809  0.1607  0.5772
18293TIP3    H176294   3.253   0.360   3.786  3.9951 -0.3708 -1.0385
18293TIP3    H276295   3.223   0.219   3.737 -0.0102  0.0184  0.1185
18294TIP3   OH276296   4.918   1.343  14.688 -0.4322  0.2817  1.1333
18294TIP3    H176297   4.905   1.341  14.783 -2.4029  3.6287  1.0047
18294TIP3    H276298   4.963   1.426  14.672  0.6956 -0.6676 -0.7959
18295TIP3   OH276299   6.076   2.421  14.157 -0.2769  0.4668 -0.1148
18295TIP3    H176300   5.995   2.471  14.166 -1.6413 -1.3266 -1.8781
18295TIP3    H276301   6.109   2.444  14.070  0.3285  0.0811  0.0073
18296TIP3   OH276302   1.825   6.069   2.829  0.2393  0.3571  0.0463
18296TIP3    H176303   1.789   6.037   2.911  0.4639 -0.1829 -0.0645
18296TIP3    H276304   1.895   6.129   2.855 -0.2182  0.8074  0.2534
18297TIP3   OH276305   3.104   4.178  12.910  0.4731 -0.1024  0.1781
18297TIP3    H176306   3.174   4.200  12.848  1.1299 -0.2356  0.8712
18297TIP3    H276307   3.060   4.261  12.927  1.2053  0.1891  0.6564
18298TIP3   OH276308   2.147   3.372  14.857 -0.2180 -0.3811 -0.6070
18298TIP3    H176309   2.177   3.380  14.766 -0.0754 -1.3411 -0.6529
18298TIP3    H276310   2.068   3.426  14.861 -0.4689 -0.6766 -1.4080
18299TIP3   OH276311   0.341   2.796  11.352  0.5884  0.1515  0.3247
18299TIP3    H176312   0.391   2.860  11.301 -2.3315  1.5350 -0.8772
18299TIP3    H276313   0.341   2.717  11.297  1.4031  0.1478  0.3197
18300TIP3   OH276314   1.919   1.501   4.709  0.3321  0.0576  0.1198
18300TIP3    H176315   1.971   1.420   4.711  1.4830  0.7969  1.9066
18300TIP3    H276316   1.933   1.536   4.620  0.2866 -1.3975 -0.4724
18301TIP3   OH276317   2.059   5.163   1.716  0.0485  0.3122 -0.0445
18301TIP3    H176318   2.007   5.116   1.780 -1.5199  1.3671 -0.5227
18301TIP3    H276319   2.101   5.233   1.766  1.3576 -0.7734  0.4157
18302TIP3   OH276320   2.661   6.184   1.797 -0.1140 -0.0654 -0.2638
18302TIP3    H176321   2.666   6.276   1.773  0.6074 -0.1828 -0.5870
18302TIP3    H276322   2.603   6.182   1.874  0.3564  0.7293  0.1208
18303TIP3   OH276323   0.052   1.120   0.422  0.1829 -0.3024  0.3609
18303TIP3    H176324  -0.018   1.134   0.358 -0.6657  0.4004  1.4305
18303TIP3    H276325   0.019   1.052   0.479  0.2651  0.2075  1.0190
18304TIP3   OH276326   2.742   0.978   5.915  0.2290 -0.1050  0.5333
18304TIP3    H176327   2.695   0.976   5.998  0.2673 -0.9143  0.5383
18304TIP3    H276328   2.832   0.999   5.940 -0.2370  2.0743  0.4630
18305TIP3   OH276329   3.540   2.039   6.450 -0.3532 -0.9113 -0.7898
18305TIP3    H176330   3.580   2.125   6.435  0.7762 -1.1444  0.7205
18305TIP3    H276331   3.448   2.051   6.428 -0.3371  0.8819  0.0039
18306TIP3   OH276332   6.180   4.419  15.195 -0.1983 -0.2446  0.4495
18306TIP3    H176333   6.206   4.457  15.279  1.4411 -0.7330  0.1904
18306TIP3    H276334   6.117   4.351  15.217  0.7313 -0.8331  1.3727
18307TIP3   OH276335   0.431   6.511   3.077  0.1610 -0.3389 -0.3351
18307TIP3    H176336   0.350   6.560   3.091  0.1512 -0.6703  0.8204
18307TIP3    H276337   0.473   6.555   3.003 -0.4221  0.6663 -0.0839
18308TIP3   OH276338   2.281   1.716  13.843 -0.2556 -0.3038 -0.0352
18308TIP3    H176339   2.292   1.774  13.918 -0.2265  0.2563 -0.4652
18308TIP3    H276340   2.240   1.771  13.776  0.2965 -0.6211 -0.6441
18309TIP3   OH276341   0.774   3.808   3.832  0.1068  0.3986 -0.3269
18309TIP3    H176342   0.827   3.880   3.797 -0.1868  1.0084  0.4627
18309TIP3    H276343   0.791   3.734   3.773  2.0980  0.4853  0.1111
18310TIP3   OH276344   4.951   5.203   6.038  0.1301 -0.3337  0.4611
18310TIP3    H176345   5.043   5.178   6.041 -0.4079 -2.5643 -0.3727
18310TIP3    H276346   4.926   5.194   5.946 -0.7677  0.8554  0.5773
18311TIP3   OH276347   3.222   5.652   6.614  0.1297  0.1520 -0.1321
18311TIP3    H176348   3.144   5.704   6.598 -0.3421 -0.5931 -0.2729
18311TIP3    H276349   3.241   5.665   6.707  1.3125  2.3366 -0.6447
18312TIP3   OH276350   5.103   3.999   2.051  0.3341  0.2968 -0.5930
18312TIP3    H176351   5.106   4.060   1.977 -0.0559  2.1569  0.8923
18312TIP3    H276352   5.018   4.014   2.091  0.3067 -1.1163 -0.1060
18313TIP3   OH276353   6.270   4.819  16.399 -0.0786 -0.1692 -0.0439
18313TIP3    H176354   6.336   4.872  16.443 -0.7241  1.1210 -0.6281
18313TIP3    H276355   6.202   4.880  16.374 -1.2069 -1.3946 -0.0327
18314TIP3   OH276356   4.200   1.095  12.212  0.3482  0.0861 -0.0462
18314TIP3    H176357   4.115   1.073  12.250  0.1104  1.9407  0.5123
18314TIP3    H276358   4.196   1.059  12.123 -0.3363 -1.3755  0.5557
18315TIP3   OH276359   2.916   3.077  14.600  0.3664 -1.0562  0.4142
18315TIP3    H176360   2.871   2.996  14.621 -0.9438 -0.9529 -1.7933
18315TIP3    H276361   2.847   3.144  14.601  0.7301 -0.6102 -1.3082
18316TIP3   OH276362   5.603   1.819  16.539  0.0619  0.0748  0.4444
18316TIP3    H176363   5.597   1.907  16.575 -1.7075  0.7578 -1.4557
18316TIP3    H276364   5.574   1.762  16.610 -1.3056  1.2254  0.8191
18317TIP3   OH276365   3.893   3.511   2.625  0.1830 -0.4112  0.4005
18317TIP3    H176366   3.880   3.578   2.692  0.3438 -1.1613  1.1838
18317TIP3    H276367   3.944   3.556   2.557 -1.3025  0.7977  0.0557
18318TIP3   OH276368   2.558   5.173  14.974  0.0919  0.3863 -1.1024
18318TIP3    H176369   2.613   5.100  14.946  1.7554  1.2739 -0.1876
18318TIP3    H276370   2.504   5.136  15.044  2.3105  0.5286  0.7071
18319TIP3   OH276371   0.327   4.121  12.685 -0.0657  0.2168  0.2169
18319TIP3    H176372   0.265   4.048  12.685 -1.1101  1.0950 -0.1522
18319TIP3    H276373   0.411   4.080  12.665 -0.6433 -0.8820 -0.0451
18320TIP3   OH276374   3.349   5.332   1.570 -0.1200 -0.4131  0.0936
18320TIP3    H176375   3.297   5.278   1.511  0.2502 -0.7323  0.0596
18320TIP3    H276376   3.296   5.336   1.650 -1.5114  1.5682 -0.8695
18321TIP3   OH276377   1.819   0.442   0.727  0.2578 -0.2882  0.1905
18321TIP3    H176378   1.892   0.443   0.666 -0.7823  0.2447 -1.0558
18321TIP3    H276379   1.786   0.352   0.724  0.0007 -0.1808 -0.2968
18322TIP3   OH276380   3.723   2.618   6.214  0.4724 -0.0953  0.5587
18322TIP3    H176381   3.696   2.529   6.189  0.4079 -0.0998  0.6436
18322TIP3    H276382   3.805   2.605   6.262 -0.2453 -0.2374  1.7891
18323TIP3   OH276383   0.663   1.971  11.927 -0.3418  0.2074 -0.4821
18323TIP3    H176384   0.692   2.057  11.957 -0.7564 -0.5639  2.2854
18323TIP3    H276385   0.699   1.910  11.992 -0.9063 -1.6137 -1.8425
18324TIP3   OH276386   5.698   0.769   1.267  0.1868 -0.9011  0.1169
18324TIP3    H176387   5.634   0.782   1.337 -0.0414 -0.2810 -0.1996
18324TIP3    H276388   5.662   0.817   1.192  1.0947 -0.4105 -0.0178
18325TIP3   OH276389   0.356   6.315  11.803 -0.0412 -0.0823  0.1970
18325TIP3    H176390   0.287   6.303  11.867 -2.3983  1.4901 -1.9614
18325TIP3    H276391   0.366   6.229  11.762 -1.3496 -0.0998 -0.0867
18326TIP3   OH276392   3.635   6.077  11.426  0.1042  0.7461  0.0217
18326TIP3    H176393   3.723   6.046  11.404  0.2716 -0.2990  2.1121
18326TIP3    H276394   3.644   6.171  11.435  1.1430  0.5668  0.8635
18327TIP3   OH276395   3.551   1.442  12.158  0.0520  0.2910 -0.5672
18327TIP3    H176396   3.501   1.514  12.196  1.3341  0.8031  0.1628
18327TIP3    H276397   3.611   1.484  12.097  0.5498 -0.1817 -0.4067
18328TIP3   OH276398   4.776   0.637  14.497  0.1329 -0.0722  0.0350
18328TIP3    H176399   4.730   0.651  14.579  0.2541 -1.6365  0.3988
18328TIP3    H276400   4.788   0.724  14.460 -0.3221  0.6060  1.4598
18329TIP3   OH276401   4.886   5.356   1.681  0.0931 -0.1837 -0.1167
18329TIP3    H176402   4.794   5.342   1.703  0.7715 -1.2759  2.2207
18329TIP3    H276403   4.906   5.443   1.715  0.1967 -0.3842  0.3350
18330TIP3   OH276404   0.570   1.417   4.596  0.3217 -0.3765 -0.0518
18330TIP3    H176405   0.525   1.374   4.668 -0.7517  2.5459  1.1188
18330TIP3    H276406   0.640   1.467   4.638  0.7839 -0.0283 -1.2121
18331TIP3   OH276407   2.411   3.686   5.706  0.0136  0.5245 -0.4997
18331TIP3    H176408   2.434   3.724   5.791 -0.3114  0.1247 -0.2303
18331TIP3    H276409   2.482   3.624   5.688 -0.8979 -0.8190  0.4029
18332TIP3   OH276410   1.386   1.835  16.479 -0.1527  0.1259 -0.1013
18332TIP3    H176411   1.416   1.820  16.389  0.3953 -2.9417  0.5451
18332TIP3    H276412   1.314   1.897  16.470  0.6338  0.7517 -2.5324
18333TIP3   OH276413   1.489   5.979   1.605 -0.1795 -0.0764  0.4074
18333TIP3    H176414   1.466   5.919   1.676  0.6828 -1.2398 -0.2704
18333TIP3    H276415   1.538   5.925   1.543  0.7097  1.3653 -0.1780
18334TIP3   OH276416   5.814   2.564  15.826  0.8687 -0.0060 -0.3507
18334TIP3    H176417   5.880   2.622  15.865 -0.3381  1.8987 -1.0560
18334TIP3    H276418   5.749   2.624  15.789 -1.0483 -1.8331 -0.0365
18335TIP3   OH276419   6.036   6.362  16.380  0.2447 -0.2743  0.1147
18335TIP3    H176420   6.006   6.334  16.466 -0.6086 -0.5532 -0.2720
18335TIP3    H276421   6.066   6.452  16.392 -1.9027  0.4413  0.2418
18336TIP3   OH276422   0.644   4.566  12.655 -0.4441  0.1619  0.0417
18336TIP3    H176423   0.653   4.556  12.750  0.2967  1.1970  0.0862
18336TIP3    H276424   0.704   4.637  12.632 -2.0570  1.2425 -0.9305
18337TIP3   OH276425   0.790   5.779   2.773 -0.2523 -0.2783  0.5025
18337TIP3    H176426   0.775   5.846   2.706  0.2253 -0.5814  0.0879
18337TIP3    H276427   0.719   5.791   2.835 -1.1924 -0.5424 -0.5076
18338TIP3   OH276428   5.749   5.859   5.473 -0.7097  0.0550 -0.0774
18338TIP3    H176429   5.778   5.861   5.564 -0.5336  0.3033 -0.1389
18338TIP3    H276430   5.809   5.798   5.430  0.3770  1.3476 -0.4273
18339TIP3   OH276431   1.137   4.666   4.534  0.3079 -0.9534  0.4516
18339TIP3    H176432   1.134   4.752   4.576  0.1690 -0.9784  0.4954
18339TIP3    H276433   1.219   4.665   4.485  0.9076 -1.2590  1.4397
18340TIP3   OH276434   1.245   5.558   3.299  0.0110 -0.1781  0.2175
18340TIP3    H176435   1.246   5.639   3.248 -0.3890  0.0232  0.5236
18340TIP3    H276436   1.169   5.567   3.356 -0.4575 -1.0912 -0.2641
18341TIP3   OH276437   2.591   0.774   3.163  0.1087  1.1320 -0.3490
18341TIP3    H176438   2.637   0.733   3.090  1.1144  0.7315  0.4927
18341TIP3    H276439   2.588   0.867   3.142  1.8623  1.2485 -0.1232
18342TIP3   OH276440   3.684   4.107   4.431 -0.3935 -0.0168  0.2268
18342TIP3    H176441   3.628   4.168   4.479 -0.4560 -0.3789  0.6178
18342TIP3    H276442   3.746   4.163   4.385 -0.9776  0.3784 -0.0798
18343TIP3   OH276443   5.763   2.499   3.725  0.0015 -0.1753  0.2507
18343TIP3    H176444   5.734   2.417   3.686  1.4852 -1.1740  1.1842
18343TIP3    H276445   5.704   2.565   3.689 -3.3546 -2.0690  1.9442
18344TIP3   OH276446   2.239   1.383   4.611  1.0924  0.6809 -0.4573
18344TIP3    H176447   2.322   1.341   4.634  0.1330 -1.4726 -0.8156
18344TIP3    H276448   2.205   1.415   4.694  1.7132  0.5332 -0.1382
18345TIP3   OH276449   5.905   6.026   0.909 -0.0002  0.0253  0.0244
18345TIP3    H176450   5.967   6.075   0.856 -0.7158  2.5697  1.4235
18345TIP3    H276451   5.837   6.090   0.932 -0.5283 -1.3688  2.6438
18346TIP3   OH276452   6.286   5.702  13.834  0.1647 -0.0895 -0.4802
18346TIP3    H176453   6.375   5.687  13.801  1.1020 -3.7401  3.2199
18346TIP3    H276454   6.299   5.759  13.910 -0.7916  0.1804 -0.5163
18347TIP3   OH276455   3.022   5.062  12.654  0.2438  0.0027  0.4459
18347TIP3    H176456   2.983   5.126  12.714  2.1811  1.6712 -0.0139
18347TIP3    H276457   2.969   5.069  12.574  0.2434  0.8370  0.5098
18348TIP3   OH276458   4.411   3.048  10.587  0.8047 -0.2722  0.4296
18348TIP3    H176459   4.489   3.011  10.546  1.3536  0.4466  0.8111
18348TIP3    H276460   4.346   2.978  10.583  1.5301 -0.9431  0.2831
18349TIP3   OH276461   0.771   6.332   0.640 -0.4603 -0.4428  0.4297
18349TIP3    H176462   0.842   6.275   0.610 -0.3001 -0.1837  0.3199
18349TIP3    H276463   0.812   6.417   0.654 -1.1248  0.2129 -1.4915
18350TIP3   OH276464   0.776   3.434   2.658 -0.1541 -0.0091  0.0276
18350TIP3    H176465   0.689   3.471   2.676  0.4755  2.2319 -1.2734
18350TIP3    H276466   0.758   3.351   2.615 -1.6374 -0.6160  1.7612
18351TIP3   OH276467   3.917   1.729  16.698  0.3067  0.3135  0.5860
18351TIP3    H176468   4.001   1.771  16.715  0.7518 -0.5902  0.6037
18351TIP3    H276469   3.869   1.793  16.646  1.5871  0.1976 -0.7560
18352TIP3   OH276470   5.604   4.006   5.799  0.5638 -0.7512 -0.3653
18352TIP3    H176471   5.668   4.036   5.735 -0.3830 -0.0292 -0.9759
18352TIP3    H276472   5.600   4.076   5.864 -0.5092 -0.2409 -0.9758
18353TIP3   OH276473   0.223   1.107   1.536 -0.1881  0.4790 -0.1668
18353TIP3    H176474   0.298   1.048   1.535 -0.2243  0.3725  1.7707
18353TIP3    H276475   0.260   1.194   1.526  0.1553  0.3812  0.2548
18354TIP3   OH276476   1.272   3.869   0.372  0.1873 -0.0234 -0.1838
18354TIP3    H176477   1.285   3.899   0.282 -0.7590  1.1105  0.0498
18354TIP3    H276478   1.255   3.775   0.364  0.0743  0.0817 -1.1911
18355TIP3   OH276479   5.651   1.924   5.548 -0.5190  0.4361  0.0838
18355TIP3    H176480   5.740   1.953   5.530 -0.4447 -0.9553 -2.0185
18355TIP3    H276481   5.605   2.003   5.577  0.8976  1.5793 -0.7248
18356TIP3   OH276482   5.792   1.322   6.141 -0.0851  0.2772  0.0230
18356TIP3    H176483   5.845   1.245   6.119  0.5178  0.6193  0.2928
18356TIP3    H276484   5.809   1.337   6.234  1.6544  2.1778 -0.5723
18357TIP3   OH276485   0.649   6.178   1.550 -0.7127  0.0427  0.3104
18357TIP3    H176486   0.707   6.252   1.537 -1.0720  0.7086  2.3994
18357TIP3    H276487   0.653   6.160   1.644 -1.8754 -1.5480  0.0764
18358TIP3   OH276488   1.384   3.954   3.096 -0.1268  0.0072  0.3502
18358TIP3    H176489   1.406   3.863   3.116  1.2728  0.0420 -0.9753
18358TIP3    H276490   1.468   3.999   3.093 -0.8518  1.5178  1.7090
18359TIP3   OH276491   0.440   5.275  15.713  0.1117  0.1001 -0.1700
18359TIP3    H176492   0.395   5.328  15.778 -0.5593 -1.3423  0.5593
18359TIP3    H276493   0.394   5.293  15.631 -1.3331 -0.7786  0.4331
18360TIP3   OH276494   3.449   1.383  13.451  0.1342 -0.1856  0.1971
18360TIP3    H176495   3.382   1.446  13.478 -0.8873 -1.2014  0.0843
18360TIP3    H276496   3.399   1.313  13.409  1.2581 -1.0536  0.3101
18361TIP3   OH276497   3.997   0.412   2.755 -0.3647 -0.5741 -0.1649
18361TIP3    H176498   4.054   0.485   2.778 -0.1753 -0.6634 -0.3490
18361TIP3    H276499   4.042   0.335   2.791  1.1154 -1.0076 -2.8272
18362TIP3   OH276500   0.705   1.106   6.111  0.0035  0.0623  0.3764
18362TIP3    H176501   0.690   1.018   6.144  0.5361  0.4654  1.7030
18362TIP3    H276502   0.797   1.124   6.129  0.3362  0.2565 -1.4209
18363TIP3   OH276503   0.885   1.350  14.556 -0.2646  0.2117  0.2728
18363TIP3    H176504   0.792   1.373  14.555 -0.3346 -0.0199  1.2806
18363TIP3    H276505   0.900   1.310  14.470 -0.9089  0.9545 -0.1982
18364TIP3   OH276506   5.282   5.401   1.945 -0.1670 -0.3163  0.1554
18364TIP3    H176507   5.331   5.371   1.868  0.8137 -0.8020  0.9465
18364TIP3    H276508   5.321   5.485   1.968 -2.1019  1.0060 -1.3293
18365TIP3   OH276509   0.701   4.809  16.105  0.2072  0.2207  0.4579
18365TIP3    H176510   0.609   4.785  16.118  0.2756  0.9586  2.5149
18365TIP3    H276511   0.711   4.816  16.010 -1.5576 -0.9941  0.1636
18366TIP3   OH276512   2.549   2.285  15.431  0.1434  0.7118 -0.1363
18366TIP3    H176513   2.517   2.205  15.472  1.7611 -0.3113 -0.7898
18366TIP3    H276514   2.523   2.276  15.339 -0.7894  1.5490  0.0425
18367TIP3   OH276515   4.834   5.229   2.752 -0.3334 -0.1425 -0.3477
18367TIP3    H176516   4.752   5.198   2.715 -0.9984  0.5256  0.5479
18367TIP3    H276517   4.876   5.151   2.787  0.4569 -0.8428 -2.7677
18368TIP3   OH276518   5.359   1.372  15.697 -0.1759  0.0946  0.3988
18368TIP3    H176519   5.391   1.283  15.685 -1.3680 -0.3754  0.6326
18368TIP3    H276520   5.287   1.364  15.760 -1.5143  0.9553 -0.9720
18369TIP3   OH276521   2.890   1.767   0.150  0.8816  0.3015 -0.3413
18369TIP3    H176522   2.898   1.681   0.107  0.7440  0.3770 -0.5211
18369TIP3    H276523   2.839   1.819   0.088 -2.1602 -0.5517  1.3365
18370TIP3   OH276524   6.374   0.999   3.510  0.3447  0.3630  0.0045
18370TIP3    H176525   6.462   1.013   3.476  0.9070  1.0050  1.7075
18370TIP3    H276526   6.318   1.007   3.433  1.8107 -0.7275 -1.2140
18371TIP3   OH276527   3.490   2.585   0.598 -0.3058  1.0327 -0.0370
18371TIP3    H176528   3.441   2.580   0.516  1.0636  1.2929 -0.8949
18371TIP3    H276529   3.542   2.505   0.600 -0.7660  0.7512  0.8694
18372TIP3   OH276530   2.806   1.044  15.427 -0.5887 -0.0742  0.6925
18372TIP3    H176531   2.894   1.064  15.456 -0.2011  1.3815 -1.4111
18372TIP3    H276532   2.818   0.991  15.348 -1.5681  0.5477  0.1126
18373TIP3   OH276533   3.318   1.662   5.511 -0.5720 -0.2692 -0.1690
18373TIP3    H176534   3.301   1.634   5.421  0.2105  0.5467 -0.5754
18373TIP3    H276535   3.412   1.678   5.514 -0.7507  0.6991  0.5095
18374TIP3   OH276536   6.696   1.788  17.132 -0.0872 -0.1252 -0.2595
18374TIP3    H176537   6.736   1.874  17.124 -1.1756  0.8533  4.0355
18374TIP3    H276538   6.624   1.789  17.069  0.0701  1.9693 -0.4339
18375TIP3   OH276539   2.872   5.450   3.518  0.4533  0.6451 -0.3379
18375TIP3    H176540   2.936   5.385   3.486 -1.1377 -0.0100 -2.2696
18375TIP3    H276541   2.823   5.403   3.585  0.8973  0.6205 -0.0272
18376TIP3   OH276542   4.278   4.915   0.030 -0.3906 -0.4742 -0.4038
18376TIP3    H176543   4.290   4.874   0.116  1.9935  0.0095 -0.4647
18376TIP3    H276544   4.194   4.881  -0.001 -0.8556 -1.3563  1.7287
18377TIP3   OH276545   0.499   0.214   4.748  0.4263 -0.0518  0.0485
18377TIP3    H176546   0.475   0.206   4.656  0.6867  2.3907 -0.2707
18377TIP3    H276547   0.589   0.246   4.747  1.1619 -1.9478  1.1986
18378TIP3   OH276548   3.139   0.886  16.603 -0.3842 -0.5577  0.0693
18378TIP3    H176549   3.087   0.816  16.642  1.1167 -0.9126  1.4651
18378TIP3    H276550   3.222   0.883  16.649 -0.1314  1.8454 -0.1608
18379TIP3   OH276551   2.313   3.319   0.381 -0.1363  0.7979 -0.3845
18379TIP3    H176552   2.257   3.374   0.435  1.6700  1.3924  0.9398
18379TIP3    H276553   2.351   3.379   0.317 -0.9844  0.3946 -1.2863
18380TIP3   OH276554   1.391   3.126   1.877 -0.0888  0.7496 -0.0356
18380TIP3    H176555   1.331   3.171   1.818 -0.0573 -0.5771 -1.1172
18380TIP3    H276556   1.476   3.129   1.832 -0.0301 -0.1285 -0.0013
18381TIP3   OH276557   1.989   0.185  16.637 -0.2583 -0.0293  0.0483
18381TIP3    H176558   1.965   0.195  16.544 -1.0141 -2.1017  0.0018
18381TIP3    H276559   1.920   0.232  16.684  0.3750  1.4175 -0.4524
18382TIP3   OH276560   3.633   3.603  13.661  0.1274  0.3703  0.2962
18382TIP3    H176561   3.711   3.628  13.612  0.1046  2.5695  1.3651
18382TIP3    H276562   3.666   3.549  13.733  0.5885  0.7368  0.3610
18383TIP3   OH276563   2.868   2.290   1.272  0.1793  0.1212  0.1165
18383TIP3    H176564   2.957   2.296   1.307  1.0651  0.5534 -2.1499
18383TIP3    H276565   2.869   2.346   1.195 -2.2214  0.5189  0.3375
18384TIP3   OH276566   2.003   0.832   1.471 -0.1930 -0.1238 -0.5635
18384TIP3    H176567   1.970   0.788   1.393 -0.9417 -0.8757  0.1744
18384TIP3    H276568   1.989   0.770   1.542 -0.8471  1.1132  0.4094
18385TIP3   OH276569   4.231   0.617  12.902  0.0435  0.0655  0.1299
18385TIP3    H176570   4.287   0.547  12.869 -1.0999 -1.2508  0.9463
18385TIP3    H276571   4.255   0.694  12.849  2.5456 -0.4686  0.4229
18386TIP3   OH276572   1.937   3.413  11.295 -0.0132  0.2514  0.2975
18386TIP3    H176573   1.964   3.366  11.374  0.9477 -1.5999 -1.1166
18386TIP3    H276574   1.889   3.349  11.244 -2.4942  2.0229  0.2860
18387TIP3   OH276575   2.203   5.110  14.978  0.4069 -0.3804 -0.4906
18387TIP3    H176576   2.266   5.038  14.979 -0.2464 -0.9462  1.5121
18387TIP3    H276577   2.226   5.163  15.054 -0.6195  0.2001 -0.5752
18388TIP3   OH276578   5.105   6.417   3.896  0.3780 -0.5662 -0.0987
18388TIP3    H176579   5.160   6.449   3.825 -1.1531  1.5370 -0.4007
18388TIP3    H276580   5.015   6.436   3.867 -0.3437 -1.1338  1.6937
18389TIP3   OH276581   0.684   1.180  12.771  0.4858 -0.3907  0.1992
18389TIP3    H176582   0.685   1.214  12.681  0.6266 -1.9764 -0.4129
18389TIP3    H276583   0.760   1.219  12.813  1.2718 -0.8043 -0.8210
18390TIP3   OH276584   1.191   2.573   0.587  0.3280 -0.4357 -0.0152
18390TIP3    H176585   1.103   2.559   0.554  0.4249  1.7432 -1.3245
18390TIP3    H276586   1.249   2.541   0.518  0.5610 -0.4354  0.1753
18391TIP3   OH276587   4.891   2.728   6.203 -0.2887  0.2777  0.1690
18391TIP3    H176588   4.971   2.719   6.151 -1.1772  1.2843 -1.3962
18391TIP3    H276589   4.863   2.818   6.189 -1.4260  0.0837  1.1239
18392TIP3   OH276590   5.388   4.177   5.124  0.2867  0.1709  0.1675
18392TIP3    H176591   5.409   4.237   5.052 -0.4275 -0.9703 -1.0247
18392TIP3    H276592   5.418   4.091   5.092  0.0248 -0.3288  1.2685
18393TIP3   OH276593   5.325   5.024  15.888  0.0908 -0.4863 -0.2578
18393TIP3    H176594   5.412   5.063  15.876 -0.0664 -0.2660 -0.7056
18393TIP3    H276595   5.281   5.038  15.804  0.6836 -3.2477 -1.1030
18394TIP3   OH276596   1.596   2.353   2.271  0.2284  0.0892 -0.0236
18394TIP3    H176597   1.638   2.358   2.357  0.6537  1.3903 -0.2855
18394TIP3    H276598   1.566   2.263   2.263  0.0807 -0.0059  1.5414
18395TIP3   OH276599   1.447   2.337  15.123  0.3849 -0.1076 -0.3332
18395TIP3    H176600   1.500   2.341  15.043 -1.5376 -0.1939 -1.6502
18395TIP3    H276601   1.510   2.347  15.194  2.0051  1.1703 -1.8943
18396TIP3   OH276602   0.175   0.342  13.024  0.5359  0.3946 -0.5820
18396TIP3    H176603   0.166   0.431  13.059  1.6368 -0.2915  1.5203
18396TIP3    H276604   0.270   0.332  13.010  0.4279 -0.4989 -0.6825
18397TIP3   OH276605   1.473   1.470   0.598 -0.4671 -0.6017  0.2862
18397TIP3    H176606   1.560   1.484   0.560 -0.2055  0.6487  1.3335
18397TIP3    H276607   1.463   1.540   0.662 -3.4294  0.9877 -1.8118
18398TIP3   OH276608   4.078   0.084  12.898 -0.4392 -0.4118  0.1975
18398TIP3    H176609   4.083   0.100  12.803  1.2382  2.7377  0.7560
18398TIP3    H276610   3.985   0.068  12.915 -1.0421  0.9822 -1.6866
18399TIP3   OH276611   0.002   4.909  15.777  0.5108  0.1354 -0.3075
18399TIP3    H176612   0.030   4.992  15.738  1.1126  0.0992  0.0389
18399TIP3    H276613   0.033   4.843  15.715 -1.0636  0.2196 -1.2226
18400TIP3   OH276614   1.070   5.772   0.339  0.4151 -0.0755  0.2624
18400TIP3    H176615   0.985   5.737   0.367  0.0222  1.4988  1.0628
18400TIP3    H276616   1.127   5.695   0.334 -0.8712 -1.0525  0.3967
18401TIP3   OH276617   3.351   3.069   1.027 -0.3006 -1.0008  0.3365
18401TIP3    H176618   3.359   2.995   1.087 -1.9127 -2.2848 -0.9799
18401TIP3    H276619   3.264   3.106   1.045  1.0495  1.5377  2.0059
18402TIP3   OH276620   5.840   2.187  12.944 -0.2728 -0.3335 -0.1476
18402TIP3    H176621   5.843   2.095  12.919 -1.3731 -0.1907 -0.8399
18402TIP3    H276622   5.765   2.223  12.896  0.0985  0.9057  0.1643
18403TIP3   OH276623   3.273   0.352   2.367 -0.5534  0.4394 -0.0134
18403TIP3    H176624   3.348   0.301   2.337 -0.0585  1.7819 -1.1473
18403TIP3    H276625   3.224   0.372   2.287  0.8844  4.2517 -0.0607
18404TIP3   OH276626   5.370   6.049   2.132  0.4714 -0.0213  0.1852
18404TIP3    H176627   5.380   6.080   2.042  0.8509  1.8750  0.8434
18404TIP3    H276628   5.422   6.110   2.184 -0.4091 -0.5894  1.7754
18405TIP3   OH276629   3.860   0.660   4.579  0.5672  0.8473 -0.7119
18405TIP3    H176630   3.951   0.647   4.555  0.3800 -0.6586 -0.6608
18405TIP3    H276631   3.812   0.653   4.496  0.4006  0.4823 -0.5895
18406TIP3   OH276632   2.894   2.594   0.318 -0.6458 -0.1960 -0.2429
18406TIP3    H176633   2.850   2.679   0.311 -2.1626 -0.8674  0.9989
18406TIP3    H276634   2.841   2.535   0.266  0.9883 -0.1897 -1.9643
18407TIP3   OH276635   3.576   2.035  14.642 -0.0120  0.2768  0.0082
18407TIP3    H176636   3.608   2.020  14.731 -0.9412 -2.2038 -0.0529
18407TIP3    H276637   3.510   1.968  14.628 -0.6912  1.3364 -2.1751
18408TIP3   OH276638   2.843   1.175  12.967  0.3655 -0.6038  0.1146
18408TIP3    H176639   2.766   1.119  12.976 -0.6070  0.6319 -0.2129
18408TIP3    H276640   2.854   1.186  12.872  0.9190 -0.7487  0.1629
18409TIP3   OH276641   1.287   3.239   0.907  0.1142 -0.5095 -0.4155
18409TIP3    H176642   1.212   3.283   0.946 -0.2480  0.1355 -1.8064
18409TIP3    H276643   1.254   3.153   0.880 -0.0369 -0.3508 -0.7322
18410TIP3   OH276644   2.614   3.517   5.618 -0.1848 -0.2187 -0.1811
18410TIP3    H176645   2.636   3.450   5.554 -0.8162  1.9165 -2.7421
18410TIP3    H276646   2.696   3.563   5.635 -0.1811 -0.2455 -0.1272
18411TIP3   OH276647   1.853   4.711  12.983 -0.4059  0.2470 -0.6048
18411TIP3    H176648   1.926   4.676  13.034 -0.6039  1.7641  0.7468
18411TIP3    H276649   1.775   4.673  13.023 -0.4812  0.3643 -0.6387
18412TIP3   OH276650   0.835   6.215  14.097 -0.2318 -0.2829 -0.0853
18412TIP3    H176651   0.884   6.151  14.147 -0.8211 -1.1067 -0.5506
18412TIP3    H276652   0.744   6.203  14.124 -0.2693  0.8221  0.3263
18413TIP3   OH276653   6.583   6.596   0.478 -0.0612 -0.4533 -0.6587
18413TIP3    H176654   6.494   6.626   0.461  0.0158  0.3449  0.3073
18413TIP3    H276655   6.611   6.646   0.555 -0.0160 -3.2061  1.1564
18414TIP3   OH276656   5.621   6.771  13.608 -0.4123 -0.7767 -0.1580
18414TIP3    H176657   5.596   6.817  13.688  0.0393  1.2628 -1.1441
18414TIP3    H276658   5.696   6.717  13.633 -0.8144 -0.8191  0.9772
18415TIP3   OH276659   4.094   6.546   1.534 -0.8533  0.4978  0.6931
18415TIP3    H176660   4.025   6.536   1.599 -0.3845 -2.0631  0.8566
18415TIP3    H276661   4.160   6.600   1.577 -1.8224  1.2178  1.2822
18416TIP3   OH276662   3.136   5.044  11.434 -0.3391  0.2439 -0.2353
18416TIP3    H176663   3.137   5.075  11.343  0.6138  0.6171 -0.1000
18416TIP3    H276664   3.043   5.034  11.455 -0.5664  0.0705 -1.2816
18417TIP3   OH276665   6.049   1.481   1.770 -0.2497 -0.4049 -0.1284
18417TIP3    H176666   6.099   1.423   1.828 -0.2964 -0.9676 -0.6492
18417TIP3    H276667   6.115   1.533   1.725 -0.1990 -0.1820  0.1996
18418TIP3   OH276668   5.506   5.930  14.075  0.2757 -0.0062 -0.2650
18418TIP3    H176669   5.568   5.858  14.079 -0.0657 -0.2486  0.9561
18418TIP3    H276670   5.429   5.898  14.122 -0.5460  0.5033 -1.2631
18419TIP3   OH276671   6.325   3.900  15.546 -0.8183  0.3405  0.1635
18419TIP3    H176672   6.319   3.805  15.558  1.2390  0.0728 -0.7529
18419TIP3    H276673   6.343   3.934  15.634  0.9535 -0.3685  0.0918
18420TIP3   OH276674   0.691   5.293  14.199 -0.0455  0.4683  0.2388
18420TIP3    H176675   0.621   5.342  14.242  0.6279  0.2898  1.5606
18420TIP3    H276676   0.767   5.352  14.203  0.7968 -0.7088  1.9354
18421TIP3   OH276677   4.223   1.110   5.707  0.4334 -0.1359  0.0945
18421TIP3    H176678   4.300   1.057   5.687  0.6217 -0.1229  0.7985
18421TIP3    H276679   4.249   1.199   5.684 -0.8583 -0.6988 -3.9073
18422TIP3   OH276680   0.155   5.143  11.498 -0.1448 -0.9302  0.1348
18422TIP3    H176681   0.125   5.059  11.465  1.4460 -1.8192  0.9097
18422TIP3    H276682   0.198   5.123  11.582  1.6246  0.4149 -0.4048
18423TIP3   OH276683   5.068   3.942   4.417  0.1949 -0.4831  0.1555
18423TIP3    H176684   4.979   3.939   4.452  0.4909  1.8787  1.1960
18423TIP3    H276685   5.056   3.951   4.322 -0.6842 -0.2557  0.2811
18424TIP3   OH276686   4.581   0.910   6.280 -0.0201 -0.0467 -0.8164
18424TIP3    H176687   4.500   0.952   6.251  0.2952  1.8547  0.9939
18424TIP3    H276688   4.650   0.955   6.230  0.3078  1.5936  1.0506
18425TIP3   OH276689   3.455   1.788  14.419  0.7361  0.5217  0.0943
18425TIP3    H176690   3.454   1.872  14.373  1.1436  0.4396 -0.0680
18425TIP3    H276691   3.477   1.724  14.351 -3.6066 -0.2755 -0.6874
18426TIP3   OH276692   1.872   0.729   4.930  0.4581 -0.3608 -0.2457
18426TIP3    H176693   1.954   0.719   4.978  0.0730  1.6533  0.9091
18426TIP3    H276694   1.804   0.730   4.998 -0.5342 -1.9314 -1.1715
18427TIP3   OH276695   1.129   2.202   1.176  0.1913  0.1132 -0.1006
18427TIP3    H176696   1.111   2.270   1.111  0.2665  0.6610  0.4523
18427TIP3    H276697   1.204   2.234   1.225  0.6982 -0.7207 -0.3291
18428TIP3   OH276698   0.408   4.606  17.045 -0.2164  0.2885 -0.1259
18428TIP3    H176699   0.388   4.578  16.955 -1.1717 -0.9460  0.4716
18428TIP3    H276700   0.334   4.576  17.097  1.0481 -0.3339  1.3488
18429TIP3   OH276701   3.955   4.854   0.032  0.2535  0.0717 -0.7862
18429TIP3    H176702   3.918   4.802   0.102  0.5404  1.3526  0.3376
18429TIP3    H276703   3.891   4.848  -0.039 -0.0317 -1.2224 -0.4253
18430TIP3   OH276704   4.614   0.902  13.989  0.5152  0.0468 -0.1039
18430TIP3    H176705   4.610   0.991  13.955  0.6669  0.1033  0.0226
18430TIP3    H276706   4.534   0.860  13.958  1.7458 -0.6251 -2.5159
18431TIP3   OH276707   2.395   6.245   4.248  0.0840 -0.2316  0.1636
18431TIP3    H176708   2.441   6.315   4.295 -0.4020  0.5004 -0.4403
18431TIP3    H276709   2.305   6.249   4.280  0.3870 -1.5168  1.1751
18432TIP3   OH276710   6.731   2.195   2.983  0.1635  0.1388  0.1316
18432TIP3    H176711   6.794   2.129   2.955 -0.2785 -0.7219  1.1408
18432TIP3    H276712   6.780   2.249   3.046 -0.2419 -0.8495  1.3151
18433TIP3   OH276713   2.866   3.471  11.534  0.1259 -0.0965 -0.4183
18433TIP3    H176714   2.930   3.496  11.466 -0.1200  0.8464 -0.3010
18433TIP3    H276715   2.911   3.402  11.583  0.6332 -0.2106 -1.0224
18434TIP3   OH276716   3.720   4.284   4.998 -0.0956  0.8610  0.3234
18434TIP3    H176717   3.812   4.303   4.981  0.5166 -1.2117  1.2076
18434TIP3    H276718   3.673   4.352   4.950  1.8657  1.4938 -0.7807
18435TIP3   OH276719   2.896   3.821   2.698 -0.2772 -0.1507  0.1890
18435TIP3    H176720   2.868   3.809   2.607 -0.6209  1.0200  0.1354
18435TIP3    H276721   2.835   3.767   2.749 -0.6671 -0.0828 -0.1996
18436TIP3   OH276722   0.950   3.751  14.168 -0.5657 -0.0458  0.6039
18436TIP3    H176723   0.886   3.784  14.232 -0.9145 -0.0011  0.2348
18436TIP3    H276724   0.911   3.770  14.083 -0.3534 -0.5927  0.3772
18437TIP3   OH276725   2.192   2.080  13.001 -0.3133 -0.1677 -0.2346
18437TIP3    H176726   2.235   2.086  13.087  0.0129  1.4765 -0.5056
18437TIP3    H276727   2.263   2.086  12.938 -0.8271  1.6262 -0.6685
18438TIP3   OH276728   0.700   1.154  11.011 -0.1294  0.1290 -0.4747
18438TIP3    H176729   0.656   1.238  11.029  1.4017  0.9592 -0.4946
18438TIP3    H276730   0.678   1.135  10.920 -0.5953  0.4416 -0.4332
18439TIP3   OH276731   3.614   4.982   0.643  0.3736  0.5630 -0.1506
18439TIP3    H176732   3.544   4.936   0.596  0.8557 -0.2451 -0.1026
18439TIP3    H276733   3.599   5.074   0.625 -0.8488  0.4127  0.0641
18440TIP3   OH276734   2.922   2.178   0.574 -0.2876 -0.6876  0.7996
18440TIP3    H176735   2.903   2.193   0.667  3.2174  0.6225  1.3596
18440TIP3    H276736   2.976   2.099   0.572  0.5741 -0.0946  0.0049
18441TIP3   OH276737   3.870   3.114  11.942  0.5952  0.0211  0.0256
18441TIP3    H176738   3.843   3.055  11.872 -0.3107  0.5627 -0.0967
18441TIP3    H276739   3.797   3.175  11.951  0.5715 -0.2037  1.6148
18442TIP3   OH276740   5.359   0.208  16.776 -0.0517 -0.6774  0.0854
18442TIP3    H176741   5.360   0.171  16.864  1.2361  2.0877  1.3028
18442TIP3    H276742   5.350   0.133  16.718  1.3789 -2.7548  2.4674
18443TIP3   OH276743   0.837   5.683  17.017 -0.0303 -0.5624 -0.1947
18443TIP3    H176744   0.823   5.714  16.928 -1.0498 -0.0351  0.1371
18443TIP3    H276745   0.933   5.680  17.027  0.1184  2.8483 -0.1220
18444TIP3   OH276746   3.275   3.142  11.262 -0.2569 -0.4956 -0.1066
18444TIP3    H176747   3.300   3.137  11.170  1.3249 -1.0060  0.3232
18444TIP3    H276748   3.335   3.082  11.306 -1.3329 -0.6370  1.1892
18445TIP3   OH276749   2.435   0.296  12.800  0.1009 -0.3601  0.0515
18445TIP3    H176750   2.457   0.328  12.888  0.8001  0.3347 -0.3752
18445TIP3    H276751   2.385   0.216  12.816  1.3607 -0.9548  1.0750
18446TIP3   OH276752   1.569   1.404   3.387  0.3028 -0.2160  0.3578
18446TIP3    H176753   1.552   1.440   3.299 -1.2851 -2.3053 -0.2309
18446TIP3    H276754   1.609   1.477   3.435  0.8983  1.0746 -1.9860
18447TIP3   OH276755   1.678   0.523   4.425 -0.3238  0.2948 -0.3526
18447TIP3    H176756   1.692   0.510   4.518 -0.1510 -0.8774 -0.5301
18447TIP3    H276757   1.675   0.618   4.413 -2.5461  0.4639  1.1699
18448TIP3   OH276758   1.474   3.673  16.630  0.0959 -0.8436  0.3146
18448TIP3    H176759   1.564   3.650  16.610 -0.2008 -1.1534 -0.7171
18448TIP3    H276760   1.460   3.757  16.586 -0.4350 -1.3233 -0.4524
18449TIP3   OH276761   3.512   2.544  15.023  0.0227  0.5522  0.3689
18449TIP3    H176762   3.536   2.577  14.937  0.8773  1.6861  1.0295
18449TIP3    H276763   3.453   2.611  15.058 -0.4567  0.0132  0.5942
18450TIP3   OH276764   0.352   1.789   0.768  0.1872 -0.1022 -0.2985
18450TIP3    H176765   0.421   1.811   0.831 -0.1369  1.1874 -0.3941
18450TIP3    H276766   0.315   1.873   0.742 -1.7302 -0.7989  0.0734
18451TIP3   OH276767   0.835   3.444   0.508  0.7859  0.4970  0.6787
18451TIP3    H176768   0.899   3.386   0.466  0.8578  1.1274 -0.0785
18451TIP3    H276769   0.750   3.407   0.484  0.7669  1.9245 -1.6076
18452TIP3   OH276770   5.002   4.429   5.386  0.0744 -0.1795  0.3680
18452TIP3    H176771   4.919   4.433   5.433 -0.5937  2.2195 -0.9081
18452TIP3    H276772   5.069   4.436   5.454 -0.8753  4.1998  1.0208
18453TIP3   OH276773   6.602   2.702   1.053 -1.1271  0.3729 -0.5993
18453TIP3    H176774   6.591   2.609   1.073  0.5051  1.1096  4.3780
18453TIP3    H276775   6.680   2.705   0.998 -0.2958 -1.1260  0.4427
18454TIP3   OH276776   5.066   1.790  17.010  0.0026 -0.0498 -0.1719
18454TIP3    H176777   5.011   1.728  17.058 -1.2842  1.0905 -0.1677
18454TIP3    H276778   5.022   1.802  16.926  0.5711  0.3905 -0.4142
18455TIP3   OH276779   4.229   5.361  14.934  0.2203 -0.0427  0.2773
18455TIP3    H176780   4.224   5.378  15.028  0.0489 -0.6942  0.3890
18455TIP3    H276781   4.163   5.293  14.919  1.2605 -0.9736 -0.0721
18456TIP3   OH276782   1.124   4.245   3.926 -0.0872 -0.3608 -0.4228
18456TIP3    H176783   1.090   4.334   3.919 -0.6566 -0.6967 -1.9837
18456TIP3    H276784   1.053   4.189   3.896  0.0839 -1.3873  1.0311
18457TIP3   OH276785   0.459   4.153   1.318  0.3406 -0.7558 -0.4823
18457TIP3    H176786   0.377   4.118   1.283  0.2858 -0.5655 -0.5432
18457TIP3    H276787   0.458   4.130   1.411 -0.7754  1.1297 -0.0088
18458TIP3   OH276788   4.375   0.124   6.075  0.2555 -0.0312 -0.2861
18458TIP3    H176789   4.384   0.150   6.167  0.3570  1.4052 -0.6991
18458TIP3    H276790   4.383   0.029   6.077  0.3754 -0.0066  1.1827
18459TIP3   OH276791   2.303   5.925   1.219 -0.2530 -0.5164  0.4428
18459TIP3    H176792   2.269   5.865   1.285  0.9811 -1.3368  0.3618
18459TIP3    H276793   2.254   5.905   1.139 -2.0593  0.7798  1.1869
18460TIP3   OH276794   0.049   3.184   0.882 -0.5322  0.1310  0.0545
18460TIP3    H176795  -0.011   3.204   0.954  0.7276  1.9411  0.6546
18460TIP3    H276796   0.047   3.089   0.874 -2.0175  0.0432  1.3283
18461TIP3   OH276797   4.098   3.025  16.843  0.6323  0.6981 -0.4643
18461TIP3    H176798   4.090   2.973  16.763  0.5639  1.2547 -0.8246
18461TIP3    H276799   4.190   3.018  16.867  0.0680 -1.8829  1.0655
18462TIP3   OH276800   1.070   3.292   0.508  0.5160 -0.0666 -0.1108
18462TIP3    H176801   1.137   3.345   0.553 -0.7243  1.3097  0.1519
18462TIP3    H276802   1.040   3.231   0.575  0.4517  0.3161  0.2168
18463TIP3   OH276803   2.082   1.827   3.051 -0.0984 -0.0423 -0.4092
18463TIP3    H176804   2.116   1.915   3.032  0.3325 -0.3329 -1.0002
18463TIP3    H276805   2.088   1.819   3.146  1.0424  0.0932 -0.4691
18464TIP3   OH276806   6.430   4.221   0.858  0.0516  0.3748 -0.0194
18464TIP3    H176807   6.497   4.219   0.790  1.0420  0.7126  0.9360
18464TIP3    H276808   6.470   4.268   0.931 -1.6395  1.6527  0.1421
18465TIP3   OH276809   3.244   1.919   5.567  0.8481  0.2819  0.7101
18465TIP3    H176810   3.259   1.826   5.551 -1.1654  0.1651 -0.5877
18465TIP3    H276811   3.260   1.961   5.483 -0.7332  0.7981  0.6524
18466TIP3   OH276812   3.382   0.113   0.726  0.3663  0.0304 -0.2922
18466TIP3    H176813   3.292   0.090   0.706 -0.5169  1.3063  1.9635
18466TIP3    H276814   3.434   0.074   0.656 -1.7444 -2.3954 -0.5446
18467TIP3   OH276815   4.485   2.296   1.046 -0.0179  0.8519 -0.3514
18467TIP3    H176816   4.439   2.344   1.114 -1.3469  0.7439 -1.1459
18467TIP3    H276817   4.465   2.344   0.965 -0.0648 -0.1358 -0.9308
18468TIP3   OH276818   6.424   6.754  11.101  0.2222  0.4542 -0.5313
18468TIP3    H176819   6.343   6.732  11.055 -0.9190 -0.9203  2.0206
18468TIP3    H276820   6.399   6.826  11.160  1.0476  0.5389 -0.2834
18469TIP3   OH276821   2.051   5.758  13.087 -0.1299  0.1632 -0.5195
18469TIP3    H176822   2.043   5.835  13.144 -0.9521 -0.7494  0.6074
18469TIP3    H276823   2.145   5.742  13.082 -0.1262 -0.6696  1.8326
18470TIP3   OH276824   0.413   0.684   0.270 -0.1874 -0.0333  0.5314
18470TIP3    H176825   0.335   0.675   0.217 -0.5523  1.1118  0.8772
18470TIP3    H276826   0.383   0.668   0.360  0.3814 -1.7261  0.4542
18471TIP3   OH276827   2.626   2.853  11.700  0.0503 -0.4899 -0.0613
18471TIP3    H176828   2.548   2.825  11.651  0.1263  0.1520 -0.5723
18471TIP3    H276829   2.601   2.846  11.792 -1.3335  1.6245 -0.2292
18472TIP3   OH276830   1.999   4.170  14.014 -0.4088 -0.1804 -0.2595
18472TIP3    H176831   2.014   4.262  13.991 -0.8647  0.0998  0.5345
18472TIP3    H276832   1.975   4.172  14.107 -1.4515 -1.0048 -0.5040
18473TIP3   OH276833   2.021   1.421   4.007 -0.2693  0.3765  0.2369
18473TIP3    H176834   1.950   1.437   4.068  0.7561  0.1030  1.5320
18473TIP3    H276835   1.983   1.438   3.921 -2.1137 -0.5331  0.8418
18474TIP3   OH276836   0.228   2.320   2.661 -0.7484 -0.3423 -0.2881
18474TIP3    H176837   0.301   2.369   2.623 -1.0808  1.1651  0.9691
18474TIP3    H276838   0.237   2.232   2.625 -0.1096  0.6226 -2.5563
18475TIP3   OH276839   6.119   6.760  15.065  0.4228  0.1705  0.0491
18475TIP3    H176840   6.035   6.785  15.104 -0.0029 -0.9057 -0.1493
18475TIP3    H276841   6.114   6.790  14.975  0.5580  0.7972  0.2545
18476TIP3   OH276842   1.044   4.410  15.979 -0.0532  0.2113 -0.3838
18476TIP3    H176843   0.984   4.385  15.909 -0.2452 -0.2226 -0.0648
18476TIP3    H276844   0.998   4.387  16.060  0.8263 -0.8122 -0.1496
18477TIP3   OH276845   5.226   4.631  13.196 -0.4057  0.0900  0.1436
18477TIP3    H176846   5.202   4.643  13.104  0.0772  0.1925  0.0309
18477TIP3    H276847   5.153   4.669  13.245  0.1242  1.6226 -0.2085
18478TIP3   OH276848   5.529   3.523   2.923  0.0420  0.4855  0.1249
18478TIP3    H176849   5.503   3.502   2.834  0.3929  1.7210 -0.2781
18478TIP3    H276850   5.625   3.526   2.920  0.1158 -0.8487  0.8641
18479TIP3   OH276851   1.768   1.589  14.801  0.3051 -0.2691  0.2106
18479TIP3    H176852   1.686   1.540  14.795  0.6682 -0.7511 -0.9981
18479TIP3    H276853   1.745   1.669  14.848 -0.9331 -0.2363 -0.4184
18480TIP3   OH276854   4.783   0.367  10.946 -0.5713 -0.0758  0.3525
18480TIP3    H176855   4.792   0.392  11.038 -2.4815  3.2766 -0.3047
18480TIP3    H276856   4.787   0.271  10.947  0.7734 -0.0306  3.7542
18481TIP3   OH276857   3.956   3.871  12.649  0.9011  0.2281  0.1667
18481TIP3    H176858   3.973   3.791  12.698  0.0849  1.0128  1.7510
18481TIP3    H276859   3.863   3.890  12.666  1.3951  2.1633  0.7864
18482TIP3   OH276860   0.294   2.811  12.058 -0.3004  0.6415 -0.1167
18482TIP3    H176861   0.299   2.886  11.999  0.8503  1.9398  1.5734
18482TIP3    H276862   0.286   2.735  12.000  2.8412  1.6758 -2.0554
18483TIP3   OH276863   1.890   2.198  12.010 -0.3705 -0.0497  0.5902
18483TIP3    H176864   1.971   2.230  12.050  0.0750 -0.3876 -0.0262
18483TIP3    H276865   1.884   2.107  12.040 -0.9618  0.2235  1.3079
18484TIP3   OH276866   5.755   5.115   0.530  0.0661 -0.2051 -0.3251
18484TIP3    H176867   5.739   5.091   0.439 -0.2641  0.9718 -0.5889
18484TIP3    H276868   5.692   5.063   0.580 -0.3068 -0.2477 -0.8329
18485TIP3   OH276869   5.571   1.038   1.647 -0.4517 -0.1914  0.4072
18485TIP3    H176870   5.665   1.020   1.639 -0.4472 -0.4553  1.0289
18485TIP3    H276871   5.543   0.985   1.721 -1.0572  0.0358  0.3421
18486TIP3   OH276872   4.665   0.122  10.351  0.0216  0.1586 -0.5628
18486TIP3    H176873   4.574   0.147  10.368  0.3281  0.6116  0.4912
18486TIP3    H276874   4.702   0.107  10.438  1.2004  0.8534 -0.9319
18487TIP3   OH276875   4.462   1.451   3.781 -0.2494 -0.5150 -0.1510
18487TIP3    H176876   4.489   1.371   3.826 -1.6035 -1.3298 -0.7562
18487TIP3    H276877   4.515   1.453   3.701  0.4355 -0.3241  0.3023
18488TIP3   OH276878   3.339   4.421   0.848  0.7739  0.1814 -0.7442
18488TIP3    H176879   3.255   4.416   0.802  0.1778 -0.3314  0.3608
18488TIP3    H276880   3.378   4.503   0.819 -1.0537  1.4437  0.3007
18489TIP3   OH276881   0.518   4.337  16.534 -0.0886 -0.7022  0.4054
18489TIP3    H176882   0.557   4.279  16.469  2.0598 -0.4554  1.4073
18489TIP3    H276883   0.504   4.419  16.487  1.2886 -0.5781  0.1813
18490TIP3   OH276884   2.715   0.306   2.670  0.3645  0.4033 -0.1607
18490TIP3    H176885   2.774   0.347   2.733  0.0315  0.3684  0.1789
18490TIP3    H276886   2.661   0.247   2.723 -0.2350  0.7252 -0.4127
18491TIP3   OH276887   2.169   2.731   3.135  0.0086  0.0431 -0.0328
18491TIP3    H176888   2.078   2.744   3.160 -0.1484 -0.7325 -0.1873
18491TIP3    H276889   2.215   2.807   3.171 -0.8938  1.0766 -1.0277
18492TIP3   OH276890   4.673   5.476  13.682 -0.2917 -0.1639 -0.2721
18492TIP3    H176891   4.737   5.522  13.736 -0.3386  0.4816 -0.7691
18492TIP3    H276892   4.653   5.397  13.732  1.5927 -0.8456 -0.5285
18493TIP3   OH276893   2.416   2.962  16.519 -0.2111  0.2949  0.2462
18493TIP3    H176894   2.399   3.052  16.490 -0.5505 -0.0894 -0.7787
18493TIP3    H276895   2.509   2.948  16.500 -0.2098  0.3567  0.2062
18494TIP3   OH276896   4.968   2.012   1.615 -0.1974  0.0922  0.2078
18494TIP3    H176897   4.952   2.080   1.549  0.8337 -0.1994 -0.3637
18494TIP3    H276898   5.049   2.040   1.658 -0.9386  0.3513  1.4565
18495TIP3   OH276899   0.345   6.660  11.859  0.2334 -0.0590 -0.0362
18495TIP3    H176900   0.425   6.617  11.888  1.3065  0.2885 -2.3911
18495TIP3    H276901   0.337   6.737  11.915  1.1326 -0.4862  0.6845
18496TIP3   OH276902   1.914   6.492   0.860 -0.1302  0.1411  0.4234
18496TIP3    H176903   1.898   6.436   0.936  0.5519 -0.0781  0.4019
18496TIP3    H276904   1.977   6.556   0.890  1.1151 -0.7200 -0.3278
18497TIP3   OH276905   5.012   4.314   2.346 -0.1064  0.7648 -0.0663
18497TIP3    H176906   4.994   4.371   2.271 -1.2194  1.2323  0.5527
18497TIP3    H276907   4.927   4.302   2.389 -0.1576 -2.4465 -0.9363
18498TIP3   OH276908   4.782   3.472   4.062  0.0695 -0.7940 -0.0112
18498TIP3    H176909   4.746   3.493   3.976  0.7169  0.9206  0.1266
18498TIP3    H276910   4.877   3.477   4.052  0.2033 -1.9431  0.4812
18499TIP3   OH276911   2.231   4.618  13.782 -0.6047  0.1111 -0.6354
18499TIP3    H176912   2.217   4.562  13.706 -2.9285  0.3131 -0.4090
18499TIP3    H276913   2.155   4.602  13.838  0.5420  0.7551  1.1566
18500TIP3   OH276914   1.293   4.330   2.278 -0.1491  0.2597  0.2884
18500TIP3    H176915   1.338   4.354   2.358  1.4445 -0.1411 -0.4786
18500TIP3    H276916   1.362   4.323   2.212 -1.3651  0.0149 -0.9862
18501TIP3   OH276917   0.112   4.256   4.298  0.3549  0.0219 -0.0016
18501TIP3    H176918   0.088   4.208   4.378 -1.4011 -0.2034 -0.6248
18501TIP3    H276919   0.188   4.308   4.322  0.1406 -0.4278  1.6838
18502TIP3   OH276920   6.030   1.427  12.959 -0.4448 -0.0476 -0.5702
18502TIP3    H176921   6.052   1.339  12.991 -3.0731 -1.2108 -1.8558
18502TIP3    H276922   6.094   1.444  12.890  1.1409 -0.2184  0.8222
18503TIP3   OH276923   3.141   6.524  12.555 -0.3230 -0.2139 -0.2209
18503TIP3    H176924   3.173   6.453  12.500  1.6578  1.3995 -1.2268
18503TIP3    H276925   3.063   6.556  12.511  0.2205 -0.1282 -1.1271
18504TIP3   OH276926   6.595   2.527   5.949  0.2317 -0.7527 -0.4374
18504TIP3    H176927   6.560   2.484   6.027 -0.5228 -0.8525 -0.8249
18504TIP3    H276928   6.599   2.458   5.883  0.8177 -0.6555 -0.5078
18505TIP3   OH276929   4.149   3.783   1.338 -0.5141  0.3258 -0.6045
18505TIP3    H176930   4.147   3.738   1.423  0.5656 -2.6076 -2.0629
18505TIP3    H276931   4.063   3.767   1.300 -0.2751 -0.1660 -0.9452
18506TIP3   OH276932   0.463   1.824   4.070  0.1128 -0.0038  0.0283
18506TIP3    H176933   0.430   1.734   4.077 -2.1079  0.6581 -1.2179
18506TIP3    H276934   0.440   1.864   4.154  2.4523 -0.9678  1.1834
18507TIP3   OH276935   6.766   5.612   5.104 -0.5753 -0.5724  0.1543
18507TIP3    H176936   6.841   5.670   5.099 -0.5742 -0.6980 -1.6044
18507TIP3    H276937   6.779   5.562   5.184  0.7056  0.0970  0.3665
18508TIP3   OH276938   5.796   5.201   0.787 -0.7195 -0.3937 -0.0403
18508TIP3    H176939   5.796   5.198   0.692 -1.6569  0.7810 -0.0970
18508TIP3    H276940   5.741   5.277   0.808 -1.5673 -1.3994  1.4412
18509TIP3   OH276941   2.770   5.435  16.931 -0.0084 -0.0923 -0.7663
18509TIP3    H176942   2.824   5.471  16.860 -0.6782 -0.3768 -1.4366
18509TIP3    H276943   2.810   5.351  16.952  1.2727  0.8199  0.4621
18510TIP3   OH276944   4.616   2.289   2.116  0.3743 -0.3678  0.6183
18510TIP3    H176945   4.521   2.300   2.117  0.5152  0.9079  0.9089
18510TIP3    H276946   4.630   2.194   2.124 -0.8729 -0.6124 -0.0606
18511TIP3   OH276947   4.358   2.572   4.185  0.2048 -0.1149  0.1993
18511TIP3    H176948   4.443   2.557   4.225 -0.2370  1.0147  1.6006
18511TIP3    H276949   4.353   2.667   4.173 -0.5311 -0.2466 -0.5841
18512TIP3   OH276950   1.654   3.010  14.164 -0.0856  0.1887  0.2624
18512TIP3    H176951   1.733   2.965  14.134 -0.9731 -2.2682  1.4634
18512TIP3    H276952   1.582   2.952  14.140 -1.4824  1.9787 -0.0292
18513TIP3   OH276953   2.523   6.591  12.238  0.1478  0.6098 -0.0017
18513TIP3    H176954   2.444   6.596  12.292 -0.1462  0.3180 -0.4045
18513TIP3    H276955   2.501   6.642  12.160  0.2395  0.2601 -0.2572
18514TIP3   OH276956   6.102   1.909  11.755  0.0176  0.6469 -0.4991
18514TIP3    H176957   6.019   1.893  11.800  0.4780 -1.3251 -0.2978
18514TIP3    H276958   6.162   1.934  11.825  0.0858  0.1064 -0.3603
18515TIP3   OH276959   0.541   4.849  10.380 -0.4310 -1.0238  0.5653
18515TIP3    H176960   0.446   4.842  10.377 -0.4447 -0.4094 -0.2834
18515TIP3    H276961   0.571   4.758  10.391 -1.1444 -1.1096  1.9396
18516TIP3   OH276962   3.198   6.337   2.334  0.0425  0.2021  0.5328
18516TIP3    H176963   3.123   6.330   2.275  0.4070  0.5220  0.0271
18516TIP3    H276964   3.209   6.249   2.370  1.7223 -0.7783 -2.2190
18517TIP3   OH276965   1.707   0.022  16.791 -0.9505  0.0549 -0.5218
18517TIP3    H176966   1.744  -0.039  16.855 -2.3103 -1.8965 -1.5720
18517TIP3    H276967   1.685   0.100  16.843 -0.2198 -0.7456  1.0292
18518TIP3   OH276968   4.843   0.084  10.885  0.3708  0.3039 -0.1762
18518TIP3    H176969   4.850   0.018  10.815  0.8525 -0.2583  0.3851
18518TIP3    H276970   4.795   0.039  10.954  0.7839  0.5169  0.2460
18519TIP3   OH276971   6.525   6.091  14.673 -0.1742  0.1037  0.0258
18519TIP3    H176972   6.513   6.162  14.736  1.6889  0.9960 -0.6110
18519TIP3    H276973   6.554   6.134  14.593  1.7810 -1.4221 -0.1290
18520TIP3   OH276974   5.639   2.430  13.744  0.5209  0.6373  0.1700
18520TIP3    H176975   5.556   2.457  13.704  0.2650 -0.5519 -0.1288
18520TIP3    H276976   5.701   2.430  13.672  0.7667  1.4150  0.3726
18521TIP3   OH276977   5.334   5.643  11.404 -0.1576  0.1013  0.3731
18521TIP3    H176978   5.271   5.693  11.455  0.6458  1.1257  0.3792
18521TIP3    H276979   5.307   5.552  11.416 -1.0968  0.4598  1.0955
18522TIP3   OH276980   3.318   2.871   6.425  0.4169  0.1591  0.1973
18522TIP3    H176981   3.368   2.859   6.344  0.8274  0.7409  0.3640
18522TIP3    H276982   3.247   2.931   6.400  0.5229  0.3101  0.2543
18523TIP3   OH276983   5.001   3.232   1.920  0.1451 -0.3549  0.0652
18523TIP3    H176984   5.026   3.170   1.988 -0.3449 -0.9941 -0.3302
18523TIP3    H276985   5.024   3.188   1.838  1.6707  0.8175 -0.1738
18524TIP3   OH276986   0.173   6.730  14.781  0.2110 -0.4590 -0.7200
18524TIP3    H176987   0.117   6.729  14.859 -0.1522 -2.1929 -0.9830
18524TIP3    H276988   0.118   6.771  14.714 -0.0413 -0.3860 -0.4734
18525TIP3   OH276989   3.257   0.534   1.917  0.0564 -0.3134  0.2360
18525TIP3    H176990   3.352   0.518   1.922  0.5624  1.5812 -2.5032
18525TIP3    H276991   3.225   0.468   1.855 -0.5387 -1.3103  1.5802
18526TIP3   OH276992   4.238   0.955  10.028 -0.5783 -0.3378 -0.5220
18526TIP3    H176993   4.318   0.926   9.985 -0.0109  2.7645 -1.6674
18526TIP3    H276994   4.267   1.011  10.099 -1.7231  0.4748 -0.6774
18527TIP3   OH276995   0.116   6.470  13.620  0.2999  0.3091  0.2752
18527TIP3    H176996   0.130   6.444  13.711 -1.3670 -0.6333  0.2767
18527TIP3    H276997   0.030   6.435  13.598  0.0358  1.8137 -1.1992
18528TIP3   OH276998   0.850   3.499   3.939 -0.5870 -0.8387 -0.0227
18528TIP3    H176999   0.848   3.466   4.029 -0.6032  1.2339  0.7891
18528TIP3    H277000   0.936   3.541   3.931  0.6403 -3.5616 -1.9910
18529TIP3   OH277001   4.636   5.555   1.563 -0.4241  0.3034 -0.1797
18529TIP3    H177002   4.695   5.545   1.488  0.5809  0.0054  0.6355
18529TIP3    H277003   4.669   5.632   1.609 -0.2979 -0.2251  0.6156
18530TIP3   OH277004   4.810   4.252  10.854 -0.1403 -0.4568 -0.0114
18530TIP3    H177005   4.844   4.298  10.777  0.5524  0.0414  0.5859
18530TIP3    H277006   4.888   4.221  10.901 -0.5203 -0.0232  0.9267
18531TIP3   OH277007   5.961   1.835  12.126 -0.2500  0.1400  0.6622
18531TIP3    H177008   5.992   1.850  12.216  2.1943  2.0076 -0.4390
18531TIP3    H277009   5.929   1.920  12.097  0.2978 -0.1235 -0.7438
18532TIP3   OH277010   4.368   1.913  10.951 -0.0945 -0.0544  0.0378
18532TIP3    H177011   4.394   1.883  10.864  0.4274 -0.7722  0.4320
18532TIP3    H277012   4.347   2.005  10.940  2.5688  0.5459 -0.3104
18533TIP3   OH277013   4.947   2.923   3.753 -0.2546 -0.0729  0.1989
18533TIP3    H177014   4.911   2.849   3.802  0.5446 -0.0937  0.7818
18533TIP3    H277015   4.973   2.886   3.669 -0.1710 -0.3932  0.3627
18534TIP3   OH277016   3.898   5.393   5.917 -0.4723 -0.1691 -0.1016
18534TIP3    H177017   3.892   5.449   5.994 -0.5417 -1.4992  0.8800
18534TIP3    H277018   3.872   5.306   5.948  0.6155 -0.9665 -1.3537
18535TIP3   OH277019   2.317   3.794  17.075  0.2599  0.4641  0.0391
18535TIP3    H177020   2.354   3.706  17.085 -0.3285  0.1681 -0.4109
18535TIP3    H277021   2.223   3.782  17.083  0.1293  0.9581 -0.7163
18536TIP3   OH277022   5.227   4.806  11.309  0.5837  0.4470 -0.0588
18536TIP3    H177023   5.267   4.892  11.317  1.9661 -0.3402  2.1893
18536TIP3    H277024   5.272   4.753  11.376 -0.6207 -1.8484 -1.0144
18537TIP3   OH277025   6.786   6.169  12.006  0.1160  0.3124  0.1892
18537TIP3    H177026   6.831   6.175  12.090 -1.5079  1.7208  0.9675
18537TIP3    H277027   6.697   6.143  12.028 -0.1239 -0.0474 -1.1640
18538TIP3   OH277028   2.261   3.692  12.851  0.4597  0.5288  0.3650
18538TIP3    H177029   2.306   3.678  12.934  3.1377  1.3925 -0.9078
18538TIP3    H277030   2.257   3.787  12.841  0.4032  0.4222 -0.6536
18539TIP3   OH277031   3.235   5.794  11.934 -0.0699 -0.4681 -0.4778
18539TIP3    H177032   3.323   5.813  11.901  0.4127  0.2262  1.1963
18539TIP3    H277033   3.186   5.874  11.918 -0.6528 -1.1284 -2.1630
18540TIP3   OH277034   2.152   3.418   0.879  0.2035 -0.0408  0.0671
18540TIP3    H177035   2.099   3.388   0.953 -1.3402 -0.0244 -1.0033
18540TIP3    H277036   2.210   3.484   0.916 -1.7064  1.1835  0.9625
18541TIP3   OH277037   2.874   4.921  16.479 -0.0088  0.4476 -0.1042
18541TIP3    H177038   2.871   4.847  16.540 -0.2243  0.5955  0.0659
18541TIP3    H277039   2.792   4.968  16.495  0.5375  1.2192  0.4198
18542TIP3   OH277040   3.336   0.004   1.415  0.2785 -0.0264  0.3440
18542TIP3    H177041   3.420   0.038   1.384  0.4903 -0.5207  0.3718
18542TIP3    H277042   3.342  -0.091   1.401  0.7115 -0.3650  2.6663
18543TIP3   OH277043   0.796   1.422   0.885  0.1267 -0.6678  0.0985
18543TIP3    H177044   0.736   1.447   0.956 -0.6723 -0.4961 -0.6385
18543TIP3    H277045   0.830   1.336   0.912  0.7659 -0.0484  1.2876
18544TIP3   OH277046   5.230   0.582  11.712  0.1368 -0.7076 -0.5090
18544TIP3    H177047   5.167   0.517  11.744 -0.1792 -0.7706 -1.2646
18544TIP3    H277048   5.301   0.530  11.673  0.1850 -0.6132 -0.5472
18545TIP3   OH277049   5.395   2.247  11.921  0.1065 -0.4759  0.0188
18545TIP3    H177050   5.473   2.196  11.901 -0.6064 -2.0233  1.1032
18545TIP3    H277051   5.359   2.272  11.836  1.0233 -0.9145 -0.4987
18546TIP3   OH277052   2.111   0.384  14.240  0.0888  0.7627  0.1762
18546TIP3    H177053   2.116   0.402  14.334  0.3980 -0.2917  0.3664
18546TIP3    H277054   2.017   0.370  14.224  0.2287 -0.9045  0.6935
18547TIP3   OH277055   4.636   5.357   5.576  0.1965 -0.2052 -0.0903
18547TIP3    H177056   4.628   5.336   5.483  1.0963 -2.0652  0.2329
18547TIP3    H277057   4.547   5.349   5.610  0.4104 -3.0431 -0.0977
18548TIP3   OH277058   1.230   4.136  12.341  0.1329 -0.2362 -0.1839
18548TIP3    H177059   1.316   4.153  12.303 -0.0547 -0.0060 -0.5101
18548TIP3    H277060   1.197   4.061  12.292  0.2946 -0.5405  0.1757
18549TIP3   OH277061   6.408   1.713  16.335 -0.1804  0.1149  0.0364
18549TIP3    H177062   6.348   1.658  16.285 -0.0700 -0.8097  0.9057
18549TIP3    H277063   6.372   1.714  16.424  0.1983  0.8734  0.1846
18550TIP3   OH277064   4.632   5.635   1.261  0.3762  0.3992 -0.2180
18550TIP3    H177065   4.574   5.560   1.273  2.0450 -1.4846 -3.3908
18550TIP3    H277066   4.587   5.689   1.196  0.2882  0.9940  0.3331
18551TIP3   OH277067   6.518   2.439   1.723 -0.8020 -0.4036 -0.0683
18551TIP3    H177068   6.544   2.382   1.650  0.2782 -0.1515  0.1070
18551TIP3    H277069   6.588   2.427   1.788 -0.1714  1.6841 -0.3307
18552TIP3   OH277070   4.697   6.710   0.762  0.0920  0.0582  0.5772
18552TIP3    H177071   4.753   6.681   0.691 -0.0265  0.9901  0.0978
18552TIP3    H277072   4.608   6.687   0.734  0.2097 -1.3391  1.2978
18553TIP3   OH277073   1.037   5.919   3.289 -0.9785  0.0101  0.2227
18553TIP3    H177074   1.018   6.011   3.269  1.7542  0.5248 -0.2752
18553TIP3    H277075   0.952   5.875   3.287 -2.1332  2.2427 -1.0735
18554TIP3   OH277076   5.059   2.127   3.197 -0.1022 -0.4164  0.6090
18554TIP3    H177077   4.991   2.174   3.148 -0.9522 -0.3546  1.8422
18554TIP3    H277078   5.097   2.067   3.132 -1.2912 -0.4142 -0.1119
18555TIP3   OH277079   1.007   5.476   5.833 -0.5713 -0.0571 -0.3809
18555TIP3    H177080   1.065   5.472   5.909 -0.0128  0.0928 -0.7943
18555TIP3    H277081   0.931   5.526   5.863 -0.9697 -1.1636  0.4752
18556TIP3   OH277082   2.934   5.827   3.408 -0.6060 -0.6554  0.0884
18556TIP3    H177083   2.880   5.850   3.333  0.7476  1.6946 -0.2399
18556TIP3    H277084   2.872   5.797   3.475 -2.1298  0.3902 -0.8354
18557TIP3   OH277085   1.959   3.091  16.672  0.1119  0.1104  1.0775
18557TIP3    H177086   2.022   3.054  16.734  1.7379  0.1546 -0.5249
18557TIP3    H277087   1.981   3.052  16.588 -0.7324  1.6440  0.1124
18558TIP3   OH277088   0.095   6.536   0.641 -0.4295  0.4165 -0.3135
18558TIP3    H177089   0.091   6.575   0.554 -1.0937  0.6864 -0.1650
18558TIP3    H277090   0.146   6.456   0.630 -1.4636 -0.1252 -1.1567
18559TIP3   OH277091   6.626   2.059  14.706 -0.0495  0.5225  0.1040
18559TIP3    H177092   6.709   2.045  14.660  0.5226 -0.1863  1.3218
18559TIP3    H277093   6.643   2.029  14.796 -1.4367  0.9560  0.5243
18560TIP3   OH277094   5.620   3.803   0.135 -0.3320  0.4134 -0.1521
18560TIP3    H177095   5.559   3.798   0.061  0.3319 -1.2367 -0.6056
18560TIP3    H277096   5.567   3.783   0.211 -0.7023  0.6344 -0.3498
18561TIP3   OH277097   3.749   3.579   5.037 -0.3176 -0.2685 -0.5824
18561TIP3    H177098   3.737   3.654   5.095  1.4300  0.3471 -0.9819
18561TIP3    H277099   3.820   3.528   5.077 -0.8674 -1.2318 -0.8036
18562TIP3   OH277100   5.933   5.205  16.376  0.1103  0.1125 -0.1489
18562TIP3    H177101   5.881   5.168  16.447 -1.2225 -0.6625 -1.5162
18562TIP3    H277102   5.894   5.290  16.358 -0.5280 -0.3587 -1.0021
18563TIP3   OH277103   1.395   1.251  11.109  0.3528 -0.0650 -0.0457
18563TIP3    H177104   1.343   1.282  11.035 -0.4763  0.5500  0.7913
18563TIP3    H277105   1.451   1.325  11.132  2.1471 -0.9505 -1.3974
18564TIP3   OH277106   2.239   4.399   0.293 -0.2126 -0.4223  0.1739
18564TIP3    H177107   2.280   4.313   0.299  0.8554  0.1566  1.7193
18564TIP3    H277108   2.311   4.461   0.303 -1.1990  0.6324  1.0079
18565TIP3   OH277109   1.849   2.893  14.400 -0.1000 -0.7293 -0.6024
18565TIP3    H177110   1.817   2.803  14.406 -1.3706 -0.2389  0.1733
18565TIP3    H277111   1.858   2.910  14.307  2.7150 -2.5466 -0.7255
18566TIP3   OH277112   4.194   1.802   0.258  0.8706  0.7331  0.4742
18566TIP3    H177113   4.180   1.896   0.258 -1.2938  0.4548  2.5874
18566TIP3    H277114   4.113   1.765   0.223  2.7321 -0.2977 -3.0621
18567TIP3   OH277115   0.215   2.639   1.897  0.3794 -0.9205 -0.4077
18567TIP3    H177116   0.134   2.601   1.932 -0.4752  0.3053 -0.9898
18567TIP3    H277117   0.252   2.687   1.972  0.7130 -1.7154 -0.0638
18568TIP3   OH277118   4.874   0.894   4.027 -0.5480 -0.2666  0.3984
18568TIP3    H177119   4.956   0.859   4.061 -0.5398 -0.8955 -0.2646
18568TIP3    H277120   4.832   0.820   3.983 -2.0185 -0.2428  1.7394
18569TIP3   OH277121   5.820   1.211   1.013 -0.7816 -0.2303 -0.2858
18569TIP3    H177122   5.836   1.255   1.096 -2.7072 -0.4737  0.2432
18569TIP3    H277123   5.761   1.269   0.966 -0.4625 -0.5465 -1.0909
18570TIP3   OH277124   1.995   5.177  16.381  0.2299  0.7343  0.4315
18570TIP3    H177125   2.064   5.215  16.435  0.9140 -1.2034  0.9706
18570TIP3    H277126   2.006   5.083  16.392  0.0432  0.3177 -2.6952
18571TIP3   OH277127   0.052   5.013  14.488  0.4819  0.0115 -0.5761
18571TIP3    H177128   0.091   5.046  14.570  1.0234  0.6408 -1.0845
18571TIP3    H277129   0.107   4.938  14.465 -0.8579 -1.4077  0.6758
18572TIP3   OH277130   5.996   1.904   0.576  0.5940 -0.3792  0.6985
18572TIP3    H177131   5.909   1.936   0.553  1.4493  1.6478  0.1629
18572TIP3    H277132   5.983   1.812   0.600 -1.7001 -0.0515  0.7635
18573TIP3   OH277133   4.739   1.481  12.586  0.3398  0.0618 -0.0829
18573TIP3    H177134   4.645   1.462  12.590  0.5622 -0.9274  1.0335
18573TIP3    H277135   4.766   1.453  12.498 -0.4958  0.7893 -0.5725
18574TIP3   OH277136   5.432   4.130  14.164 -0.3738  0.6070 -0.1305
18574TIP3    H177137   5.514   4.143  14.211 -0.3850  0.4035 -0.0568
18574TIP3    H277138   5.421   4.035  14.159 -0.4323  0.6276 -0.4363
18575TIP3   OH277139   0.454   4.003   2.291 -0.6599  0.0071  0.3227
18575TIP3    H177140   0.361   4.021   2.307 -0.2262  2.5778  0.2084
18575TIP3    H277141   0.493   4.000   2.379 -0.6992 -0.0861  0.3364
18576TIP3   OH277142   2.980   0.260  13.453 -0.2190  0.6441 -0.0669
18576TIP3    H177143   3.067   0.277  13.416 -0.1510 -2.2753 -1.3399
18576TIP3    H277144   2.992   0.181  13.506 -1.7954  1.0379  0.8886
18577TIP3   OH277145   6.518   6.784   5.174  0.3154 -0.1318 -0.0135
18577TIP3    H177146   6.487   6.831   5.097  1.0190  1.8766  0.8681
18577TIP3    H277147   6.439   6.764   5.224  0.1184  2.0557  0.6264
18578TIP3   OH277148   2.340   5.069  15.360 -0.3742 -0.2434 -0.0362
18578TIP3    H177149   2.358   5.020  15.280 -4.7926  0.1161 -1.4026
18578TIP3    H277150   2.358   5.008  15.430  2.2214 -1.0385 -1.3456
18579TIP3   OH277151   1.580   5.916   0.667  0.5912  0.2699 -0.4033
18579TIP3    H177152   1.628   5.969   0.603 -1.2463  0.7261 -1.4453
18579TIP3    H277153   1.513   5.976   0.701  0.8050 -0.3293  1.0873
18580TIP3   OH277154   3.839   3.510   1.474 -0.3441  0.0390 -0.4721
18580TIP3    H177155   3.750   3.479   1.491  0.1216  0.0170  2.2216
18580TIP3    H277156   3.882   3.506   1.560  2.1121  0.5051 -1.6387
18581TIP3   OH277157   5.275   4.403  15.918 -0.7166 -0.0169 -0.0565
18581TIP3    H177158   5.277   4.438  15.829  2.7504 -0.9260 -0.4077
18581TIP3    H277159   5.212   4.331  15.914 -1.7649  0.9441 -1.3553
18582TIP3   OH277160   1.144   4.121   6.580 -1.0073 -0.1010 -0.4205
18582TIP3    H177161   1.227   4.151   6.545 -0.9543  0.1823 -0.0537
18582TIP3    H277162   1.162   4.033   6.614 -0.1438  1.0539  2.2667
18583TIP3   OH277163   0.267   3.909  12.505 -0.1149 -0.1205 -1.0288
18583TIP3    H177164   0.241   3.843  12.441  1.9529 -0.2722 -1.7332
18583TIP3    H277165   0.260   3.992  12.457  0.0797 -0.0937 -1.0077
18584TIP3   OH277166   3.160   5.849  17.217 -0.1693  0.1235 -0.4695
18584TIP3    H177167   3.152   5.917  17.284 -0.8693 -0.6434  0.2396
18584TIP3    H277168   3.073   5.810  17.212  0.0012 -0.1316 -1.5087
18585TIP3   OH277169   4.788   3.187  15.026  0.0487  0.1913  0.2260
18585TIP3    H177170   4.784   3.276  14.990  1.3088 -0.2301 -1.0137
18585TIP3    H277171   4.772   3.198  15.120  0.6946  1.7921  0.1619
18586TIP3   OH277172   5.158   2.677  13.995 -0.1710  0.0367 -0.2955
18586TIP3    H177173   5.173   2.622  13.917 -0.2231 -1.1311  0.5039
18586TIP3    H277174   5.102   2.748  13.964  0.9300  0.3447 -1.6358
18587TIP3   OH277175   5.483   4.691   0.671 -0.3421  0.4141 -0.4297
18587TIP3    H177176   5.487   4.757   0.601  3.2251  2.0927  1.2100
18587TIP3    H277177   5.506   4.609   0.628  1.0535  1.2967 -1.4104
18588TIP3   OH277178   0.319   0.763  14.888  0.0256 -0.0325 -0.1497
18588TIP3    H177179   0.240   0.786  14.938  0.2769 -0.5939  0.5060
18588TIP3    H277180   0.389   0.812  14.931  0.3319 -0.9388  0.4006
18589TIP3   OH277181   1.050   0.083  16.681  0.6887 -0.8536  0.2008
18589TIP3    H177182   0.972   0.072  16.735  0.4689 -0.6739 -0.0809
18589TIP3    H277183   1.035   0.026  16.605 -0.2879  1.0591 -1.0923
18590TIP3   OH277184   1.494   0.801   4.665 -0.1423  0.4416 -0.0009
18590TIP3    H177185   1.479   0.881   4.716 -2.1761 -0.5387  1.0179
18590TIP3    H277186   1.586   0.805   4.641  0.7921  1.2119  3.3784
18591TIP3   OH277187   6.071   5.425   2.061 -0.0354 -0.4291 -0.0784
18591TIP3    H177188   6.068   5.520   2.060 -0.0561 -0.4150 -2.3533
18591TIP3    H277189   6.050   5.400   2.151  0.8171  1.7254  0.7298
18592TIP3   OH277190   2.358   4.296  11.535 -0.1479  0.0848  0.8367
18592TIP3    H177191   2.357   4.385  11.570 -2.4183 -0.2077  1.5953
18592TIP3    H277192   2.403   4.304  11.451 -1.1934  2.1567  0.4261
18593TIP3   OH277193   5.657   6.152   1.896  0.3858  0.3874  0.2039
18593TIP3    H177194   5.669   6.244   1.922 -1.6858  1.2031 -1.5620
18593TIP3    H277195   5.565   6.147   1.869  1.1032 -1.6426 -2.0115
18594TIP3   OH277196   4.136   4.347  16.329 -0.3519 -0.1986 -0.7131
18594TIP3    H177197   4.093   4.279  16.277  2.4023 -1.8839 -0.8927
18594TIP3    H277198   4.166   4.302  16.408  1.9458  0.6791 -1.0467
18595TIP3   OH277199   3.950   6.089   1.078 -0.4834  0.3737  0.1790
18595TIP3    H177200   4.009   6.030   1.032  0.5084  2.0442 -0.7531
18595TIP3    H277201   3.864   6.075   1.039 -0.1368 -0.0226 -0.4336
18596TIP3   OH277202   6.391   5.765  16.459 -0.9713  0.2484 -0.2445
18596TIP3    H177203   6.441   5.821  16.399 -0.0664  1.0382  1.2144
18596TIP3    H277204   6.302   5.766  16.424  0.1275 -1.7838 -3.3130
18597TIP3   OH277205   2.424   0.780   6.658  0.7013  0.1756  0.1846
18597TIP3    H177206   2.476   0.745   6.730  0.6371  0.9008  0.5961
18597TIP3    H277207   2.486   0.833   6.607  1.4230 -2.5917 -1.9385
18598TIP3   OH277208   0.769   0.520  12.884  0.0661  0.5181  0.0978
18598TIP3    H177209   0.696   0.459  12.894 -0.3682  0.8603 -0.9056
18598TIP3    H277210   0.762   0.579  12.959  2.0741 -2.2518  2.5966
18599TIP3   OH277211   1.875   4.357  11.571 -0.0434  0.3603 -0.3253
18599TIP3    H177212   1.934   4.303  11.518  0.6180  0.6784  0.0810
18599TIP3    H277213   1.800   4.373  11.514 -0.3406 -1.1533 -0.3836
18600TIP3   OH277214   2.978   1.498  11.727  0.4045  0.0993  0.6361
18600TIP3    H177215   3.010   1.479  11.815  1.3182  2.3350  0.8068
18600TIP3    H277216   2.957   1.412  11.690  0.5270 -0.8995  2.8274
18601TIP3   OH277217   1.981   5.827  16.259  0.3094 -0.3634 -0.0851
18601TIP3    H177218   2.045   5.858  16.323 -0.1623  1.5663 -0.5206
18601TIP3    H277219   2.032   5.804  16.182  0.4557  1.4771 -0.5427
18602TIP3   OH277220   1.902   3.385  12.017  0.2388  0.7736 -0.2019
18602TIP3    H177221   1.962   3.444  11.971  0.4065 -1.2519 -2.6829
18602TIP3    H277222   1.877   3.320  11.951 -0.9932 -1.1521  2.0930
18603TIP3   OH277223   0.587   6.542  15.032  0.5249 -0.3915 -0.5677
18603TIP3    H177224   0.527   6.474  15.001  0.5198 -0.5227 -0.2743
18603TIP3    H277225   0.543   6.579  15.110  0.5093 -0.0290 -0.7464
18604TIP3   OH277226   6.261   3.024   3.255 -0.0825 -0.3591  0.5981
18604TIP3    H177227   6.280   3.075   3.176  0.8973 -0.9037  0.4722
18604TIP3    H277228   6.206   2.951   3.224 -0.9683  0.2665  0.6773
18605TIP3   OH277229   3.766   4.470   2.315  0.4178 -0.4634  0.0940
18605TIP3    H177230   3.800   4.387   2.280  0.7882 -0.6142  0.8081
18605TIP3    H277231   3.684   4.484   2.268  0.9323 -0.6374 -0.8849
18606TIP3   OH277232   2.599   5.069   3.621  0.3948  0.3933  0.0395
18606TIP3    H177233   2.686   5.058   3.584 -0.1079 -1.5011 -0.6111
18606TIP3    H277234   2.603   5.026   3.706  0.5525  1.7675  0.7530
18607TIP3   OH277235   5.526   3.578   5.432 -0.3415 -0.2509  0.3567
18607TIP3    H177236   5.489   3.489   5.431 -0.1331 -0.3322 -0.4212
18607TIP3    H277237   5.570   3.584   5.516 -1.1197 -0.5718  0.7967
18608TIP3   OH277238   4.898   6.434   3.748  0.3859  0.3669  0.6662
18608TIP3    H177239   4.874   6.342   3.743 -0.6384  0.5651  1.8373
18608TIP3    H277240   4.908   6.461   3.657 -0.9625 -0.4750  0.2522
18609TIP3   OH277241   6.766   3.930  16.742  0.4714  0.3438 -0.2968
18609TIP3    H177242   6.832   3.890  16.686  1.4012  0.3156  0.8047
18609TIP3    H277243   6.747   3.863  16.808 -2.2457 -0.4950 -1.8405
18610TIP3   OH277244   4.274   3.687  12.221 -0.6101  0.4026 -0.2169
18610TIP3    H177245   4.337   3.634  12.270 -2.4168 -0.0176  1.7328
18610TIP3    H277246   4.296   3.777  12.245  0.1457  0.3366 -0.6545
18611TIP3   OH277247   2.224   5.127   0.925  0.5861  0.1415 -0.2288
18611TIP3    H177248   2.257   5.053   0.976  1.0819  0.5487  0.0336
18611TIP3    H277249   2.268   5.203   0.961 -2.6518  1.0783  1.9799
18612TIP3   OH277250   2.392   4.419   3.612 -0.1694  0.5571 -0.1910
18612TIP3    H177251   2.470   4.442   3.662 -0.1548  0.5867 -0.2270
18612TIP3    H277252   2.318   4.446   3.667 -0.1529  0.6648 -0.2205
18613TIP3   OH277253   3.272   4.976   1.038 -0.2841  0.2001 -0.1143
18613TIP3    H177254   3.349   4.973   0.982  0.8463 -1.0518  1.4585
18613TIP3    H277255   3.268   5.066   1.069  1.0412  0.0579  0.4738
18614TIP3   OH277256   1.764   5.555   4.136 -0.2865 -0.1584 -0.1685
18614TIP3    H177257   1.852   5.576   4.168 -0.3698 -0.3030  0.1574
18614TIP3    H277258   1.707   5.568   4.211 -0.4396 -0.7938 -0.1696
18615TIP3   OH277259   2.045   5.353  11.699 -0.3878 -0.2853 -0.1506
18615TIP3    H177260   2.039   5.338  11.794  0.2005 -1.5733 -0.3119
18615TIP3    H277261   1.954   5.355  11.669 -0.5827  0.3718  0.4793
18616TIP3   OH277262   6.385   3.690   2.047  0.5352 -0.7392 -0.1317
18616TIP3    H177263   6.341   3.746   2.111  0.1258 -0.3159 -0.7757
18616TIP3    H277264   6.440   3.751   1.997 -0.1743 -0.8606 -1.0607
18617TIP3   OH277265   5.633   1.515   3.429 -0.4598  0.2667 -0.1483
18617TIP3    H177266   5.566   1.478   3.487 -2.1977  1.8822 -1.0725
18617TIP3    H277267   5.636   1.455   3.354 -0.3318 -0.2026  0.2272
18618TIP3   OH277268   6.174   4.609   2.206  0.7366 -0.5373 -0.0133
18618TIP3    H177269   6.221   4.625   2.288  1.6155  0.0099 -0.6150
18618TIP3    H277270   6.149   4.517   2.210 -0.8919 -0.0525  1.7170
18619TIP3   OH277271   1.089   3.476  14.046 -0.0631 -0.4184 -0.3629
18619TIP3    H177272   1.051   3.445  13.964  0.1966  1.0152 -1.0269
18619TIP3    H277273   1.066   3.408  14.109 -1.8711 -0.6347 -1.2132
18620TIP3   OH277274   6.752   4.341   0.536  0.4037 -0.2768  0.5894
18620TIP3    H177275   6.747   4.301   0.449  0.7371 -2.1294  1.3855
18620TIP3    H277276   6.823   4.404   0.530 -0.7814  0.9701 -0.9853
18621TIP3   OH277277   4.653   1.993   4.898 -0.0074  0.4972 -0.2213
18621TIP3    H177278   4.643   2.086   4.877  1.0628  0.6180 -0.2194
18621TIP3    H277279   4.631   1.987   4.990  2.3360  1.1774  0.4112
18622TIP3   OH277280   6.220   4.423  15.461  0.3892 -0.1550 -0.2661
18622TIP3    H177281   6.175   4.494  15.507 -1.3637 -0.4797 -1.3923
18622TIP3    H277282   6.149   4.363  15.436  1.6051 -1.2661 -1.0902
18623TIP3   OH277283   0.208   5.477  12.589 -0.0797 -0.5022  0.0675
18623TIP3    H177284   0.262   5.496  12.666  1.9392 -2.2736 -0.9046
18623TIP3    H277285   0.244   5.533  12.520 -1.3170  0.4074  0.1317
18624TIP3   OH277286   2.644   3.921   4.837  0.1771 -0.6620 -0.3139
18624TIP3    H177287   2.727   3.887   4.872  0.1396  0.0397  0.4793
18624TIP3    H277288   2.600   3.959   4.913 -0.0075  0.6893 -1.0734
18625TIP3   OH277289   4.623   6.261  11.936  0.3133 -0.0538 -0.0765
18625TIP3    H177290   4.716   6.259  11.914  0.3242 -0.8477  0.0234
18625TIP3    H277291   4.597   6.169  11.940 -0.5385  0.1709 -0.3521
18626TIP3   OH277292   0.051   2.607   0.905  0.1722 -0.5576  0.0058
18626TIP3    H177293   0.050   2.582   0.813 -0.7931 -2.7727  0.5864
18626TIP3    H277294   0.063   2.524   0.952  2.0652  0.6833  1.8304
18627TIP3   OH277295   6.134   1.331  14.147  0.4958  0.5047  0.1705
18627TIP3    H177296   6.163   1.241  14.128  0.5377  0.8811 -1.6157
18627TIP3    H277297   6.087   1.324  14.231 -0.2915 -1.3417 -0.4021
18628TIP3   OH277298   3.725   6.174   1.879 -0.3963 -0.0030  0.2767
18628TIP3    H177299   3.812   6.140   1.899 -0.4895 -0.1645  0.3998
18628TIP3    H277300   3.716   6.250   1.937  0.4293  1.1723 -1.0742
18629TIP3   OH277301   5.360   3.396   4.514  0.2742 -0.3968  0.2071
18629TIP3    H177302   5.352   3.427   4.604 -2.2439 -1.9963  0.5888
18629TIP3    H277303   5.415   3.461   4.471 -1.3473  2.2819  2.0030
18630TIP3   OH277304   4.552   6.433  15.265 -0.1682  0.2126 -0.1164
18630TIP3    H177305   4.617   6.369  15.238  1.2965  0.6149  2.3207
18630TIP3    H277306   4.586   6.517  15.235 -0.6963  0.1874 -0.8117
18631TIP3   OH277307   3.542   2.444  11.606  0.1965  0.2488 -0.0346
18631TIP3    H177308   3.473   2.415  11.547  1.8920  0.6556 -2.3094
18631TIP3    H277309   3.562   2.533  11.576  0.6167  0.7151  1.6118
18632TIP3   OH277310   4.866   3.709  15.602 -0.1305  0.1093 -0.1328
18632TIP3    H177311   4.947   3.715  15.652 -0.4836  1.9012  0.2758
18632TIP3    H277312   4.814   3.642  15.648  1.4077 -1.6505 -0.8851
18633TIP3   OH277313   0.998   2.710   2.553  0.2706 -0.7293  0.2855
18633TIP3    H177314   1.020   2.779   2.615  0.2039 -0.3409 -0.1180
18633TIP3    H277315   0.961   2.640   2.606 -1.0756  0.1507  0.5236
18634TIP3   OH277316   3.303   0.171  14.324  0.1708 -0.1440 -0.2995
18634TIP3    H177317   3.315   0.186  14.418 -0.0768 -1.7734  0.0024
18634TIP3    H277318   3.272   0.081  14.317 -0.2821  0.1145 -1.9195
18635TIP3   OH277319   4.508   4.558  14.497  0.1275  0.2052 -0.0658
18635TIP3    H177320   4.517   4.587  14.406  1.1913  0.5586  0.1423
18635TIP3    H277321   4.486   4.637  14.545  0.7888  0.2567  0.1603
18636TIP3   OH277322   4.724   3.294  16.690  0.4188 -0.0365  0.6444
18636TIP3    H177323   4.760   3.382  16.674  1.8324 -0.1610  2.8894
18636TIP3    H277324   4.767   3.239  16.626  0.4688  0.7000  0.0378
18637TIP3   OH277325   3.029   5.226   3.467  0.3314 -0.1691 -0.0499
18637TIP3    H177326   3.119   5.236   3.435  0.6013  0.6449  0.9684
18637TIP3    H277327   3.037   5.170   3.544  0.1587  1.2182  0.9862
18638TIP3   OH277328   0.972   5.018  11.741  0.2619 -0.1923  0.5353
18638TIP3    H177329   0.996   4.940  11.691  0.9708 -0.8682  1.9284
18638TIP3    H277330   1.051   5.042  11.788 -0.3157  0.6354  1.0882
18639TIP3   OH277331   1.591   0.619  11.625  0.1199 -0.4842  0.0823
18639TIP3    H177332   1.595   0.542  11.568  0.8377 -1.9508  2.0601
18639TIP3    H277333   1.542   0.684  11.574  1.2360 -1.5398 -2.4314
18640TIP3   OH277334   4.034   5.783   0.514 -0.0158 -0.2081  0.2683
18640TIP3    H177335   4.046   5.744   0.427 -0.6682  0.0503  0.0607
18640TIP3    H277336   4.052   5.712   0.575  0.4063 -0.4041 -0.0810
18641TIP3   OH277337   3.454   0.198  16.135  0.3989  0.7285  0.0181
18641TIP3    H177338   3.445   0.204  16.230  0.0144  0.6362 -0.0113
18641TIP3    H277339   3.381   0.249  16.101 -1.1834 -1.6281 -0.2247
18642TIP3   OH277340   0.736   6.579  15.420 -0.0475 -0.3763  0.2217
18642TIP3    H177341   0.731   6.551  15.329  1.8421  3.0741 -1.0192
18642TIP3    H277342   0.651   6.619  15.438 -0.0748 -0.2023 -0.3050
18643TIP3   OH277343   0.078   3.853   6.321  0.0320  0.5654  0.2557
18643TIP3    H177344   0.081   3.806   6.237  2.4477 -1.1977  1.2600
18643TIP3    H277345  -0.015   3.863   6.339 -0.5696 -2.8682 -0.5845
18644TIP3   OH277346   0.442   0.585  16.092 -0.2850  0.2105 -0.4880
18644TIP3    H177347   0.363   0.542  16.059 -0.4666  1.8942 -2.3845
18644TIP3    H277348   0.429   0.678  16.071  1.4344  0.7643  0.7509
18645TIP3   OH277349   4.785   0.742  14.130 -0.2540  0.0477 -0.3891
18645TIP3    H177350   4.720   0.806  14.101  1.1366  1.2736 -0.8308
18645TIP3    H277351   4.784   0.675  14.063 -1.7785 -0.4548  0.1122
18646TIP3   OH277352   1.442   5.349   5.070  0.0822  0.3699 -0.1773
18646TIP3    H177353   1.463   5.258   5.090  1.1043  0.8193  0.8456
18646TIP3    H277354   1.351   5.359   5.098 -0.4347 -0.6464 -1.4148
18647TIP3   OH277355   6.406   0.608   2.049  0.1867 -0.1292 -0.0273
18647TIP3    H177356   6.460   0.532   2.028  0.1698 -0.2800  0.4872
18647TIP3    H277357   6.417   0.666   1.973  0.6090 -0.4118 -0.1857
18648TIP3   OH277358   1.220   3.510   2.830  0.1818  0.7165  0.4558
18648TIP3    H177359   1.190   3.506   2.921 -0.5539 -0.0386  0.1800
18648TIP3    H277360   1.196   3.425   2.793  2.7515  0.0119  0.2681
18649TIP3   OH277361   1.487   4.618  13.948  0.0520 -0.2317 -0.6783
18649TIP3    H177362   1.568   4.649  13.908 -0.7319  1.0171 -1.3758
18649TIP3    H277363   1.449   4.560  13.882 -0.2321  0.1908 -0.8896
18650TIP3   OH277364   0.152   3.261  13.456 -0.6573  0.4284  0.0715
18650TIP3    H177365   0.151   3.264  13.360  3.2525  0.5303 -0.0536
18650TIP3    H277366   0.152   3.354  13.482 -1.0744  0.4069  0.1465
18651TIP3   OH277367   0.182   1.658   4.987 -0.1635  0.0811  0.0051
18651TIP3    H177368   0.098   1.683   5.025  0.0571  2.5345 -0.9945
18651TIP3    H277369   0.170   1.668   4.893  1.3519  0.8400 -0.1271
18652TIP3   OH277370   1.725   2.120   4.907 -0.1953 -0.5052 -0.3111
18652TIP3    H177371   1.718   2.151   4.997  1.4100 -0.1116 -0.3153
18652TIP3    H277372   1.769   2.035   4.914  2.3214  0.7030 -0.9088
18653TIP3   OH277373   5.955   5.087  15.951  0.3322 -0.2231 -0.1755
18653TIP3    H177374   5.882   5.148  15.940  1.8668  1.7270  0.0753
18653TIP3    H277375   5.922   5.004  15.919 -1.5593  0.9252 -1.3259
18654TIP3   OH277376   2.080   5.947   0.588 -0.3244 -0.0437 -0.0137
18654TIP3    H177377   2.070   5.853   0.601  1.5276 -0.2083  0.3437
18654TIP3    H277378   2.132   5.976   0.663 -1.6881  1.4360  0.3922
18655TIP3   OH277379   1.559   0.416  11.413  0.2296 -0.0980  0.0304
18655TIP3    H177380   1.467   0.416  11.389  0.2220 -1.2248  0.0100
18655TIP3    H277381   1.566   0.350  11.482  0.4650  2.2696  2.3257
18656TIP3   OH277382   3.753   6.754  15.047  0.4607  0.3204  0.1561
18656TIP3    H177383   3.841   6.731  15.078  1.1178  0.2229 -1.7351
18656TIP3    H277384   3.765   6.772  14.954 -0.7792  4.1776  0.6470
18657TIP3   OH277385   0.490   1.303  16.106 -0.0974 -0.7029  0.2388
18657TIP3    H177386   0.467   1.223  16.153  3.1386 -2.6608 -1.3378
18657TIP3    H277387   0.450   1.293  16.020  0.2761 -0.6333  0.0539
18658TIP3   OH277388   6.092   2.413   1.625 -0.3464  0.2650  0.2451
18658TIP3    H177389   6.110   2.321   1.645 -0.2336  0.2399  0.0331
18658TIP3    H277390   6.033   2.410   1.550 -0.6594  0.3594  0.4915
18659TIP3   OH277391   5.963   2.137   4.153 -0.0250  0.6924 -0.1932
18659TIP3    H177392   5.970   2.152   4.059 -0.2833 -1.4531 -0.5657
18659TIP3    H277393   6.052   2.115   4.181 -0.3435 -0.8106 -0.3320
18660TIP3   OH277394   4.761   4.234   1.371 -0.0295  0.0858  0.0093
18660TIP3    H177395   4.819   4.233   1.294  1.3642 -0.9353  1.0538
18660TIP3    H277396   4.782   4.316   1.416 -1.6405  1.2306 -1.2636
18661TIP3   OH277397   3.885   2.761  11.879  0.5154 -0.4121 -0.0233
18661TIP3    H177398   3.867   2.817  11.804  0.4976  0.7304  0.8155
18661TIP3    H277399   3.861   2.673  11.850 -0.5446  0.1794 -0.9776
18662TIP3   OH277400   6.416   6.400   3.122 -0.0534  0.3322 -0.1534
18662TIP3    H177401   6.405   6.413   3.028 -1.3630  2.0852  0.2179
18662TIP3    H277402   6.374   6.315   3.139 -2.5308  1.4086 -0.6868
18663TIP3   OH277403   3.026   6.396   4.662  0.0077  0.0899 -0.0840
18663TIP3    H177404   3.091   6.399   4.592 -1.2846 -1.6245 -1.3813
18663TIP3    H277405   3.023   6.304   4.688 -1.2523  0.3049  0.5764
18664TIP3   OH277406   4.762   4.073  15.511  0.2596  0.0809 -0.2353
18664TIP3    H177407   4.733   4.044  15.424  0.3712  0.7025 -0.4781
18664TIP3    H277408   4.750   4.168  15.510  2.5049  0.3886 -0.4105
18665TIP3   OH277409   0.906   4.500  16.637  0.1152  0.0508  0.1479
18665TIP3    H177410   0.999   4.494  16.658  0.4642  0.2339 -1.2914
18665TIP3    H277411   0.890   4.594  16.628 -0.8938  0.2467  3.2508
18666TIP3   OH277412   4.921   1.038   4.820 -0.1554 -0.3699  0.2788
18666TIP3    H177413   4.922   1.083   4.904  0.2240  0.0938  0.0260
18666TIP3    H277414   4.980   1.088   4.764 -1.5537  0.2198 -0.7227
18667TIP3   OH277415   1.680   2.765  11.279  0.0407  0.0927  0.4603
18667TIP3    H177416   1.715   2.795  11.363  3.2815  0.7693 -1.0641
18667TIP3    H277417   1.690   2.841  11.221 -2.0337 -0.4139 -0.6034
18668TIP3   OH277418   4.031   2.071  14.817 -0.0461  0.1160  0.5071
18668TIP3    H177419   4.112   2.117  14.839 -0.8333  3.0598 -2.2899
18668TIP3    H277420   3.967   2.101  14.882 -0.1079  1.6871 -0.2553
18669TIP3   OH277421   5.962   6.474  15.161 -0.4090 -0.1181 -0.0079
18669TIP3    H177422   6.024   6.543  15.185 -1.2624  0.6018  0.1463
18669TIP3    H277423   5.962   6.413  15.235  0.9620 -0.7333 -0.4949
18670TIP3   OH277424   0.574   2.904   2.389  0.1717  0.1665 -0.2033
18670TIP3    H177425   0.572   2.904   2.485 -0.3538 -0.1811 -0.2114
18670TIP3    H277426   0.665   2.924   2.367  0.5474 -0.8434  0.3703
18671TIP3   OH277427   5.564   1.559  16.397 -0.2358 -0.0233  0.0512
18671TIP3    H177428   5.477   1.562  16.357 -1.0114  0.9175  1.7531
18671TIP3    H277429   5.580   1.649  16.428  1.4670 -0.1151 -0.5034
18672TIP3   OH277430   0.129   5.741  13.042 -0.1953 -0.2359 -0.0779
18672TIP3    H177431   0.210   5.793  13.038 -0.8914  0.7973 -0.9126
18672TIP3    H277432   0.126   5.710  13.132  0.9177  0.0603  0.0782
18673TIP3   OH277433   2.218   1.057  14.310 -0.0530 -0.2257 -0.6254
18673TIP3    H177434   2.171   1.098  14.383  0.7531  0.3063 -0.3996
18673TIP3    H277435   2.219   0.964  14.332 -1.3033 -0.2905 -0.8043
18674TIP3   OH277436   0.584   1.176  13.088 -0.8739  0.0508  0.3527
18674TIP3    H177437   0.543   1.213  13.010 -0.1716  0.4149  0.1518
18674TIP3    H277438   0.514   1.174  13.153 -0.9802  1.5824  0.3149
18675TIP3   OH277439   5.984   6.704   2.776  0.5888 -0.6860 -0.5859
18675TIP3    H177440   5.968   6.797   2.764  0.6544 -0.6440 -0.3449
18675TIP3    H277441   6.077   6.692   2.761 -0.1389 -1.4191 -5.1774
18676TIP3   OH277442   1.129   0.921  15.034  0.2501  0.2162  0.0009
18676TIP3    H177443   1.193   0.920  15.106 -0.3399 -0.5231  0.5179
18676TIP3    H277444   1.144   0.838  14.988  0.0792  0.3263 -0.2509
18677TIP3   OH277445   0.741   1.420   0.538  0.2347 -0.0005  0.3281
18677TIP3    H177446   0.763   1.485   0.605  1.5359  0.1060 -0.1825
18677TIP3    H277447   0.674   1.463   0.485  2.2930  1.6613 -1.0376
18678TIP3   OH277448   2.573   1.409   2.938 -0.6366  0.6599  0.3946
18678TIP3    H177449   2.629   1.484   2.955 -2.1273  1.5689  1.3689
18678TIP3    H277450   2.493   1.446   2.899 -0.5313 -0.6283 -1.1135
18679TIP3   OH277451   1.824   3.543  13.666  0.9966 -0.3812  0.1121
18679TIP3    H177452   1.916   3.540  13.693  0.3389  0.3707  2.4995
18679TIP3    H277453   1.777   3.574  13.743 -1.2170 -0.2798 -1.2449
18680TIP3   OH277454   3.491   5.989  12.549 -0.9106 -0.6889 -0.1908
18680TIP3    H177455   3.407   5.943  12.539 -1.3671  0.0897 -0.0009
18680TIP3    H277456   3.510   6.022  12.461 -1.5478  0.3879  0.0620
18681TIP3   OH277457   2.825   3.161   0.891 -0.8287 -0.0993 -0.0656
18681TIP3    H177458   2.818   3.255   0.907  1.8722  0.4550 -1.6488
18681TIP3    H277459   2.853   3.155   0.799 -0.4622 -2.4086  0.1659
18682TIP3   OH277460   4.035   1.604   3.979 -0.3673  0.1442 -0.0806
18682TIP3    H177461   4.035   1.609   4.075  1.0276  2.6641 -0.1822
18682TIP3    H277462   4.124   1.575   3.957 -0.1837  1.1577 -0.6758
18683TIP3   OH277463   0.733   0.818   2.750  0.0047  0.1940  0.1988
18683TIP3    H177464   0.642   0.792   2.767 -0.7480  0.8881 -2.5926
18683TIP3    H277465   0.777   0.737   2.726 -0.6924  0.3407 -1.6786
18684TIP3   OH277466   3.413   0.088   3.044  0.4463  0.1274 -0.8729
18684TIP3    H177467   3.341   0.134   3.000 -0.3451 -0.1620  0.1046
18684TIP3    H277468   3.469   0.159   3.078 -0.3130  0.3798 -0.1201
18685TIP3   OH277469   4.942   3.380  16.345  0.0941  0.3556  0.0578
18685TIP3    H177470   4.858   3.419  16.320  1.4699  2.9572 -0.6909
18685TIP3    H277471   4.990   3.371  16.263  1.0450  0.1147  0.6313
18686TIP3   OH277472   1.081   2.912   2.719 -0.1681 -0.0898 -0.5331
18686TIP3    H177473   1.147   2.917   2.789 -1.8919  1.3990  1.0316
18686TIP3    H277474   1.108   2.979   2.656 -0.7738  1.2892  0.6491
18687TIP3   OH277475   0.150   5.399  13.726  0.5708  0.0199  0.0074
18687TIP3    H177476   0.088   5.325  13.721 -0.6317  0.9844  0.2670
18687TIP3    H277477   0.227   5.363  13.770 -0.2741 -0.9105  0.7524
18688TIP3   OH277478   3.992   2.404  11.966 -0.5256  0.3103  0.1339
18688TIP3    H177479   4.065   2.447  12.010  0.8724 -0.1828 -1.6418
18688TIP3    H277480   4.021   2.314  11.953 -2.1707 -0.3816  0.9725
18689TIP3   OH277481   2.912   2.207   3.066 -0.5930  0.0479 -0.3240
18689TIP3    H177482   2.864   2.174   3.142 -2.5317  0.4628 -1.3365
18689TIP3    H277483   2.955   2.286   3.097 -1.9729  0.6169  0.1647
18690TIP3   OH277484   0.499   5.670  15.012 -0.0109  0.1239  0.1744
18690TIP3    H177485   0.461   5.681  15.100 -0.0238 -1.2818  0.3457
18690TIP3    H277486   0.425   5.649  14.956  0.4062 -1.9663  0.3843
18691TIP3   OH277487   0.608   2.874  13.335 -0.6623  0.5641 -0.0453
18691TIP3    H177488   0.589   2.963  13.308 -0.6940  1.1565  1.8620
18691TIP3    H277489   0.528   2.844  13.378  0.7564  1.1806  3.1838
18692TIP3   OH277490   2.031   2.079  10.977  0.6175 -0.1250  0.0038
18692TIP3    H177491   2.041   2.146  11.044 -0.8863  0.7983 -0.6699
18692TIP3    H277492   2.040   1.996  11.024 -3.0085  0.4359  1.8586
18693TIP3   OH277493   4.373   4.746  14.665 -0.0448 -0.7098  0.4291
18693TIP3    H177494   4.366   4.766  14.758  0.4242 -1.9656  0.7477
18693TIP3    H277495   4.362   4.831  14.621  2.6086  0.3753  1.7564
18694TIP3   OH277496   2.070   5.504  16.711  0.3763 -0.2591 -0.1656
18694TIP3    H177497   1.988   5.454  16.702  0.4082 -0.1069 -1.3857
18694TIP3    H277498   2.043   5.596  16.708  0.2651 -0.1719  2.5644
18695TIP3   OH277499   2.399   3.532   1.306 -0.1338  0.0073  0.8588
18695TIP3    H177500   2.486   3.501   1.330  0.4426  1.2528  0.4423
18695TIP3    H277501   2.348   3.523   1.387  0.0942 -1.6646  0.8316
18696TIP3   OH277502   0.134   6.691  16.774 -0.7589  0.5312  0.2040
18696TIP3    H177503   0.134   6.678  16.869 -1.9048  3.3248  0.6174
18696TIP3    H277504   0.041   6.702  16.751 -0.6198 -1.3245 -1.4489
18697TIP3   OH277505   5.897   5.905   4.323  0.5678  0.1581  0.3561
18697TIP3    H177506   5.844   5.855   4.386 -0.3291 -0.5528 -0.9360
18697TIP3    H277507   5.833   5.934   4.257  1.3954  1.4161  0.1107
18698TIP3   OH277508   0.545   3.033  16.798  0.5308 -0.0469 -0.0894
18698TIP3    H177509   0.450   3.046  16.790  0.5354 -0.4198 -0.7914
18698TIP3    H277510   0.575   3.106  16.851 -0.5442 -1.3732  2.4614
18699TIP3   OH277511   1.026   3.982   6.007  0.1945  0.0970  0.2879
18699TIP3    H177512   0.971   3.943   5.939  1.5115  0.1049 -0.8193
18699TIP3    H277513   1.069   3.907   6.048 -0.2923  0.1202  0.8406
18700TIP3   OH277514   5.211   1.274   0.873 -0.4075 -0.5916  0.8145
18700TIP3    H177515   5.224   1.227   0.956 -1.4611 -1.0868  0.7134
18700TIP3    H277516   5.271   1.349   0.878 -1.0344 -0.1701  2.3645
18701TIP3   OH277517   0.043   0.365   3.144 -0.0181 -0.2324  0.5888
18701TIP3    H177518   0.118   0.406   3.101 -1.1778  1.0308 -0.2650
18701TIP3    H277519   0.047   0.396   3.234  0.9551 -0.8396  0.7622
18702TIP3   OH277520   2.214   6.126   3.769  0.5248  0.1957 -0.0314
18702TIP3    H177521   2.148   6.069   3.809 -2.1844  2.1484 -1.5909
18702TIP3    H277522   2.262   6.163   3.843 -0.5855 -0.7117  1.1561
18703TIP3   OH277523   3.808   0.809   1.432  0.2393  1.2397 -0.0957
18703TIP3    H177524   3.750   0.736   1.408 -0.7457  2.4901 -1.5608
18703TIP3    H277525   3.845   0.782   1.516  0.7101 -1.4418 -1.1071
18704TIP3   OH277526   6.583   0.196   1.538  0.0396 -0.7455  0.0769
18704TIP3    H177527   6.624   0.171   1.455 -0.4289 -1.0691 -0.0610
18704TIP3    H277528   6.489   0.187   1.522 -0.0644 -0.5771  0.5717
18705TIP3   OH277529   6.709   1.243   0.689 -0.0246 -0.3263 -0.0436
18705TIP3    H177530   6.772   1.180   0.653  0.4551  0.5257 -0.7163
18705TIP3    H277531   6.646   1.189   0.736 -1.3245 -1.6141 -3.1180
18706TIP3   OH277532   6.044   6.624   0.047 -0.3347  0.5460  0.0900
18706TIP3    H177533   6.077   6.575   0.123  1.1356 -0.7100 -1.3317
18706TIP3    H277534   6.033   6.558  -0.021 -0.9820  1.7791 -1.0214
18707TIP3   OH277535   4.293   3.096  15.866  0.0527 -0.3784 -0.0243
18707TIP3    H177536   4.277   3.002  15.866 -1.4212 -0.1441  0.9175
18707TIP3    H277537   4.330   3.115  15.952  0.1128 -0.0560 -0.1180
18708TIP3   OH277538   4.948   5.546  16.410 -0.1039  0.4148 -0.7993
18708TIP3    H177539   4.917   5.559  16.499  1.1836 -1.1870 -0.0941
18708TIP3    H277540   5.043   5.556  16.416 -0.0789  1.1565 -2.1621
18709TIP3   OH277541   2.994   4.528   2.409  0.1388  0.0196 -0.1257
18709TIP3    H177542   2.935   4.466   2.453 -2.3610  1.9687 -0.6139
18709TIP3    H277543   3.002   4.494   2.320 -0.2209 -0.2715 -0.0521
18710TIP3   OH277544   4.288   5.992  16.153  0.9644 -0.1431  0.4746
18710TIP3    H177545   4.312   5.913  16.104  0.5763  0.5205 -0.8021
18710TIP3    H277546   4.279   5.962  16.244 -0.3767 -1.8291 -0.1829
18711TIP3   OH277547   0.439   5.501   1.713  0.1717  0.3289 -0.2672
18711TIP3    H177548   0.523   5.483   1.756 -1.3883 -1.0431  2.2854
18711TIP3    H277549   0.398   5.569   1.767 -0.5166  0.7918 -1.3516
18712TIP3   OH277550   5.860   5.877   6.029 -0.2559  0.2432  0.7138
18712TIP3    H177551   5.950   5.900   6.053  1.0498 -1.8555 -1.9325
18712TIP3    H277552   5.807   5.949   6.063  2.5312  2.0356  1.4093
18713TIP3   OH277553   3.333   5.069  12.407 -0.2356  0.0761  0.1246
18713TIP3    H177554   3.243   5.038  12.393 -0.6238  0.8739  0.7815
18713TIP3    H277555   3.330   5.162  12.385  0.5825 -0.0256 -0.4355
18714TIP3   OH277556   3.626   6.688   1.968  0.0393 -0.4699 -0.1552
18714TIP3    H177557   3.720   6.686   1.988 -0.2960 -0.0120  1.5577
18714TIP3    H277558   3.619   6.648   1.882  1.6617 -1.7343  0.2721
18715TIP3   OH277559   3.145   6.042  15.968  0.1585 -0.1587 -0.2712
18715TIP3    H177560   3.225   6.005  16.006  0.1482  1.2355  1.1611
18715TIP3    H277561   3.111   6.100  16.036 -1.4733  0.1321 -1.3057
18716TIP3   OH277562   1.916   5.176  15.260 -0.5528 -0.7943  0.1339
18716TIP3    H177563   1.908   5.176  15.165 -0.6747  1.3229  0.1151
18716TIP3    H277564   1.984   5.112  15.279  0.0464 -0.6394 -1.4356
18717TIP3   OH277565   6.537   3.016   1.767  0.5191  0.4798  0.1013
18717TIP3    H177566   6.514   3.033   1.675  1.3415  0.4234 -0.1269
18717TIP3    H277567   6.458   2.981   1.806  0.4464 -0.4585 -0.8524
18718TIP3   OH277568   1.703   2.842  16.594 -0.0650  0.2093  0.1935
18718TIP3    H177569   1.608   2.852  16.601 -0.7161 -3.5286 -1.6348
18718TIP3    H277570   1.731   2.812  16.681 -0.3445  2.3299  1.0457
18719TIP3   OH277571   6.457   2.912  13.585 -0.6416 -0.1596 -0.6833
18719TIP3    H177572   6.438   2.818  13.579 -2.5797  0.0592  1.6488
18719TIP3    H277573   6.544   2.917  13.626  0.4940 -0.9257 -2.8636
18720TIP3   OH277574   4.563   0.436   0.630 -0.1057  0.4108 -0.1976
18720TIP3    H177575   4.479   0.402   0.602  0.6422 -1.8325  0.1986
18720TIP3    H277576   4.552   0.454   0.723 -0.3504  0.7609 -0.2945
18721TIP3   OH277577   2.282   1.318   0.236  0.3079  0.3530 -0.6015
18721TIP3    H177578   2.300   1.409   0.262 -1.8517  0.5683  0.2087
18721TIP3    H277579   2.311   1.314   0.145  1.3476  1.5762 -0.3496
18722TIP3   OH277580   2.518   2.394  14.000 -0.0680  0.0116  0.1143
18722TIP3    H177581   2.491   2.484  13.984 -1.0042 -0.8009 -3.3420
18722TIP3    H277582   2.454   2.360  14.062 -0.6495  1.2476  0.2074
18723TIP3   OH277583   0.259   4.224  11.680 -0.4381 -0.0453 -0.3832
18723TIP3    H177584   0.324   4.251  11.616  0.6149  0.2380  0.7929
18723TIP3    H277585   0.178   4.217  11.630  0.5510 -0.6925 -1.9184
18724TIP3   OH277586   5.869   2.210   6.856 -0.2149 -0.0176  0.6663
18724TIP3    H177587   5.901   2.241   6.771  2.2605  4.3100  2.9556
18724TIP3    H277588   5.774   2.203   6.845  0.0473  0.5858 -2.4187
18725TIP3   OH277589   3.591   1.699  16.908 -0.0553 -0.2643  0.1972
18725TIP3    H177590   3.661   1.634  16.912  0.9447  0.7834  0.3383
18725TIP3    H277591   3.536   1.680  16.984  1.2336  0.1292  1.2673
18726TIP3   OH277592   2.181   3.474   6.433 -0.3900  0.5492 -0.1915
18726TIP3    H177593   2.139   3.421   6.501  0.0622  0.6743  0.1822
18726TIP3    H277594   2.274   3.471   6.454 -0.4177  2.0245  0.2194
18727TIP3   OH277595   0.397   5.796  11.646  0.4330 -0.1478  0.3933
18727TIP3    H177596   0.442   5.791  11.562  1.5864  0.3155  0.9728
18727TIP3    H277597   0.351   5.713  11.653  2.1317 -1.1165  0.3019
18728TIP3   OH277598   0.725   4.300   4.910 -0.8791 -0.0605 -0.5049
18728TIP3    H177599   0.777   4.229   4.873 -0.3201 -0.0227  0.1949
18728TIP3    H277600   0.771   4.324   4.990 -2.6053 -0.8425  0.7558
18729TIP3   OH277601   2.024   0.834  10.883 -0.6310  0.0991 -0.1259
18729TIP3    H177602   2.025   0.787  10.800  0.7680 -1.7212  0.8951
18729TIP3    H277603   2.089   0.904  10.872  1.6871 -1.9144  0.3977
18730TIP3   OH277604   4.962   5.713  17.226 -0.1148  0.1044  0.5069
18730TIP3    H177605   5.015   5.742  17.300 -1.4578  2.6480  0.5110
18730TIP3    H277606   4.898   5.653  17.265 -0.1159  0.5645  1.2219
18731TIP3   OH277607   6.409   2.136  10.969 -0.0346  0.2126 -0.0718
18731TIP3    H177608   6.421   2.222  11.009  0.5905 -0.9535  2.3069
18731TIP3    H277609   6.482   2.083  11.002 -0.5677 -1.3328 -1.2888
18732TIP3   OH277610   2.316   4.636  11.891  0.6810 -0.7116 -0.1637
18732TIP3    H177611   2.261   4.660  11.966  1.9182 -0.4717  0.6839
18732TIP3    H277612   2.364   4.558  11.921 -0.3103 -1.8355 -1.4443
18733TIP3   OH277613   0.993   5.968   1.887  0.1902  0.3725 -0.1487
18733TIP3    H177614   1.040   5.893   1.922  2.2930  1.9532  0.4919
18733TIP3    H277615   0.915   5.976   1.943  0.0253 -1.1876 -0.1243
18734TIP3   OH277616   1.459   5.063  12.626  0.8094  0.2025 -0.2195
18734TIP3    H177617   1.537   5.053  12.571  0.3853 -0.8426 -0.6328
18734TIP3    H277618   1.387   5.033  12.571  0.3097 -0.3775  0.7435
18735TIP3   OH277619   1.786   1.401  12.175  0.1421  1.1087 -0.0041
18735TIP3    H177620   1.871   1.370  12.142 -0.0191 -1.0401  1.4656
18735TIP3    H277621   1.722   1.366  12.112  0.2379  1.6365 -0.3995
18736TIP3   OH277622   5.545   6.638   4.320 -0.5319  0.0422  0.0705
18736TIP3    H177623   5.566   6.639   4.413 -0.0427 -3.3839  0.0437
18736TIP3    H277624   5.627   6.611   4.277 -1.5088 -1.0912 -1.1153
18737TIP3   OH277625   1.811   5.157  14.149 -0.2460 -0.1271 -0.1239
18737TIP3    H177626   1.882   5.213  14.181  0.3073 -0.0409 -1.4786
18737TIP3    H277627   1.744   5.218  14.119  0.2104 -0.1633 -1.2709
18738TIP3   OH277628   0.198   0.080  15.220 -0.4913  0.6800 -0.1463
18738TIP3    H177629   0.211  -0.011  15.192 -2.4864  0.2974  0.1047
18738TIP3    H277630   0.285   0.119  15.216  0.7224 -1.7171  1.4095
18739TIP3   OH277631   6.415   0.076   2.409  0.2022  0.0866  0.2944
18739TIP3    H177632   6.503   0.073   2.447 -0.0425 -0.4991  0.8220
18739TIP3    H277633   6.429   0.062   2.315  0.6100 -0.8075  0.4796
18740TIP3   OH277634   1.658   2.375  12.091  0.0670 -0.1509  0.2447
18740TIP3    H177635   1.699   2.305  12.142  0.4565  0.4640  0.7959
18740TIP3    H277636   1.701   2.455  12.122 -0.7025  0.3787 -0.0369
18741TIP3   OH277637   0.583   1.743   4.471  0.3282 -0.5035 -0.5521
18741TIP3    H177638   0.581   1.652   4.501 -0.6449  0.2005  1.6131
18741TIP3    H277639   0.495   1.758   4.436 -0.0562  0.0987  0.6583
18742TIP3   OH277640   1.735   0.749   6.113  0.2708  0.0438 -0.3029
18742TIP3    H177641   1.675   0.794   6.054  0.3505  0.5436 -0.0066
18742TIP3    H277642   1.816   0.800   6.107  0.3901 -0.1146 -0.0360
18743TIP3   OH277643   6.020   5.654   1.809  0.2801  0.3631  0.6677
18743TIP3    H177644   6.112   5.639   1.831  0.2030 -2.3158 -0.7099
18743TIP3    H277645   6.022   5.684   1.718 -0.2997 -1.3629  0.0679
18744TIP3   OH277646   6.223   2.711   1.284 -0.0376 -0.5469 -0.3974
18744TIP3    H177647   6.159   2.744   1.221 -0.2905 -2.1458 -1.0175
18744TIP3    H277648   6.189   2.625   1.309  2.6739 -2.1348 -1.9756
18745TIP3   OH277649   5.954   2.669   0.747 -0.2881 -0.0430  0.0845
18745TIP3    H177650   6.044   2.637   0.745  0.0811  0.9522  0.5121
18745TIP3    H277651   5.920   2.641   0.833 -0.4271 -0.5117 -0.1205
18746TIP3   OH277652   2.624   5.678   4.170 -0.1280 -0.5502 -0.1658
18746TIP3    H177653   2.683   5.734   4.221  0.1984 -0.4367 -0.6654
18746TIP3    H277654   2.557   5.738   4.137  0.3170 -0.4252 -0.8426
18747TIP3   OH277655   5.728   3.991   5.368  0.2806 -0.2888 -0.1586
18747TIP3    H177656   5.653   4.030   5.413  0.2505 -1.2134  0.6220
18747TIP3    H277657   5.742   4.047   5.292 -1.5937 -0.4725 -0.6609
18748TIP3   OH277658   5.358   4.826  15.406  0.4082 -0.0481  0.2430
18748TIP3    H177659   5.279   4.876  15.387  0.0606 -1.2053 -1.4235
18748TIP3    H277660   5.411   4.833  15.327  1.5838 -0.0362  1.0124
18749TIP3   OH277661   0.600   0.054   1.168 -0.0834 -0.7931  0.6387
18749TIP3    H177662   0.532  -0.013   1.155 -0.8829  0.4965 -2.4303
18749TIP3    H277663   0.560   0.135   1.135  2.0587  0.5198  1.1780
18750TIP3   OH277664   2.139   3.161   0.224 -0.3831  0.3754  0.2661
18750TIP3    H177665   2.087   3.099   0.275 -0.0195  1.1022  1.5113
18750TIP3    H277666   2.186   3.213   0.288 -0.8348  2.0955 -0.7573
18751TIP3   OH277667   0.185   4.673   1.662 -0.2354  0.5810  0.2871
18751TIP3    H177668   0.105   4.647   1.707  0.7497  0.2126  1.8916
18751TIP3    H277669   0.234   4.722   1.729  1.3452 -0.1338 -0.3410
18752TIP3   OH277670   6.726   5.358   4.409 -0.6800  0.1198 -0.0570
18752TIP3    H177671   6.655   5.402   4.362  0.9060  0.1022 -2.6066
18752TIP3    H277672   6.715   5.265   4.388  0.2629  0.1554 -0.7637
18753TIP3   OH277673   0.030   1.107   1.768 -0.2944 -0.3474 -0.3101
18753TIP3    H177674   0.086   1.090   1.692 -0.1571 -1.6518  0.0569
18753TIP3    H277675   0.017   1.020   1.808 -2.1357  0.0202 -0.0704
18754TIP3   OH277676   3.847   2.843  16.511  0.6257 -0.1954 -0.6753
18754TIP3    H177677   3.931   2.818  16.472  0.1335 -3.1059  0.0637
18754TIP3    H277678   3.783   2.827  16.443  0.3218 -0.8529 -0.2382
18755TIP3   OH277679   2.663   0.691   4.702 -0.5285 -0.2647 -0.0870
18755TIP3    H177680   2.635   0.753   4.768  2.0935  0.3744  0.5073
18755TIP3    H277681   2.701   0.745   4.633  1.9709 -1.1582  0.5326
18756TIP3   OH277682   1.558   4.125   4.136  0.1413 -0.3163 -0.1645
18756TIP3    H177683   1.474   4.080   4.147  0.0614 -0.7817 -2.3946
18756TIP3    H277684   1.586   4.146   4.225 -3.7669  2.5407  0.5045
18757TIP3   OH277685   4.450   0.905  14.916 -0.8345 -0.1381 -0.3333
18757TIP3    H177686   4.389   0.873  14.850  0.3648 -0.1769 -1.4453
18757TIP3    H277687   4.533   0.863  14.894 -0.2022  0.5754  0.6361
18758TIP3   OH277688   1.225   4.982  13.895  0.1397  0.4384  0.3473
18758TIP3    H177689   1.267   4.927  13.961 -1.2508  1.0015  1.7471
18758TIP3    H277690   1.284   4.979  13.820  0.4370 -2.3924  0.6295
18759TIP3   OH277691   6.112   2.267   0.741 -0.0030 -0.5408  0.2160
18759TIP3    H177692   6.201   2.237   0.758 -0.4236 -1.0504  1.6038
18759TIP3    H277693   6.059   2.227   0.810 -1.3746 -0.5395 -0.7913
18760TIP3   OH277694   1.330   0.837   2.939 -0.3104 -0.1483 -0.2479
18760TIP3    H177695   1.350   0.766   3.000 -2.1489 -0.0129  0.5366
18760TIP3    H277696   1.411   0.849   2.889  0.4514 -1.8812  0.5284
18761TIP3   OH277697   0.542   1.826  15.111  0.0897 -0.0822  0.8298
18761TIP3    H177698   0.550   1.920  15.096  1.2696 -0.3624 -0.5280
18761TIP3    H277699   0.461   1.815  15.159 -0.0116  1.6424  1.0677
18762TIP3   OH277700   3.895   0.835  10.690 -0.5321 -0.4155 -0.2797
18762TIP3    H177701   3.867   0.855  10.601  0.9987 -0.7749 -0.8591
18762TIP3    H277702   3.979   0.791  10.680  0.2274  0.5837  1.4048
18763TIP3   OH277703   3.765   0.615   4.072 -0.0857  0.1878  0.2095
18763TIP3    H177704   3.778   0.654   4.158  0.5710  0.0503  0.1791
18763TIP3    H277705   3.793   0.683   4.011  3.3583 -1.1424  0.2152
18764TIP3   OH277706   5.102   3.551  15.166 -0.2914 -0.1722  0.3015
18764TIP3    H177707   5.073   3.588  15.250  0.7568  0.1571  0.5191
18764TIP3    H277708   5.074   3.616  15.101  0.7589  0.5907  0.5998
18765TIP3   OH277709   2.641   3.952   6.158 -0.1781  0.2366  0.7355
18765TIP3    H177710   2.701   3.878   6.151  0.3933  0.9196 -2.5160
18765TIP3    H277711   2.651   3.983   6.248  2.6005 -1.1503  0.9441
18766TIP3   OH277712   3.058   3.449   3.006  0.2349 -0.2986 -1.1489
18766TIP3    H177713   3.070   3.530   2.957 -1.4500  0.5905 -0.1368
18766TIP3    H277714   3.062   3.380   2.940 -0.2864  0.7601 -2.2995
18767TIP3   OH277715   6.284   5.791   1.827 -0.0553 -0.0223  0.3912
18767TIP3    H177716   6.346   5.767   1.896  0.8855  0.0860 -0.4028
18767TIP3    H277717   6.297   5.885   1.815 -1.7581  0.3779  1.5615
18768TIP3   OH277718   2.021   1.914  17.164  0.0771 -0.0617 -0.0211
18768TIP3    H177719   2.077   1.836  17.156  1.0704  0.5211  1.1122
18768TIP3    H277720   1.937   1.880  17.195  0.1672 -0.8059 -0.5795
18769TIP3   OH277721   3.405   3.952   2.685  0.2872  0.1084  0.6984
18769TIP3    H177722   3.340   3.980   2.621  0.5240  0.0693  0.4435
18769TIP3    H277723   3.486   3.942   2.635  0.4192 -0.1325  0.9609
18770TIP3   OH277724   6.725   1.466   0.852  0.2658  0.0986  0.1144
18770TIP3    H177725   6.701   1.384   0.809  0.7958 -0.2214  0.4143
18770TIP3    H277726   6.730   1.444   0.945 -0.0385  0.5834  0.2497
18771TIP3   OH277727   2.271   2.738   2.401  0.0915  0.4257 -0.5852
18771TIP3    H177728   2.252   2.809   2.339 -0.6881 -1.2815 -2.3356
18771TIP3    H277729   2.196   2.736   2.460 -0.7186 -0.0926 -1.6265
18772TIP3   OH277730   1.806   2.748  13.441 -0.5507 -0.2688 -0.0799
18772TIP3    H177731   1.813   2.802  13.362  1.8998  0.1404  0.3648
18772TIP3    H277732   1.737   2.685  13.421 -0.5562  0.3653 -2.2177
18773TIP3   OH277733   0.894   4.913  11.157  0.1477 -0.7447 -0.3226
18773TIP3    H177734   0.947   4.959  11.222  0.0033  0.6789 -1.2017
18773TIP3    H277735   0.949   4.840  11.129  0.3608 -1.1381  1.1155
18774TIP3   OH277736   6.353   4.338  14.983  0.4675 -0.1183 -0.4121
18774TIP3    H177737   6.302   4.359  15.061  1.8149  1.2226  0.1379
18774TIP3    H277738   6.444   4.348  15.011  1.0575 -2.4336 -1.3803
18775TIP3   OH277739   0.687   1.054  16.215  0.3187  0.1771  0.5367
18775TIP3    H177740   0.681   1.086  16.124 -2.2141  1.0025  0.9571
18775TIP3    H277741   0.717   0.964  16.206  1.1884  0.5868 -1.0501
18776TIP3   OH277742   3.314   3.771   0.505  0.1546  0.4805 -0.2692
18776TIP3    H177743   3.290   3.679   0.519  0.6067  0.1389 -1.6258
18776TIP3    H277744   3.408   3.774   0.525  0.6318  0.1519 -2.3621
18777TIP3   OH277745   5.576   2.019  11.828  0.5741 -0.3760  0.4055
18777TIP3    H177746   5.534   2.004  11.743 -0.4612  1.7178  0.5185
18777TIP3    H277747   5.643   2.085  11.811  0.1282  0.3098  1.2802
18778TIP3   OH277748   1.478   1.036  14.302 -0.2997  0.1849 -0.2381
18778TIP3    H177749   1.550   1.059  14.360 -0.4087  0.0384 -0.0449
18778TIP3    H277750   1.399   1.059  14.350 -0.3807  0.5042 -0.5196
18779TIP3   OH277751   0.807   1.282   3.716  0.2593  0.0663 -0.1690
18779TIP3    H177752   0.854   1.253   3.794 -0.9179  0.8686  0.8810
18779TIP3    H277753   0.738   1.339   3.750 -1.9279 -1.6261 -1.5764
18780TIP3   OH277754   3.364   6.554  14.816 -0.8152  0.0553  0.1276
18780TIP3    H177755   3.272   6.557  14.790 -1.4107 -0.7417  2.1003
18780TIP3    H277756   3.377   6.466  14.849 -0.0897  1.0440  2.5782
18781TIP3   OH277757   3.380   1.457  15.359 -0.3165  0.5624 -0.1290
18781TIP3    H177758   3.450   1.523  15.359 -0.6594  0.9374  0.8697
18781TIP3    H277759   3.372   1.431  15.268 -0.3428  2.0792 -0.5681
18782TIP3   OH277760   5.273   0.392   5.826 -0.5820 -0.2639 -0.2520
18782TIP3    H177761   5.203   0.351   5.776  1.7297 -2.0089 -2.1945
18782TIP3    H277762   5.316   0.451   5.763 -0.8909  1.5444  1.1821
18783TIP3   OH277763   5.339   5.530   2.350  0.5750  0.3296  0.1938
18783TIP3    H177764   5.268   5.531   2.286  1.2661  0.2858 -0.5835
18783TIP3    H277765   5.401   5.465   2.316  0.6117 -0.2060  1.2700
18784TIP3   OH277766   2.310   5.373  17.160  0.0425 -0.2378 -0.1632
18784TIP3    H177767   2.308   5.338  17.071 -0.5548  0.8358 -0.5677
18784TIP3    H277768   2.402   5.366  17.186  0.1999 -0.6620 -0.8149
18785TIP3   OH277769   2.992   4.627  16.965 -0.0463  0.0687 -0.6492
18785TIP3    H177770   2.977   4.718  16.938  0.6754  0.3432 -0.1550
18785TIP3    H277771   2.940   4.617  17.044  0.3652  0.2558 -0.3464
18786TIP3   OH277772   1.032   1.166  12.016 -0.6117 -0.1954 -0.5498
18786TIP3    H177773   1.092   1.149  12.088  0.0349 -1.3303 -1.3460
18786TIP3    H277774   1.088   1.174  11.938 -1.2883  1.1071 -0.9313
18787TIP3   OH277775   0.283   1.595  15.771 -0.1507  0.4219 -0.2358
18787TIP3    H177776   0.340   1.526  15.805  0.0538  0.1642 -1.0813
18787TIP3    H277777   0.198   1.577  15.811 -0.3540 -0.9547 -1.2444
18788TIP3   OH277778   1.978   2.425   2.392  0.2843 -0.2761  0.2585
18788TIP3    H177779   2.025   2.464   2.465  1.1104  0.6364 -0.7518
18788TIP3    H277780   1.920   2.495   2.361  2.0905  0.3177 -1.8402
18789TIP3   OH277781   5.969   5.635   5.719  0.2878  0.0414  0.0974
18789TIP3    H177782   5.904   5.569   5.696  0.0317 -0.4928  2.2638
18789TIP3    H277783   5.919   5.717   5.725  0.1698 -0.0092 -0.1768
18790TIP3   OH277784   1.395   3.475   4.626 -0.4056  0.3447  0.3203
18790TIP3    H177785   1.336   3.414   4.583  0.2969  0.2094 -0.4646
18790TIP3    H277786   1.469   3.484   4.566  0.0292  1.0855  0.9478
18791TIP3   OH277787   2.956   3.470   5.398  0.5021 -0.2637 -0.4002
18791TIP3    H177788   2.961   3.564   5.382  0.1623 -0.3756 -1.1607
18791TIP3    H277789   2.976   3.461   5.491  1.5727  0.4681 -0.5483
18792TIP3   OH277790   2.788   6.483   4.579 -0.1970  0.4877 -0.6188
18792TIP3    H177791   2.720   6.469   4.644  0.4832 -2.2373 -0.4587
18792TIP3    H277792   2.870   6.476   4.628  0.2560  2.9944 -0.9488
18793TIP3   OH277793   6.605   3.303   2.935 -0.0970  0.4617 -0.7881
18793TIP3    H177794   6.598   3.313   2.840  0.2675  1.6999 -0.7016
18793TIP3    H277795   6.688   3.346   2.957 -0.3204  0.4306  0.1255
18794TIP3   OH277796   1.305   4.420  11.777 -0.0805  0.2502  0.3185
18794TIP3    H177797   1.296   4.342  11.722 -1.1254  1.9037 -1.9520
18794TIP3    H277798   1.392   4.454  11.755 -0.7220  1.2231 -0.7914
18795TIP3   OH277799   6.449   2.727   2.277  0.6865 -0.2002 -0.6567
18795TIP3    H177800   6.466   2.645   2.323 -2.7361  0.1300  1.3786
18795TIP3    H277801   6.425   2.701   2.188  1.3740 -1.2473 -0.5380
18796TIP3   OH277802   5.004   4.460  10.936 -0.3704 -0.6068 -0.0481
18796TIP3    H177803   5.006   4.364  10.937 -0.0450 -0.5961  0.4126
18796TIP3    H277804   5.095   4.485  10.920 -0.5988 -0.3868 -1.0139
18797TIP3   OH277805   0.212   0.708   3.421 -0.2652 -0.4888  0.6079
18797TIP3    H177806   0.301   0.700   3.386 -0.2271 -3.2895  1.2489
18797TIP3    H277807   0.224   0.754   3.505  0.2037  1.6963 -0.6057
18798TIP3   OH277808   1.263   4.628   5.251 -0.6632  0.2109 -0.6338
18798TIP3    H177809   1.221   4.710   5.278  2.7383  1.6523  0.5499
18798TIP3    H277810   1.322   4.653   5.181  0.0194 -1.3255 -0.6222
18799TIP3   OH277811   4.621   4.611   5.618  0.3188  0.2103 -0.5410
18799TIP3    H177812   4.537   4.621   5.663  1.2023 -1.6805  1.6305
18799TIP3    H277813   4.638   4.697   5.579 -1.4947  1.2925  0.9772
18800TIP3   OH277814   2.978   2.645  13.730  0.0994  0.1167  0.0703
18800TIP3    H177815   2.927   2.592  13.668  1.4577 -1.9610  0.6567
18800TIP3    H277816   2.941   2.623  13.816  1.0228 -0.2986  0.3641
18801TIP3   OH277817   1.376   4.631  11.373 -0.0951  0.2761  0.0029
18801TIP3    H177818   1.452   4.615  11.318 -0.3669  0.8175 -0.5292
18801TIP3    H277819   1.400   4.707  11.427  0.1508 -0.2190  0.6051
18802TIP3   OH277820   1.614   5.834  13.697  0.3306  0.2581 -0.1632
18802TIP3    H177821   1.522   5.858  13.690  0.3387 -0.1297 -1.7644
18802TIP3    H277822   1.660   5.893  13.638  0.9766 -0.2735 -0.2023
18803TIP3   OH277823   3.446   5.106  14.814  0.2840 -0.3556  0.0946
18803TIP3    H177824   3.411   5.143  14.733  1.5449  0.3319 -0.1319
18803TIP3    H277825   3.380   5.128  14.881 -0.3617 -0.2244 -0.5832
18804TIP3   OH277826   4.511   5.443  15.808 -0.5527  0.2449  0.0942
18804TIP3    H177827   4.475   5.531  15.820 -0.6377  0.2320 -0.0790
18804TIP3    H277828   4.535   5.439  15.716  0.9258  0.6396  0.4539
18805TIP3   OH277829   0.865   4.255   1.171 -0.0726  0.5074 -0.3965
18805TIP3    H177830   0.886   4.333   1.222  0.1297  0.7889 -0.9089
18805TIP3    H277831   0.863   4.184   1.235  0.2729  0.8433 -0.0146
18806TIP3   OH277832   6.603   4.466  15.035  0.0187  0.2002 -0.0145
18806TIP3    H177833   6.686   4.512  15.048  0.3181 -0.6340  1.0965
18806TIP3    H277834   6.612   4.424  14.950  0.9296 -0.2863  0.3169
18807TIP3   OH277835   2.400   6.223  11.379  0.4057  0.0819 -0.4025
18807TIP3    H177836   2.440   6.180  11.454  0.2103 -1.8177 -1.3396
18807TIP3    H277837   2.322   6.266  11.414  1.1997  0.6028  0.7535
18808TIP3   OH277838   5.106   6.109   2.596 -0.3617 -0.1578 -0.6588
18808TIP3    H177839   5.015   6.084   2.611 -0.7643  0.6864 -1.6613
18808TIP3    H277840   5.114   6.196   2.634 -0.2340  0.1590 -1.3874
18809TIP3   OH277841   5.908   1.467   5.091  0.1646 -0.1110 -0.4424
18809TIP3    H177842   5.952   1.493   5.011  1.6841  0.7201  0.6402
18809TIP3    H277843   5.908   1.546   5.145 -1.4782 -0.4580  0.1068
18810TIP3   OH277844   2.599   3.538  15.981 -0.3709  0.1697  0.2718
18810TIP3    H177845   2.585   3.632  15.974  0.5320  0.3152  0.4150
18810TIP3    H277846   2.584   3.504  15.893  2.0143  0.8063 -0.4099
18811TIP3   OH277847   1.113   3.352  16.302  0.2510  0.3007  0.1786
18811TIP3    H177848   1.028   3.313  16.282  0.1928  0.0799  0.8313
18811TIP3    H277849   1.132   3.410  16.228  0.7256 -1.6050 -1.2264
18812TIP3   OH277850   3.266   3.845   4.837  0.3599 -0.2862  0.6161
18812TIP3    H177851   3.215   3.812   4.911 -0.4280 -0.2684  0.0923
18812TIP3    H277852   3.291   3.934   4.863 -0.3437 -0.0961  0.6634
18813TIP3   OH277853   2.725   1.334  13.163 -0.5879  0.0784  0.0158
18813TIP3    H177854   2.773   1.291  13.092 -2.1875 -0.0730 -0.9965
18813TIP3    H277855   2.638   1.293  13.161 -1.0178  0.9077  1.3033
18814TIP3   OH277856   2.465   0.705   0.727 -0.0010 -0.4318  0.9405
18814TIP3    H177857   2.520   0.714   0.805 -0.3895  0.4410  1.1126
18814TIP3    H277858   2.421   0.620   0.740 -0.0215 -0.3206  1.6417
18815TIP3   OH277859   0.362   4.330   0.133 -0.5099  0.5343  0.0126
18815TIP3    H177860   0.373   4.259   0.070 -0.6546  0.8279 -0.3419
18815TIP3    H277861   0.274   4.365   0.116  0.0898  1.7081 -0.7416
18816TIP3   OH277862   4.669   3.578   6.853  0.1053  0.4752  0.0172
18816TIP3    H177863   4.584   3.611   6.825  0.8958  0.5848 -2.3777
18816TIP3    H277864   4.733   3.639   6.815  1.3260 -0.6473  0.1999
18817TIP3   OH277865   2.032   5.962   4.991  0.2636  0.1373 -0.0333
18817TIP3    H177866   1.946   5.920   5.001  0.8735 -0.6022  2.4693
18817TIP3    H277867   2.017   6.053   5.016  0.2197 -0.0014  0.4465
18818TIP3   OH277868   2.450   0.085  15.472 -0.0054 -0.1276 -0.0372
18818TIP3    H177869   2.540   0.055  15.456  0.0515  0.6979 -1.3269
18818TIP3    H277870   2.452   0.178  15.451 -1.2662 -0.1991 -0.4732
18819TIP3   OH277871   5.123   2.682   1.639  0.2700  0.2502  0.7693
18819TIP3    H177872   5.063   2.607   1.644  1.5224 -0.8969 -0.7630
18819TIP3    H277873   5.107   2.731   1.720  1.3110 -3.1442  3.1607
18820TIP3   OH277874   1.847   4.433   4.268  0.3638 -0.3901 -0.3724
18820TIP3    H177875   1.872   4.513   4.315 -2.0245 -0.7267  1.5630
18820TIP3    H277876   1.774   4.460   4.213  0.8247 -0.8230 -1.2021
18821TIP3   OH277877   1.998   5.508   3.068  0.5628  0.2201  0.1761
18821TIP3    H177878   1.971   5.558   3.145  1.4718  1.3547 -0.2252
18821TIP3    H277879   1.916   5.494   3.019  0.2275  0.9234  0.5228
18822TIP3   OH277880   4.370   2.612  10.683 -0.4702 -0.4474 -0.0965
18822TIP3    H177881   4.439   2.618  10.749 -0.4204 -1.3275 -0.0626
18822TIP3    H277882   4.310   2.546  10.718 -1.0540 -0.0573 -0.3711
18823TIP3   OH277883   5.758   4.827   2.166 -0.0097 -0.0171  0.5371
18823TIP3    H177884   5.710   4.797   2.243 -0.9840 -0.1359 -0.1071
18823TIP3    H277885   5.730   4.917   2.153 -1.4681 -0.6651 -0.9214
18824TIP3   OH277886   5.092   0.730   1.877  0.7569 -0.3562 -0.0623
18824TIP3    H177887   5.125   0.751   1.964  0.7806  0.2408 -0.2091
18824TIP3    H277888   5.069   0.637   1.881  1.0934 -0.4172  0.4705
18825TIP3   OH277889   4.627   2.425   6.918 -0.0251  0.5351 -0.3865
18825TIP3    H177890   4.712   2.414   6.876 -0.5442  0.6840 -1.4779
18825TIP3    H277891   4.642   2.495   6.982  1.0870 -0.5780  0.6209
18826TIP3   OH277892   1.390   2.458   6.384 -0.4096  0.7853 -0.3129
18826TIP3    H177893   1.420   2.541   6.347  2.1821  0.6641  1.3643
18826TIP3    H277894   1.338   2.483   6.460  1.2106  0.9148  0.7920
18827TIP3   OH277895   2.121   4.125  15.800  0.2733  0.4592  0.0961
18827TIP3    H177896   2.173   4.045  15.792 -1.0715 -0.3851 -0.5313
18827TIP3    H277897   2.048   4.112  15.738  0.2057  2.3024 -0.2312
18828TIP3   OH277898   1.373   5.836  12.822  0.1707 -0.1490 -0.1858
18828TIP3    H177899   1.410   5.762  12.775 -0.4111 -0.0021 -0.8932
18828TIP3    H277900   1.338   5.798  12.903  3.9885  0.0825  1.6932
18829TIP3   OH277901   6.146   1.083   1.891  0.1782  0.1650 -0.0857
18829TIP3    H177902   6.176   0.993   1.883  1.0012  0.5967 -2.1882
18829TIP3    H277903   6.147   1.117   1.802 -0.9162  2.0156  0.5666
18830TIP3   OH277904   5.214   3.128   0.318  0.0318  0.6236 -0.1920
18830TIP3    H177905   5.175   3.043   0.297  2.1859 -0.6346  0.7413
18830TIP3    H277906   5.205   3.179   0.238 -2.6276  0.0789 -0.3066
18831TIP3   OH277907   2.148   4.944  16.324  0.1644 -0.3751 -0.3400
18831TIP3    H177908   2.214   4.984  16.381  2.2924 -2.3435 -1.3337
18831TIP3    H277909   2.196   4.877  16.275 -2.2064 -0.6324 -2.4191
18832TIP3   OH277910   0.187   5.617   1.833  0.1526  0.3402 -0.1817
18832TIP3    H177911   0.185   5.640   1.926  3.0413 -1.1163  0.3075
18832TIP3    H277912   0.191   5.701   1.788 -1.8682  1.0850  0.9520
18833TIP3   OH277913   4.215   5.123  16.660 -0.1280 -0.1450 -0.0777
18833TIP3    H177914   4.309   5.126  16.638 -0.3386 -0.4093 -1.0565
18833TIP3    H277915   4.208   5.051  16.722  0.9358  2.4842  3.2027
18834TIP3   OH277916   5.678   6.701   4.549  0.1607 -0.3486  0.1347
18834TIP3    H177917   5.756   6.681   4.599 -0.9802 -2.0287  1.2944
18834TIP3    H277918   5.611   6.720   4.614 -0.7469 -0.2360 -0.8059
18835TIP3   OH277919   1.749   2.796  16.870  0.4297 -0.7252 -0.1716
18835TIP3    H177920   1.680   2.762  16.927 -1.4974 -1.5178 -2.8652
18835TIP3    H277921   1.804   2.720  16.851  0.9252 -0.5143  0.3911
18836TIP3   OH277922   5.503   0.225   6.773 -0.3398  0.2745 -0.0247
18836TIP3    H177923   5.481   0.132   6.782  0.6257  0.0793  0.3387
18836TIP3    H277924   5.565   0.228   6.700  0.3221  0.5270  0.5495
18837TIP3   OH277925   5.649   3.922  15.192 -0.2379 -0.3422  0.0936
18837TIP3    H177926   5.743   3.933  15.178 -0.4802  1.3788 -0.2758
18837TIP3    H277927   5.623   3.856  15.128  0.4747  0.2276 -0.8014
18838TIP3   OH277928   2.241   5.359  16.024 -0.1042 -0.3009  0.3602
18838TIP3    H177929   2.195   5.276  16.012  0.5060 -0.5326 -0.4065
18838TIP3    H277930   2.311   5.358  15.959 -1.1901  1.6094 -0.9007
18839TIP3   OH277931   6.084   0.731   2.811  0.0355 -0.2588 -0.3385
18839TIP3    H177932   6.068   0.704   2.721 -0.3715 -0.6694 -0.1439
18839TIP3    H277933   6.115   0.652   2.855  2.6954  0.5047 -0.7114
18840TIP3   OH277934   5.602   0.814   2.531 -0.3528  0.6011 -0.1321
18840TIP3    H177935   5.518   0.831   2.573 -1.1931  0.4144 -1.6958
18840TIP3    H277936   5.666   0.822   2.602 -1.6347  1.1621  0.9970
18841TIP3   OH277937   5.991   1.603  13.257  0.1585 -0.2950 -1.0186
18841TIP3    H177938   5.910   1.613  13.306  0.2615  0.9590 -1.0703
18841TIP3    H277939   6.029   1.521  13.288 -0.3716 -0.1186  0.1007
18842TIP3   OH277940   5.669   1.840   2.712 -0.2716 -0.1652 -0.2790
18842TIP3    H177941   5.724   1.918   2.715 -0.3417  0.0647 -3.3262
18842TIP3    H277942   5.696   1.794   2.632 -2.8890 -1.2183 -0.6334
18843TIP3   OH277943   1.835   3.567   0.249 -0.0473  0.6257  0.4960
18843TIP3    H177944   1.877   3.503   0.193  0.4065  1.9438 -0.6976
18843TIP3    H277945   1.792   3.515   0.318 -0.0835 -0.9563 -0.7025
18844TIP3   OH277946   5.553   4.993  13.603  0.3434 -0.4678  0.1676
18844TIP3    H177947   5.570   4.899  13.600  1.7836 -0.2964  2.2945
18844TIP3    H277948   5.620   5.031  13.546 -0.8090 -0.7591 -1.4376
18845TIP3   OH277949   0.027   1.347   4.991  0.1914  0.8310  0.5019
18845TIP3    H177950  -0.043   1.413   4.987 -0.4868  0.0571 -1.0429
18845TIP3    H277951   0.002   1.283   4.924  2.0873  0.2426  0.3487
18846TIP3   OH277952   3.383   0.953  17.166 -0.1743  0.0223 -0.3308
18846TIP3    H177953   3.341   0.893  17.227  1.5460 -0.5944  0.2672
18846TIP3    H277954   3.464   0.910  17.141  0.8078  1.8312 -0.3522
18847TIP3   OH277955   2.430   4.729   3.639 -0.2513  0.5059 -0.1930
18847TIP3    H177956   2.350   4.712   3.689 -0.3948 -0.2466 -0.6733
18847TIP3    H277957   2.414   4.815   3.598  0.2280  1.5511  1.7452
18848TIP3   OH277958   6.414   1.250  11.586 -0.4216  0.3258 -0.4337
18848TIP3    H177959   6.484   1.187  11.575  0.2166  0.0546  4.2417
18848TIP3    H277960   6.417   1.304  11.507  2.3162 -2.2688 -2.1812
18849TIP3   OH277961   3.965   1.725  15.368 -0.3938 -0.0051  0.5874
18849TIP3    H177962   3.939   1.814  15.390 -0.8885 -0.0635  0.2496
18849TIP3    H277963   3.980   1.727  15.273  1.5981  0.2217  0.8699
18850TIP3   OH277964   2.209   3.151  11.076  0.1592  0.3520 -0.3935
18850TIP3    H177965   2.215   3.227  11.019 -3.4230 -1.0219 -2.7761
18850TIP3    H277966   2.250   3.081  11.027 -0.2064 -0.1469  0.0077
18851TIP3   OH277967   4.497   3.143   3.134 -0.2175 -0.2474  0.0252
18851TIP3    H177968   4.537   3.059   3.157  1.0545  0.0847 -0.9531
18851TIP3    H277969   4.549   3.208   3.181 -1.0547  0.0319  0.5906
18852TIP3   OH277970   2.914   3.865  14.704  0.7250 -0.0874 -0.0497
18852TIP3    H177971   2.872   3.802  14.762  0.8064 -2.2486 -2.2793
18852TIP3    H277972   2.861   3.944  14.712 -0.6723 -1.1324  1.1279
18853TIP3   OH277973   0.657   3.007  11.489  0.4664 -0.0820  1.0297
18853TIP3    H177974   0.593   3.062  11.534  0.2502  0.9662 -0.5486
18853TIP3    H277975   0.652   2.923  11.536 -1.3841  0.2610  1.5149
18854TIP3   OH277976   5.526   1.564   4.680  0.4091 -0.0170 -0.6632
18854TIP3    H177977   5.622   1.569   4.678  0.3207  2.0431 -0.3562
18854TIP3    H277978   5.497   1.646   4.640 -1.2134  0.6838  1.8187
18855TIP3   OH277979   2.587   3.421  15.724  0.0841  0.3736 -0.1149
18855TIP3    H177980   2.652   3.353  15.705 -0.0240  0.3595 -0.4219
18855TIP3    H277981   2.598   3.486  15.655 -1.8942 -0.8081 -1.5938
18856TIP3   OH277982   2.209   1.242   2.668  0.2973 -0.3278 -0.1110
18856TIP3    H177983   2.201   1.337   2.675  1.6029 -0.2062 -0.0446
18856TIP3    H277984   2.253   1.216   2.749 -0.1852 -1.0057 -0.0651
18857TIP3   OH277985   6.277   0.693   0.740  0.1027  0.1720  0.6989
18857TIP3    H177986   6.363   0.734   0.747 -1.2057  3.2459 -0.6809
18857TIP3    H277987   6.215   0.765   0.749 -2.2946 -1.6894 -0.4990
18858TIP3   OH277988   1.180   2.643  13.854  0.0747  0.2938 -0.0562
18858TIP3    H177989   1.272   2.631  13.830  0.1360 -0.2469  0.4693
18858TIP3    H277990   1.143   2.690  13.779  0.6214 -0.0763 -0.5617
18859TIP3   OH277991   4.400   3.337  10.494  0.6782 -0.4050 -0.0232
18859TIP3    H177992   4.372   3.342  10.402 -1.0732 -0.6355  0.4786
18859TIP3    H277993   4.410   3.243  10.511 -1.4986 -0.5399  0.7163
18860TIP3   OH277994   3.049   2.709   2.298 -0.5284 -0.4006 -0.0055
18860TIP3    H177995   2.989   2.647   2.340 -0.3666 -1.4036 -1.2044
18860TIP3    H277996   3.028   2.703   2.204 -0.1964  1.0263 -0.1879
18861TIP3   OH277997   6.505   5.676  14.092  0.2514  0.5358 -0.2813
18861TIP3    H177998   6.434   5.615  14.114 -1.1449  1.0809 -3.0827
18861TIP3    H277999   6.567   5.667  14.164 -1.8369 -1.2407  1.3739
18862TIP3   OH278000   2.006   1.297   3.126  0.4880  0.2211  0.2206
18862TIP3    H178001   1.946   1.353   3.077  0.3590 -1.1376 -1.2254
18862TIP3    H278002   2.089   1.301   3.078  0.7221 -0.1411  0.5857
18863TIP3   OH278003   1.176   2.931  17.052  0.2117  0.0825 -0.0749
18863TIP3    H178004   1.266   2.939  17.083  1.3605  0.6143 -3.3806
18863TIP3    H278005   1.135   3.015  17.072  0.4619 -0.1293  1.3519
18864TIP3   OH278006   6.350   0.394  13.652  0.1372 -0.0189  0.3537
18864TIP3    H178007   6.363   0.306  13.616 -0.5871  0.4395 -1.0937
18864TIP3    H278008   6.348   0.381  13.747  1.7979 -1.3112  0.2344
18865TIP3   OH278009   3.847   1.028  15.563 -0.5957  0.0789  0.6139
18865TIP3    H178010   3.919   1.006  15.622  0.5663  1.0586 -0.4141
18865TIP3    H278011   3.841   0.953  15.504  1.2178  1.0288 -0.8324
18866TIP3   OH278012   5.860   2.976   0.683  0.0521  0.0697 -0.4014
18866TIP3    H178013   5.869   2.915   0.610 -0.2800 -1.0629  0.4919
18866TIP3    H278014   5.781   2.947   0.729  0.4720  0.5400  0.6323
18867TIP3   OH278015   0.339   2.792  12.309  0.5024 -0.4277 -0.0774
18867TIP3    H178016   0.245   2.789  12.327  0.5567  5.4028  2.1044
18867TIP3    H278017   0.344   2.821  12.218  0.1317  0.9512  0.3254
18868TIP3   OH278018   3.020   5.523  17.151 -0.0378 -0.4065 -0.8483
18868TIP3    H178019   3.057   5.541  17.237 -1.8272 -0.4044 -0.0585
18868TIP3    H278020   3.032   5.429  17.139  0.6607 -0.3242 -0.8266
18869TIP3   OH278021   3.600   6.308   1.646  0.0552 -0.1110  0.4843
18869TIP3    H178022   3.523   6.264   1.683  0.3274  1.2768  2.7807
18869TIP3    H278023   3.674   6.261   1.684  0.3409  0.5596  0.7585
18870TIP3   OH278024   6.129   1.050  12.800  0.0132  0.1502 -0.0806
18870TIP3    H178025   6.035   1.059  12.813 -0.0182 -1.1449  0.5986
18870TIP3    H278026   6.168   1.115  12.859 -0.4808  1.5477 -1.2689
18871TIP3   OH278027   4.723   6.207   2.551  0.2566 -0.0461  0.2026
18871TIP3    H178028   4.651   6.193   2.612 -0.2386 -1.4029 -0.6617
18871TIP3    H278029   4.782   6.133   2.566  1.1427  0.6904  0.4265
18872TIP3   OH278030   0.163   1.213  16.854  0.2269 -0.3981 -0.0239
18872TIP3    H178031   0.233   1.276  16.836  0.4422 -0.9449 -1.1527
18872TIP3    H278032   0.097   1.232  16.787 -0.6933  0.0924  1.0193
18873TIP3   OH278033   4.294   2.058  14.959  0.0105 -0.0827  0.4831
18873TIP3    H178034   4.282   2.023  15.047 -0.3388 -0.3229  0.3408
18873TIP3    H278035   4.280   1.982  14.901 -1.1757  0.3910  0.1517
18874TIP3   OH278036   3.536   1.328  10.902  0.4992  0.3730 -0.0782
18874TIP3    H178037   3.579   1.412  10.917 -1.0299  1.0794  0.4855
18874TIP3    H278038   3.464   1.326  10.965  1.8271 -2.3288  1.4199
18875TIP3   OH278039   1.058   4.863   2.658 -0.1857  0.1315  0.6616
18875TIP3    H178040   1.048   4.928   2.728 -1.2424  1.4468 -0.6846
18875TIP3    H278041   1.153   4.851   2.650 -0.0189  0.8073  1.5268
18876TIP3   OH278042   0.158   1.514   0.200 -0.3878  0.3791 -0.1168
18876TIP3    H178043   0.118   1.537   0.284 -0.7209  1.4333 -0.5556
18876TIP3    H278044   0.220   1.445   0.221 -0.9179  0.2007  0.9032
18877TIP3   OH278045   0.108   2.067  13.658 -0.1452 -0.5823  0.0204
18877TIP3    H178046   0.134   1.992  13.711 -0.6967 -0.4239  0.5183
18877TIP3    H278047   0.084   2.028  13.573  0.4233 -0.8672 -0.0164
18878TIP3   OH278048   1.639   6.691  15.444  0.2857 -0.4687  0.0083
18878TIP3    H178049   1.584   6.619  15.413 -0.5065  0.1656 -0.0661
18878TIP3    H278050   1.700   6.649  15.505 -0.4061 -1.1467  0.2506
18879TIP3   OH278051   0.892   6.779   1.433 -0.1652 -0.6832  0.2880
18879TIP3    H178052   0.814   6.752   1.483 -1.2063  0.8497 -0.4756
18879TIP3    H278053   0.893   6.720   1.358 -1.1042 -0.1455 -0.1593
18880TIP3   OH278054   1.702   3.644   2.940 -0.2193 -0.3561 -0.3272
18880TIP3    H178055   1.627   3.619   2.885 -2.7400  0.8602  2.4048
18880TIP3    H278056   1.705   3.576   3.008  0.7364 -0.0007 -0.0129
18881TIP3   OH278057   0.632   1.480  14.614 -0.0073 -0.0593 -0.3176
18881TIP3    H178058   0.552   1.451  14.571  1.0851 -1.9216 -1.1426
18881TIP3    H278059   0.659   1.557  14.564 -2.1192  1.5846  0.9668
18882TIP3   OH278060   5.458   3.578  15.757  0.7898  0.0036  0.2311
18882TIP3    H178061   5.519   3.550  15.688  0.1045  0.9805 -0.7901
18882TIP3    H278062   5.372   3.555  15.722  0.3771  1.3626  0.3567
18883TIP3   OH278063   4.973   3.964   4.165  0.0970  0.2376  0.0592
18883TIP3    H178064   4.878   3.966   4.153  0.0691 -1.9020 -0.1438
18883TIP3    H278065   5.008   4.006   4.087 -0.6634  1.0810  0.1544
18884TIP3   OH278066   1.342   2.360   1.296 -0.0508 -0.5553  0.4737
18884TIP3    H178067   1.396   2.403   1.362 -0.1463 -0.2033  0.3223
18884TIP3    H278068   1.400   2.295   1.257  0.3263 -0.0450  0.1760
18885TIP3   OH278069   6.344   1.999   5.328  0.1645 -0.0516  0.5219
18885TIP3    H178070   6.387   2.015   5.412  2.6008 -1.7976 -0.3189
18885TIP3    H278071   6.326   1.905   5.328  0.9751 -0.2283 -1.2368
18886TIP3   OH278072   3.261   6.488  17.092  0.1043  0.4047  0.0032
18886TIP3    H178073   3.313   6.442  17.026 -2.5482  0.5787 -2.3414
18886TIP3    H278074   3.273   6.581  17.071  2.2371  0.6762  2.1944
18887TIP3   OH278075   6.493   5.839  11.509 -0.4067  0.0080 -0.1831
18887TIP3    H178076   6.537   5.758  11.484 -0.2740 -0.4708  1.5417
18887TIP3    H278077   6.424   5.851  11.442 -0.2231 -1.3398 -0.6227
18888TIP3   OH278078   1.830   3.886   3.659 -0.1866 -0.1596 -0.2580
18888TIP3    H178079   1.739   3.877   3.631 -0.5419 -1.8345  1.4267
18888TIP3    H278080   1.876   3.813   3.617  0.3572  0.5271 -0.8881
18889TIP3   OH278081   3.411   2.267   2.063 -0.0864  0.1099 -0.0931
18889TIP3    H178082   3.480   2.292   2.001 -0.4616 -0.4467 -0.7423
18889TIP3    H278083   3.443   2.297   2.148  0.7582  0.2475 -0.4577
18890TIP3   OH278084   6.735   2.061  12.936  0.1572  0.2454 -0.5387
18890TIP3    H178085   6.682   2.139  12.923 -0.1244  0.0070 -0.8335
18890TIP3    H278086   6.819   2.082  12.895  0.3064  0.6322 -0.0492
18891TIP3   OH278087   4.786   2.105   3.178  0.0298  0.2547  0.3499
18891TIP3    H178088   4.754   2.023   3.142  0.4407 -0.3932  1.4162
18891TIP3    H278089   4.871   2.083   3.216  0.7782  1.4763 -0.5605
18892TIP3   OH278090   3.665   0.395  14.705 -0.5339  0.6501  0.2416
18892TIP3    H178091   3.649   0.314  14.656 -1.4249 -0.3277  2.1012
18892TIP3    H278092   3.740   0.436  14.660 -0.2164 -1.0861 -0.8534
18893TIP3   OH278093   2.869   0.986  11.758  0.3325  0.4190  0.2550
18893TIP3    H178094   2.837   1.060  11.707  1.6541  0.6386 -0.2732
18893TIP3    H278095   2.940   1.023  11.811  0.6089 -0.3329  0.4101
18894TIP3   OH278096   0.246   1.207   2.801  0.2735  0.4317 -0.2363
18894TIP3    H178097   0.154   1.193   2.778  0.1107  1.7955 -0.4403
18894TIP3    H278098   0.295   1.149   2.743 -0.5952 -2.4366  1.8008
18895TIP3   OH278099   4.595   6.058   0.664  0.2811 -0.4464 -0.0324
18895TIP3    H178100   4.618   6.151   0.661  0.6013 -0.5208  0.0257
18895TIP3    H278101   4.542   6.049   0.743  0.5016 -0.3662  0.1245
18896TIP3   OH278102   1.849   4.470   5.246  0.7359 -0.3165  0.3090
18896TIP3    H178103   1.876   4.562   5.244 -1.2460  0.3042  1.0283
18896TIP3    H278104   1.838   4.451   5.339  0.0225 -0.9462  0.0949
18897TIP3   OH278105   2.163   2.214  14.512 -0.3513 -0.0396 -0.0312
18897TIP3    H178106   2.081   2.172  14.484 -0.3145  0.1296 -0.3866
18897TIP3    H278107   2.226   2.193  14.444  0.4242 -1.8274  1.2028
18898TIP3   OH278108   5.146   2.502  14.905  0.2395 -0.4209  0.1825
18898TIP3    H178109   5.224   2.446  14.899  0.8276  0.1922  1.7996
18898TIP3    H278110   5.161   2.570  14.839  1.3371  0.0062  0.8606
18899TIP3   OH278111   1.971   1.729   0.400  0.0893 -0.6877 -0.0331
18899TIP3    H178112   1.969   1.788   0.475 -0.2312 -1.4244  0.5386
18899TIP3    H278113   2.031   1.771   0.338  1.8284 -0.9875  1.3966
18900TIP3   OH278114   6.539   3.588  15.984 -0.5508 -0.0079  0.2412
18900TIP3    H178115   6.635   3.583  15.977 -0.4132  1.8201  0.5623
18900TIP3    H278116   6.517   3.527  16.054  0.3918 -0.4413  0.1621
18901TIP3   OH278117   5.158   2.350  16.750  0.2106  0.7106 -0.0195
18901TIP3    H178118   5.124   2.295  16.680 -0.0276 -1.1015  1.5068
18901TIP3    H278119   5.241   2.383  16.717 -0.2274  0.4308 -1.4176
18902TIP3   OH278120   2.186   1.232  16.506  0.4382 -0.2731 -0.0080
18902TIP3    H178121   2.247   1.297  16.544 -1.1768  0.5557  1.2309
18902TIP3    H278122   2.196   1.155  16.562 -0.5011  0.2763  0.9421
18903TIP3   OH278123   5.677   0.035  11.862 -0.4765  0.4170 -0.0448
18903TIP3    H178124   5.729   0.088  11.923 -0.3596 -0.3981  0.5740
18903TIP3    H278125   5.595   0.084  11.852  0.2824  1.5512 -0.7853
18904TIP3   OH278126   4.753   4.280  16.620 -0.1376  0.1046  0.5202
18904TIP3    H178127   4.670   4.296  16.665 -0.9704  0.3566 -1.0886
18904TIP3    H278128   4.767   4.186  16.631 -0.9336 -0.0452  0.2881
18905TIP3   OH278129   6.315   2.376  12.364 -0.2473  0.0772  0.4071
18905TIP3    H178130   6.407   2.390  12.385 -0.1743 -1.2112  1.0187
18905TIP3    H278131   6.277   2.463  12.358  0.7581  0.5820  1.3340
18906TIP3   OH278132   5.450   3.275   6.190  0.1013  0.2234 -0.3786
18906TIP3    H178133   5.469   3.233   6.106  1.6104  1.5527 -0.7377
18906TIP3    H278134   5.490   3.217   6.255 -0.5277 -0.4899 -0.6274
18907TIP3   OH278135   5.459   0.636   1.831 -0.1930 -0.6582 -0.3914
18907TIP3    H178136   5.479   0.555   1.784  1.3516 -0.3700 -0.2803
18907TIP3    H278137   5.462   0.611   1.924  1.6003 -0.2228 -0.3099
18908TIP3   OH278138   5.730   6.285   4.986  0.3461  0.4129  0.0619
18908TIP3    H178139   5.764   6.279   5.075 -0.5002  1.0621  0.4414
18908TIP3    H278140   5.646   6.329   4.996 -0.4513 -0.8633 -0.8896
18909TIP3   OH278141   6.487   2.763  15.409  0.0570 -0.0127 -0.0554
18909TIP3    H178142   6.479   2.667  15.408 -0.3215  0.0303 -0.8816
18909TIP3    H278143   6.536   2.781  15.489 -0.0422 -0.8875  0.2148
18910TIP3   OH278144   6.008   3.714  13.249  0.0781 -0.0848  0.5704
18910TIP3    H178145   6.061   3.731  13.327 -0.1321 -0.3769  0.7813
18910TIP3    H278146   6.069   3.678  13.185  0.2180 -0.0038  0.6603
18911TIP3   OH278147   0.968   1.084   3.856  0.2437  0.5779  0.0738
18911TIP3    H178148   1.023   1.091   3.934  0.5506  0.0200 -0.0899
18911TIP3    H278149   1.005   1.011   3.807 -0.0542  0.8163 -0.5131
18912TIP3   OH278150   2.859   1.004  12.339  1.0043  0.1640 -0.1612
18912TIP3    H178151   2.952   1.001  12.359  1.2671 -0.9560 -1.4992
18912TIP3    H278152   2.851   0.961  12.254 -0.9161 -1.0132  0.5829
18913TIP3   OH278153   5.252   3.523  16.829  0.3858 -0.1148 -0.2635
18913TIP3    H178154   5.315   3.451  16.836  0.8921  0.3059 -0.4641
18913TIP3    H278155   5.299   3.592  16.783 -0.0483  0.4005  0.0573
18914TIP3   OH278156   4.822   1.726   4.602 -0.7523  0.1304  0.2353
18914TIP3    H178157   4.797   1.708   4.692 -0.3832  1.9648  0.7307
18914TIP3    H278158   4.740   1.726   4.553 -1.0338 -0.1428  0.7068
18915TIP3   OH278159   6.341   5.331   2.724  0.0807 -0.3908  0.0926
18915TIP3    H178160   6.339   5.394   2.796  0.9368  0.9590 -1.0440
18915TIP3    H278161   6.250   5.323   2.696  0.0959  1.0884 -0.3861
18916TIP3   OH278162   3.157   0.942  13.268 -0.1578 -0.7835  0.3530
18916TIP3    H178163   3.095   0.876  13.298 -0.0678 -1.3110 -0.6012
18916TIP3    H278164   3.224   0.892  13.220  0.9229 -0.2113  1.2329
18917TIP3   OH278165   5.301   0.793   1.183  0.1288  0.0406 -0.2553
18917TIP3    H178166   5.314   0.833   1.269 -1.0194 -2.1776  0.9961
18917TIP3    H278167   5.233   0.846   1.141  1.4968  1.8096 -0.2692
18918TIP3   OH278168   2.576   5.041  12.295  0.0916 -0.2728  0.0270
18918TIP3    H178169   2.512   5.098  12.251 -1.5510 -0.9864  1.4449
18918TIP3    H278170   2.539   4.953  12.287  0.6743 -0.6400  1.2630
18919TIP3   OH278171   1.221   4.565   2.468  0.9170  0.3367  0.1104
18919TIP3    H178172   1.145   4.601   2.424  0.8403  0.0284 -0.0083
18919TIP3    H278173   1.242   4.485   2.420  1.4280  0.5155  0.0247
18920TIP3   OH278174   0.425   5.850   5.089 -0.1768 -0.2591 -0.2777
18920TIP3    H178175   0.344   5.858   5.139 -0.7606  1.5529 -1.4451
18920TIP3    H278176   0.434   5.935   5.044  2.4946 -0.3279  0.0260
18921TIP3   OH278177   5.303   3.854   2.214 -0.1653 -0.0118 -0.0482
18921TIP3    H178178   5.255   3.879   2.136  1.6265 -0.5623 -1.3642
18921TIP3    H278179   5.387   3.900   2.206 -0.2676  0.5777  1.9671
18922TIP3   OH278180   0.942   3.571  11.088  0.4273  0.4936 -0.0774
18922TIP3    H178181   0.966   3.573  10.996  0.4741 -2.2013 -0.1533
18922TIP3    H278182   1.026   3.569  11.135  0.4024 -0.7477 -0.0742
18923TIP3   OH278183   2.380   0.167   5.601 -0.6135 -0.7548 -0.2897
18923TIP3    H178184   2.310   0.231   5.611 -1.0216 -1.3620  0.8238
18923TIP3    H278185   2.431   0.174   5.682  0.8823 -0.0175 -1.2655
18924TIP3   OH278186   1.009   2.379   0.291  0.1974  0.0627 -0.0076
18924TIP3    H178187   0.914   2.390   0.284  0.2292 -0.8866 -2.4440
18924TIP3    H278188   1.021   2.336   0.376 -1.4311  1.1911  0.8388
18925TIP3   OH278189   1.427   2.058   4.451  0.1723 -0.7124  0.0193
18925TIP3    H178190   1.340   2.026   4.477  0.1653  0.0865  1.0052
18925TIP3    H278191   1.429   2.149   4.481  2.2933 -1.4760  2.2716
18926TIP3   OH278192   2.389   5.567   1.105 -0.0308 -0.0386 -0.1992
18926TIP3    H178193   2.463   5.606   1.152  1.5640 -0.8129 -1.9859
18926TIP3    H278194   2.328   5.639   1.093  0.5789  0.6959  1.0586
18927TIP3   OH278195   1.715   3.056   0.755 -0.4351  0.2857 -0.4111
18927TIP3    H178196   1.711   2.991   0.685 -0.2979  0.7640 -0.8652
18927TIP3    H278197   1.665   3.017   0.826  0.7520 -0.8915 -0.2049
18928TIP3   OH278198   2.331   6.225  12.668  0.0088 -0.5454  0.1681
18928TIP3    H178199   2.360   6.303  12.714  0.6240 -0.2775 -0.6596
18928TIP3    H278200   2.238   6.242  12.649  0.0411 -0.1813  0.3325
18929TIP3   OH278201   5.249   3.835   6.185  0.1135  0.5885  0.3253
18929TIP3    H178202   5.167   3.879   6.204 -0.7540  0.0958 -2.0799
18929TIP3    H278203   5.298   3.837   6.268 -1.2702  3.0666  1.1151
18930TIP3   OH278204   5.144   5.219  11.223 -0.3510 -0.3378 -0.0834
18930TIP3    H178205   5.090   5.167  11.163 -0.5841  0.0241 -0.1846
18930TIP3    H278206   5.082   5.250  11.289 -0.4015  0.7204 -0.6294
18931TIP3   OH278207   2.707   0.459   4.539 -0.5998 -1.2594  0.1726
18931TIP3    H178208   2.625   0.413   4.522 -0.8821 -1.0609  0.9904
18931TIP3    H278209   2.681   0.543   4.578 -0.0898 -0.3656 -1.3743
18932TIP3   OH278210   1.108   2.006   0.151 -0.0625 -0.3089  0.0351
18932TIP3    H178211   1.097   1.978   0.242 -1.7025  1.0847  0.3081
18932TIP3    H278212   1.074   1.933   0.100 -0.3506 -0.5694  0.5915
18933TIP3   OH278213   6.620   3.165   1.078 -0.3479 -0.2351 -0.6751
18933TIP3    H178214   6.566   3.136   1.004  0.8963  1.1420 -2.1371
18933TIP3    H278215   6.563   3.223   1.127  0.0856  2.1176 -2.8356
18934TIP3   OH278216   1.974   0.624  11.820  0.5019 -0.1488 -0.4993
18934TIP3    H178217   1.958   0.712  11.855  0.1058  0.1204 -1.3217
18934TIP3    H278218   2.009   0.574  11.894  1.7313  0.9865 -0.2960
18935TIP3   OH278219   0.819   5.443  14.506 -0.6390 -0.3389 -0.0913
18935TIP3    H178220   0.743   5.493  14.535  0.7270  0.4834  2.1960
18935TIP3    H278221   0.891   5.472  14.563  1.1059 -1.9994 -1.3601
18936TIP3   OH278222   0.794   2.040  15.033  0.0655 -0.1534 -0.5715
18936TIP3    H178223   0.759   2.119  14.992  0.6113 -0.1136 -0.9667
18936TIP3    H278224   0.765   1.969  14.976 -0.7376 -0.2810 -0.0180
18937TIP3   OH278225   4.736   4.943   2.606 -0.2999  0.1598 -0.6008
18937TIP3    H178226   4.760   4.860   2.649 -1.8791 -0.7410 -1.4219
18937TIP3    H278227   4.746   4.924   2.512 -0.6684  0.8947 -0.7874
18938TIP3   OH278228   5.732   5.098   2.143  0.4789 -0.1904  0.7788
18938TIP3    H178229   5.736   5.148   2.225 -1.0446  0.3115  0.5651
18938TIP3    H278230   5.696   5.159   2.079  1.2425 -0.7217 -0.1662
18939TIP3   OH278231   5.177   2.568   0.403  0.4509  0.1740  0.0508
18939TIP3    H178232   5.189   2.533   0.315 -3.0966  1.9917 -1.2499
18939TIP3    H278233   5.107   2.515   0.441 -0.0881  1.3305  0.6888
18940TIP3   OH278234   5.361   2.972   0.526 -0.2374 -0.1795 -0.0638
18940TIP3    H178235   5.440   2.928   0.494  1.9168  2.5667  1.2099
18940TIP3    H278236   5.354   3.051   0.471 -1.3695  0.2288  0.6593
18941TIP3   OH278237   4.526   5.527   2.319 -0.5565 -0.2490  0.2289
18941TIP3    H178238   4.488   5.489   2.399 -1.8122 -2.3104 -1.2844
18941TIP3    H278239   4.561   5.451   2.271  1.2574  1.0998 -0.6302
18942TIP3   OH278240   1.443   5.908   2.350  0.3979  0.1122 -0.0644
18942TIP3    H178241   1.482   5.983   2.304  1.5792 -0.0379  0.6822
18942TIP3    H278242   1.462   5.924   2.442  1.6589 -1.6771  0.0114
18943TIP3   OH278243   6.587   4.814  12.747  0.3867  0.1820 -0.1823
18943TIP3    H178244   6.621   4.736  12.792 -0.1828  0.0353 -0.0030
18943TIP3    H278245   6.574   4.786  12.657 -1.8632 -0.5845  0.3305
18944TIP3   OH278246   3.214   2.808  15.862  0.0626  0.0823  0.0157
18944TIP3    H178247   3.214   2.713  15.851  0.7594  0.1604 -0.7415
18944TIP3    H278248   3.141   2.839  15.809  1.3925  0.1715 -1.8261
18945TIP3   OH278249   4.723   4.609   1.119  0.3732 -0.7034 -0.4835
18945TIP3    H178250   4.667   4.576   1.049 -1.5840  0.5656  0.4559
18945TIP3    H278251   4.666   4.611   1.196  2.2063 -1.0828  0.9045
18946TIP3   OH278252   2.456   5.860   4.632 -0.5089  0.2685  0.1209
18946TIP3    H178253   2.497   5.896   4.710 -0.2703  0.9501 -0.3157
18946TIP3    H278254   2.526   5.812   4.588 -1.0801 -1.6649  1.2501
18947TIP3   OH278255   1.123   5.128   0.059  0.3478  0.6371 -0.2250
18947TIP3    H178256   1.183   5.183   0.010 -0.5500  0.2856 -1.7502
18947TIP3    H278257   1.039   5.137   0.013 -0.7215  0.9124  1.6885
18948TIP3   OH278258   3.913   3.044   4.650  0.2323 -0.1244 -0.3681
18948TIP3    H178259   3.878   3.133   4.639  0.3929  0.2806  2.0985
18948TIP3    H278260   3.837   2.992   4.676  0.5085 -0.2987  0.0925
18949TIP3   OH278261   3.749   6.027   5.250  0.3509 -0.0801 -0.5453
18949TIP3    H178262   3.764   5.940   5.214 -0.5886 -1.3740  2.1236
18949TIP3    H278263   3.658   6.047   5.228  0.0145 -0.5403  0.4266
18950TIP3   OH278264   0.053   3.627  12.568  0.3834 -0.5957 -0.1851
18950TIP3    H178265  -0.007   3.561  12.601  0.8083 -0.7721  0.2378
18950TIP3    H278266   0.011   3.711  12.588  0.5468 -0.7042  0.6289
18951TIP3   OH278267   5.646   1.032   5.466 -0.4015  0.1412  0.3552
18951TIP3    H178268   5.599   1.062   5.544 -0.0282 -0.5992  0.8635
18951TIP3    H278269   5.734   1.014   5.496  0.0064  0.7549 -0.4377
18952TIP3   OH278270   6.576   5.594  10.451 -0.0830  0.0795  0.0376
18952TIP3    H178271   6.592   5.689  10.449 -0.3765  0.1389  0.4811
18952TIP3    H278272   6.576   5.569  10.359 -0.4044  0.5819 -0.1030
18953TIP3   OH278273   6.767   3.668  13.155  0.2797  0.0630  0.8638
18953TIP3    H178274   6.719   3.720  13.091 -0.1656 -0.9305  0.3872
18953TIP3    H278275   6.700   3.637  13.216  0.5521  0.0936  1.1794
18954TIP3   OH278276   3.480   2.503  10.367  0.1591 -0.1804  0.2060
18954TIP3    H178277   3.397   2.509  10.415 -1.0437 -0.5664 -1.7516
18954TIP3    H278278   3.493   2.409  10.354 -0.2574 -0.0200 -1.4182
18955TIP3   OH278279   3.460   4.493   0.584 -0.3501  0.4354 -0.5721
18955TIP3    H178280   3.465   4.444   0.666  0.0783 -0.2416 -0.9990
18955TIP3    H278281   3.439   4.427   0.518 -0.8660  1.0064 -0.9821
18956TIP3   OH278282   6.704   0.911  16.609 -0.0276 -0.1567  0.4206
18956TIP3    H178283   6.702   0.935  16.516  1.1597 -0.7819  0.2291
18956TIP3    H278284   6.679   0.819  16.611  1.4551 -0.5715  0.5611
18957TIP3   OH278285   4.087   6.470   4.005 -0.2859  0.2463 -0.5721
18957TIP3    H178286   4.131   6.392   4.040 -1.2824 -0.9699 -1.9381
18957TIP3    H278287   4.086   6.456   3.910 -1.0340  1.6368 -0.7792
18958TIP3   OH278288   0.772   3.964   4.535  0.4910 -0.2430 -0.3767
18958TIP3    H178289   0.842   3.941   4.473  0.6761  1.0372 -0.6558
18958TIP3    H278290   0.768   3.889   4.595  2.4268 -0.1247 -0.0680
18959TIP3   OH278291   0.508   5.119  12.595 -0.1265  0.1594 -0.2573
18959TIP3    H178292   0.600   5.101  12.614 -0.4320 -1.1795  0.0009
18959TIP3    H278293   0.470   5.033  12.576 -1.6814  0.4954  1.2272
18960TIP3   OH278294   2.818   3.528  12.502  0.5137 -0.7363 -0.1161
18960TIP3    H178295   2.733   3.566  12.479  1.4342 -0.1990 -2.7548
18960TIP3    H278296   2.822   3.534  12.598 -1.4229  1.3552 -0.1364
18961TIP3   OH278297   2.309   4.384   0.618  0.1408 -0.3466 -0.2846
18961TIP3    H178298   2.233   4.417   0.666 -0.2988 -0.6846 -0.7342
18961TIP3    H278299   2.271   4.337   0.543  0.8005 -0.2130 -0.7094
18962TIP3   OH278300   6.395   0.678  11.361 -0.1795 -0.4010  0.2127
18962TIP3    H178301   6.302   0.653  11.362  0.1754 -1.7560  1.0526
18962TIP3    H278302   6.414   0.696  11.269 -0.4682 -3.2730 -0.4508
18963TIP3   OH278303   6.731   2.644  12.817  0.0959  0.2924  0.2167
18963TIP3    H178304   6.695   2.726  12.783  2.0853  1.2616  0.3308
18963TIP3    H278305   6.759   2.666  12.906  1.8336 -0.1339 -0.1967
18964TIP3   OH278306   4.803   4.747  16.928  0.2276  0.2958 -0.5392
18964TIP3    H178307   4.801   4.790  17.013  1.5822  0.1178 -0.4034
18964TIP3    H278308   4.715   4.760  16.892 -0.0800  1.1372  0.4968
18965TIP3   OH278309   5.218   1.079  15.447  0.0627  0.1160 -0.3593
18965TIP3    H178310   5.202   1.093  15.354  1.1490 -0.3949 -0.6291
18965TIP3    H278311   5.309   1.048  15.452 -0.0321 -0.0060  0.8517
18966TIP3   OH278312   0.513   5.995   2.226 -0.0923 -0.1820 -0.4958
18966TIP3    H178313   0.529   5.900   2.228  0.3197 -0.0935  0.4816
18966TIP3    H278314   0.460   6.012   2.303  1.4003  0.6601  0.3591
18967TIP3   OH278315   1.527   6.618   3.474 -0.4091 -0.0992  0.0901
18967TIP3    H178316   1.608   6.632   3.523  0.0362  1.4281 -1.0128
18967TIP3    H278317   1.480   6.701   3.483 -0.9362 -0.2829 -0.9119
18968TIP3   OH278318   2.031   5.920  11.884 -0.3402  0.2078 -0.7341
18968TIP3    H178319   2.002   5.855  11.949 -0.2128  1.0864  0.2130
18968TIP3    H278320   2.057   5.867  11.808 -1.1725 -0.7923 -0.3427
18969TIP3   OH278321   2.956   5.081  17.203 -0.4564 -0.4347 -0.3120
18969TIP3    H178322   2.931   4.994  17.172 -0.1585  0.1927 -2.4119
18969TIP3    H278323   3.051   5.077  17.213 -0.4239 -0.3295 -0.5562
18970TIP3   OH278324   5.905   3.718  16.802  0.4578  0.3395  0.3896
18970TIP3    H178325   5.976   3.737  16.863  0.7958  1.7252 -0.4078
18970TIP3    H278326   5.902   3.794  16.745 -0.5814 -0.4490 -0.6278
18971TIP3   OH278327   1.253   3.776  11.010 -0.2770  0.2360  0.0766
18971TIP3    H178328   1.195   3.840  11.052 -0.3685 -0.2350  0.6967
18971TIP3    H278329   1.223   3.692  11.046 -0.8426 -0.2578 -1.5088
18972TIP3   OH278330   2.181   2.653  12.878 -0.0155 -0.8758 -0.1510
18972TIP3    H178331   2.096   2.693  12.892 -0.6188 -1.4030 -2.0765
18972TIP3    H278332   2.236   2.685  12.950 -0.8427  2.2734 -0.8548
18973TIP3   OH278333   4.018   2.340  12.251  0.2624  0.0054  0.3890
18973TIP3    H178334   4.050   2.417  12.204  0.6488 -0.6383 -0.4167
18973TIP3    H278335   3.924   2.354  12.260  0.3570  0.6537  0.4164
18974TIP3   OH278336   5.877   3.386  11.673 -0.0676  0.4354  0.0786
18974TIP3    H178337   5.872   3.302  11.628  1.6247 -0.3128  1.2528
18974TIP3    H278338   5.957   3.381  11.726 -0.2410  2.5594  0.6039
18975TIP3   OH278339   3.036   3.378  13.109 -0.3963  0.1455 -0.2025
18975TIP3    H178340   3.069   3.467  13.094  0.0135  0.4729  2.4402
18975TIP3    H278341   3.104   3.336  13.162 -1.6570 -1.0031  0.5226
18976TIP3   OH278342   3.594   3.868   1.712  0.1953  0.0256  0.0303
18976TIP3    H178343   3.602   3.773   1.722 -0.2724 -0.2842 -2.1418
18976TIP3    H278344   3.531   3.894   1.778  1.4065 -0.9530  1.6129
18977TIP3   OH278345   6.245   4.764   5.104 -0.6336 -0.0855 -0.1541
18977TIP3    H178346   6.277   4.852   5.086  0.8062 -0.7945 -1.1659
18977TIP3    H278347   6.266   4.750   5.196  0.6607  0.0246 -0.4174
18978TIP3   OH278348   2.234   5.377  14.337 -0.0942 -0.6741 -0.3357
18978TIP3    H178349   2.268   5.466  14.337  0.1671 -0.7732 -0.3685
18978TIP3    H278350   2.282   5.332  14.406 -1.5903 -0.2813  0.9987
18979TIP3   OH278351   4.155   6.637   0.154 -0.1208  0.1581 -0.3731
18979TIP3    H178352   4.146   6.692   0.077 -0.1251  2.5353  1.2536
18979TIP3    H278353   4.065   6.624   0.185  0.1325  2.8833  1.6628
18980TIP3   OH278354   2.856   2.886   5.030 -0.1869 -0.2861 -0.6338
18980TIP3    H178355   2.785   2.934   5.071 -0.3032 -1.3938  0.4799
18980TIP3    H278356   2.839   2.794   5.051  0.3354 -0.7692 -2.2615
18981TIP3   OH278357   5.086   6.293  17.064 -0.3771 -0.5108  0.5250
18981TIP3    H178358   5.139   6.373  17.066  1.1963 -1.4776 -1.4945
18981TIP3    H278359   5.000   6.322  17.036 -0.4227  0.7970  1.9674
18982TIP3   OH278360   6.760   0.326  14.219  0.2070 -0.3391 -0.4690
18982TIP3    H178361   6.790   0.297  14.305  0.2050  0.7189 -0.1064
18982TIP3    H278362   6.836   0.315  14.162 -0.4166 -3.1798 -0.8732
18983TIP3   OH278363   6.095   2.192   3.394 -0.0469 -0.1922  0.6875
18983TIP3    H178364   6.011   2.146   3.398  0.9325 -2.4213 -2.1933
18983TIP3    H278365   6.148   2.151   3.463 -0.4885 -0.5323  0.8280
18984TIP3   OH278366   2.924   5.920   1.083 -0.6802 -0.2789 -0.2246
18984TIP3    H178367   2.943   5.852   1.018 -0.3965  1.8491 -2.4553
18984TIP3    H278368   3.005   5.927   1.134 -0.0307 -0.3081 -1.2295
18985TIP3   OH278369   3.566   5.207   6.000 -0.2650  1.0111 -0.4428
18985TIP3    H178370   3.640   5.146   6.000 -0.2408  1.0398 -0.6827
18985TIP3    H278371   3.529   5.199   6.088  1.0025  2.2015  0.2033
18986TIP3   OH278372   3.009   5.440  11.924 -0.5726  0.1873 -0.4892
18986TIP3    H178373   3.028   5.401  12.010 -1.7038 -3.1706 -1.6693
18986TIP3    H278374   3.095   5.461  11.888  0.1351 -1.6750  0.0520
18987TIP3   OH278375   0.553   4.110  10.776  0.5539 -0.1647  0.4414
18987TIP3    H178376   0.503   4.190  10.761 -1.0438 -1.0640  0.8883
18987TIP3    H278377   0.590   4.087  10.691 -2.0152 -0.9638 -0.4866
18988TIP3   OH278378   0.411   2.610  16.476  0.2541  0.0983 -0.3366
18988TIP3    H178379   0.461   2.566  16.407  0.2844 -0.5100  0.0725
18988TIP3    H278380   0.467   2.608  16.553 -0.3116 -0.3988  0.0665
18989TIP3   OH278381   3.994   5.369   0.909 -0.0023 -0.2839 -0.0282
18989TIP3    H178382   4.082   5.361   0.874  0.0431 -0.6436  0.1696
18989TIP3    H278383   4.007   5.386   1.002 -0.1525 -0.9698  0.1186
18990TIP3   OH278384   4.161   2.490   3.045  0.7577 -0.1764  0.1622
18990TIP3    H178385   4.170   2.584   3.054  2.5611 -0.3299  0.2241
18990TIP3    H278386   4.188   2.471   2.955 -0.8745 -0.4961 -0.2752
18991TIP3   OH278387   5.311   1.057  11.142 -0.0593  0.0841 -0.0374
18991TIP3    H178388   5.226   1.040  11.182 -0.4264 -2.5189 -1.8483
18991TIP3    H278389   5.374   1.017  11.203 -0.3511 -0.6065 -0.1840
18992TIP3   OH278390   5.047   6.716   3.743 -0.7356  0.7779 -0.5065
18992TIP3    H178391   5.023   6.695   3.834  0.8746 -1.9092 -0.6515
18992TIP3    H278392   4.967   6.697   3.693 -0.8234 -0.2960  0.0207
18993TIP3   OH278393   1.934   3.765   2.831  0.5896 -0.3551  0.1250
18993TIP3    H178394   1.912   3.853   2.801  2.6876 -0.1847 -0.9728
18993TIP3    H278395   1.852   3.731   2.868 -1.2716  0.6134 -2.9538
18994TIP3   OH278396   2.930   6.239   0.548 -0.3404  0.0740 -0.2878
18994TIP3    H178397   2.982   6.313   0.517 -0.9271  0.8699  0.6190
18994TIP3    H278398   2.944   6.237   0.643  0.7936 -1.8568 -0.4578
18995TIP3   OH278399   1.961   3.581   1.913 -0.5591  0.1748  0.1399
18995TIP3    H178400   2.052   3.602   1.933 -0.4083  0.1222 -0.4822
18995TIP3    H278401   1.915   3.664   1.926 -0.1631  0.5988 -1.0744
18996TIP3   OH278402   2.131   1.377   0.731  0.3334 -0.3979  0.4952
18996TIP3    H178403   2.055   1.431   0.754  1.3792  0.9364  0.9537
18996TIP3    H278404   2.106   1.288   0.753 -1.0954  0.0345  0.6349
18997TIP3   OH278405   0.385   1.064   6.168  0.2759  0.8659  0.2295
18997TIP3    H178406   0.373   1.157   6.189 -0.0101  1.1942 -1.3597
18997TIP3    H278407   0.478   1.056   6.147  0.7144  0.3956  2.2521
18998TIP3   OH278408   3.654   5.536   0.590  0.3598 -0.2667  0.9045
18998TIP3    H178409   3.707   5.458   0.601 -0.4202 -1.0129 -0.4499
18998TIP3    H278410   3.691   5.580   0.513 -0.2463 -0.1943  0.6475
18999TIP3   OH278411   0.978   0.661   4.315  0.2545  0.2207 -0.6193
18999TIP3    H178412   0.903   0.671   4.257 -0.5439  1.0758  0.5415
18999TIP3    H278413   0.957   0.714   4.391  1.0510 -1.2741  0.6834
19000TIP3   OH278414   4.788   0.141   0.507 -0.0007  0.1135 -0.3201
19000TIP3    H178415   4.707   0.165   0.462 -0.7990  0.6755  1.3968
19000TIP3    H278416   4.855   0.145   0.438 -1.2095  0.8707 -1.4854
19001TIP3   OH278417   5.492   1.560  14.063 -0.2684  0.0651  0.9307
19001TIP3    H178418   5.438   1.604  13.998 -0.6560 -0.8769  0.6045
19001TIP3    H278419   5.582   1.586  14.042 -0.5045  0.7876  0.8144
19002TIP3   OH278420   0.866   3.957  16.108  0.3888 -0.5698  0.1382
19002TIP3    H178421   0.904   4.039  16.139 -2.2884  0.2943  1.2554
19002TIP3    H278422   0.847   3.907  16.188 -3.4681  0.2664 -0.1469
19003TIP3   OH278423   6.265   6.372   1.798 -0.0879  0.0757  0.4345
19003TIP3    H178424   6.339   6.409   1.751 -1.1964  0.8957 -0.7149
19003TIP3    H278425   6.298   6.354   1.886  1.4659  0.3928 -0.0686
19004TIP3   OH278426   2.346   4.932   6.127  0.4866 -0.2282 -0.2210
19004TIP3    H178427   2.401   4.893   6.195 -0.4955 -0.7083  0.2908
19004TIP3    H278428   2.258   4.898   6.144  0.1412  0.0623 -1.4111
19005TIP3   OH278429   3.673   4.603   4.259  0.1397 -0.0197  0.5395
19005TIP3    H178430   3.667   4.555   4.342  0.1113  0.9852  1.1196
19005TIP3    H278431   3.590   4.649   4.252  0.5483  0.7050  0.4430
19006TIP3   OH278432   0.976   2.823  12.901  0.0292 -0.4088 -0.0205
19006TIP3    H178433   1.033   2.746  12.898 -1.2798 -1.4198  0.4882
19006TIP3    H278434   0.898   2.793  12.947 -1.2680  0.7226 -1.4302
19007TIP3   OH278435   0.382   3.327  12.718 -0.4079 -0.2790 -0.1844
19007TIP3    H178436   0.349   3.377  12.793  0.7349  0.6623 -0.2774
19007TIP3    H278437   0.380   3.390  12.646  0.3853 -0.5730 -0.4658
19008TIP3   OH278438   6.675   5.575  16.013  0.6664 -0.0613  0.1282
19008TIP3    H178439   6.632   5.524  15.944 -0.0314  1.3344 -0.5076
19008TIP3    H278440   6.602   5.609  16.065  1.0676  1.0031  0.0044
19009TIP3   OH278441   4.516   1.990   2.285  0.1762  0.1610 -0.0713
19009TIP3    H178442   4.444   2.049   2.305  0.8160  0.5592  1.0798
19009TIP3    H278443   4.516   1.927   2.358  0.3137 -0.4913 -0.6259
19010TIP3   OH278444   2.263   5.943   0.356  0.4237  0.2539  0.3641
19010TIP3    H178445   2.209   5.937   0.434  0.0011 -0.3788  0.0255
19010TIP3    H278446   2.223   5.883   0.294  1.0123  0.4242 -0.1914
19011TIP3   OH278447   6.624   4.266   2.854 -0.3831  0.3436  0.9823
19011TIP3    H178448   6.672   4.301   2.780 -0.5580 -1.8338 -0.1874
19011TIP3    H278449   6.542   4.316   2.856  0.3110  1.5045  0.7261
19012TIP3   OH278450   0.774   1.589   5.008 -0.0328  0.0017  0.0381
19012TIP3    H178451   0.853   1.547   5.042 -0.6470 -0.8587  0.4220
19012TIP3    H278452   0.709   1.519   5.007 -0.1403  0.0801 -2.5330
19013TIP3   OH278453   2.223   4.414   5.796  0.0302 -0.1312 -0.3095
19013TIP3    H178454   2.135   4.377   5.790  0.0843 -0.3460  0.1628
19013TIP3    H278455   2.265   4.365   5.867  1.1270 -1.2573 -1.6926
19014TIP3   OH278456   2.967   6.029  16.219 -0.0002  0.3153 -0.3784
19014TIP3    H178457   2.956   5.970  16.143  0.5679 -0.4763  0.1453
19014TIP3    H278458   2.933   5.979  16.293  0.7483  0.5371  0.1177
19015TIP3   OH278459   3.113   1.984  14.390  0.1531  0.1730  0.2643
19015TIP3    H178460   3.059   2.050  14.346  1.5941  1.2605  0.0751
19015TIP3    H278461   3.136   2.025  14.474  0.9287 -0.1603  0.2186
19016TIP3   OH278462   3.836   4.963  16.082 -0.2405  0.4362 -0.1904
19016TIP3    H178463   3.841   5.055  16.057 -1.8553  0.5126 -0.2980
19016TIP3    H278464   3.794   4.964  16.168  0.6586 -0.1391  0.2617
19017TIP3   OH278465   0.898   5.044   4.720  0.6626  0.0975  0.2459
19017TIP3    H178466   0.821   5.047   4.663  0.3203  2.0003  0.7858
19017TIP3    H278467   0.866   5.074   4.805  1.6130 -0.8028  0.9332
19018TIP3   OH278468   0.895   6.279   4.371  0.4343  0.0009 -0.3589
19018TIP3    H178469   0.952   6.237   4.436  0.1777  0.1468 -0.0348
19018TIP3    H278470   0.882   6.368   4.405 -0.2234 -0.1232 -0.2778
19019TIP3   OH278471   4.764   3.652   1.492 -0.3921 -0.4574 -0.1764
19019TIP3    H178472   4.724   3.738   1.502  0.1934 -0.1742 -0.2578
19019TIP3    H278473   4.855   3.670   1.469 -0.4443 -1.0913 -0.9240
19020TIP3   OH278474   4.026   5.013   0.956  0.4600  0.3561  0.1659
19020TIP3    H178475   3.934   5.005   0.933  0.0020  1.3004  1.5847
19020TIP3    H278476   4.028   5.082   1.022  2.1404  0.0845  0.4230
19021TIP3   OH278477   5.545   1.666   0.318 -0.6426 -0.2921 -0.5211
19021TIP3    H178478   5.516   1.585   0.275 -2.0745  0.3356 -0.7614
19021TIP3    H278479   5.520   1.655   0.410  0.1283 -0.5539 -0.3314
19022TIP3   OH278480   5.972   0.938   0.489 -0.5610  0.0857 -0.3870
19022TIP3    H178481   6.060   0.975   0.480 -0.9428  1.3796  1.0309
19022TIP3    H278482   5.931   0.954   0.405 -0.0414  1.1058 -0.4517
19023TIP3   OH278483   5.303   1.672   5.320  0.1957 -0.2845  0.5974
19023TIP3    H178484   5.336   1.584   5.303  0.3880 -0.1978  0.5148
19023TIP3    H278485   5.378   1.729   5.303  0.4470 -0.2087  1.9102
19024TIP3   OH278486   0.189   5.927  15.635 -0.4780 -0.2143  0.0928
19024TIP3    H178487   0.176   5.914  15.729 -0.3561  1.3524  0.3413
19024TIP3    H278488   0.105   5.901  15.596 -0.5660 -0.7687  0.6451
19025TIP3   OH278489   6.691   6.513  17.015 -0.2199  0.2623 -0.4665
19025TIP3    H178490   6.705   6.553  16.929  1.0152  0.3054 -0.2433
19025TIP3    H278491   6.631   6.440  16.997 -1.3094  1.2877 -1.0958
19026TIP3   OH278492   4.114   4.020  13.165 -0.1091  0.9788  0.0011
19026TIP3    H178493   4.035   4.072  13.147 -0.7440 -0.7288 -2.3724
19026TIP3    H278494   4.129   3.970  13.085  1.6186 -1.0330  1.5108
19027TIP3   OH278495   6.694   4.042   1.375 -0.5487  0.0022  0.2571
19027TIP3    H178496   6.674   3.949   1.367 -2.3848  0.2033  2.0743
19027TIP3    H278497   6.626   4.086   1.324 -0.1126  0.3887 -0.0009
19028TIP3   OH278498   2.796   5.299   1.372 -0.0477 -1.0007  0.2035
19028TIP3    H178499   2.865   5.321   1.435  0.8010 -2.6391 -0.1307
19028TIP3    H278500   2.839   5.242   1.308 -1.7568 -2.1666  0.0669
19029TIP3   OH278501   2.320   5.268   2.064 -0.3865 -0.8242 -0.3197
19029TIP3    H178502   2.318   5.338   1.999  0.4425 -0.8663 -0.3956
19029TIP3    H278503   2.249   5.289   2.125  0.1572  0.3439 -0.0748
19030TIP3   OH278504   6.608   2.217  13.148  0.3763  0.7703 -0.5468
19030TIP3    H178505   6.539   2.166  13.104  0.4664  1.1933 -1.1825
19030TIP3    H278506   6.668   2.242  13.078  0.0227  2.2548 -0.3403
19031TIP3   OH278507   4.361   5.668   0.615 -0.3553  0.6251  0.1061
19031TIP3    H178508   4.388   5.734   0.551  0.8408  0.3887  0.3566
19031TIP3    H278509   4.341   5.590   0.562 -1.9110  1.2168 -0.2023
19032TIP3   OH278510   0.822   1.931  10.776 -0.2549 -0.2382 -0.1760
19032TIP3    H178511   0.903   1.926  10.726 -1.2074 -1.2608 -1.6286
19032TIP3    H278512   0.788   2.019  10.759  0.3421  0.0561  0.1360
19033TIP3   OH278513   0.519   5.550   0.346 -0.6036  0.2764 -0.2465
19033TIP3    H178514   0.534   5.611   0.417  0.2804 -0.8374  0.5506
19033TIP3    H278515   0.516   5.464   0.388 -1.7161 -0.2454 -1.3491
19034TIP3   OH278516   2.901   1.715  10.595  0.6870 -0.2703 -0.6325
19034TIP3    H178517   2.836   1.722  10.665 -0.8624  0.0545 -2.0793
19034TIP3    H278518   2.953   1.795  10.602  0.6298 -0.3034  0.2110
19035TIP3   OH278519   6.359   5.369  11.758 -0.4843 -0.2320 -0.1583
19035TIP3    H178520   6.442   5.416  11.758  0.1711 -1.3034 -2.5278
19035TIP3    H278521   6.303   5.418  11.699 -2.0579  1.2786  2.5104
19036TIP3   OH278522   1.743   2.835   5.653  0.0733 -0.2896  0.2365
19036TIP3    H178523   1.779   2.749   5.628 -0.2933 -0.8582  1.5925
19036TIP3    H278524   1.820   2.893   5.654  0.5674 -0.9378  0.7205
19037TIP3   OH278525   3.783   3.539  14.904  0.5123 -0.1542  0.1186
19037TIP3    H178526   3.813   3.570  14.989 -3.5660  0.9116  1.2742
19037TIP3    H278527   3.739   3.456  14.923  0.8209 -0.6290 -1.1884
19038TIP3   OH278528   1.988   6.566  12.418  0.4599 -0.0334  0.0744
19038TIP3    H178529   1.918   6.625  12.443  1.1536  1.0517 -0.4751
19038TIP3    H278530   2.020   6.529  12.500 -1.3799 -1.2827  0.2451
19039TIP3   OH278531   3.493   0.953  11.980 -0.7551  0.6548  0.0633
19039TIP3    H178532   3.442   1.020  11.935 -0.3034  1.0520  0.1473
19039TIP3    H278533   3.497   0.881  11.917  0.8835  1.6628 -1.0176
19040TIP3   OH278534   0.618   5.829  17.160 -0.3527  0.0967 -0.1824
19040TIP3    H178535   0.702   5.787  17.141 -0.0489  0.4822  0.2937
19040TIP3    H278536   0.634   5.922  17.145 -1.3435 -0.0518 -2.3955
19041TIP3   OH278537   2.743   2.078  15.795 -0.0467  0.3036 -0.2876
19041TIP3    H178538   2.785   1.993  15.785  2.0403  1.2447  0.2037
19041TIP3    H278539   2.679   2.082  15.724 -0.3342 -1.7513 -0.1715
19042TIP3   OH278540   1.774   6.587  16.026 -0.1386 -0.3739  0.2179
19042TIP3    H178541   1.748   6.668  16.070 -0.5977 -0.4474  0.0928
19042TIP3    H278542   1.809   6.531  16.096  2.7323  0.9494 -0.1189
19043TIP3   OH278543   0.693   0.983  12.336 -0.4917 -0.1586  0.7026
19043TIP3    H178544   0.621   1.047  12.334  0.9819  1.5243  0.9073
19043TIP3    H278545   0.768   1.031  12.370  1.2488 -1.3944 -1.2521
19044TIP3   OH278546   5.837   4.296   0.066 -0.0494 -0.0369 -0.4922
19044TIP3    H178547   5.768   4.241   0.028  1.3453 -0.9028 -1.8122
19044TIP3    H278548   5.834   4.376   0.014  0.5798 -0.4582 -1.1811
19045TIP3   OH278549   5.469   6.741  10.501  0.4293  0.2469 -0.0614
19045TIP3    H178550   5.400   6.677  10.519  1.3205 -0.7193  0.0199
19045TIP3    H278551   5.486   6.732  10.407 -0.3639  1.3271 -0.3187
19046TIP3   OH278552   4.277   1.464  11.343 -0.1140 -1.2105 -0.0710
19046TIP3    H178553   4.278   1.400  11.415 -0.3742 -0.4795  0.5947
19046TIP3    H278554   4.350   1.439  11.287  0.4184 -1.4765  0.7375
19047TIP3   OH278555   1.177   3.354  16.926  0.0593  0.7637  0.3584
19047TIP3    H178556   1.240   3.410  16.881  1.6880  0.5615  2.3265
19047TIP3    H278557   1.115   3.415  16.967  1.1105  1.1192  1.4584
19048TIP3   OH278558   1.645   6.419   4.012  0.1845  0.0411  0.0483
19048TIP3    H178559   1.669   6.441   3.922 -0.7417  0.1878 -0.1659
19048TIP3    H278560   1.613   6.329   4.007 -0.6309  0.3258  0.0906
19049TIP3   OH278561   4.346   6.059  14.735  0.0048  0.1739 -0.1787
19049TIP3    H178562   4.381   6.134  14.785  0.5697 -0.3740  0.2621
19049TIP3    H278563   4.407   6.049  14.662 -0.8821  1.0415 -1.0465
19050TIP3   OH278564   5.852   3.828  11.198 -0.0482 -0.1318  0.3514
19050TIP3    H178565   5.915   3.761  11.173 -0.2760 -0.8052  1.5642
19050TIP3    H278566   5.770   3.801  11.157  0.0640 -0.1101  0.1088
19051TIP3   OH278567   2.854   3.955   4.107 -0.2618 -0.4060 -0.5103
19051TIP3    H178568   2.861   3.940   4.201 -1.0391 -1.4121 -0.6042
19051TIP3    H278569   2.918   4.024   4.089 -0.2774 -0.0321  0.7901
19052TIP3   OH278570   1.813   5.337   2.767  0.3270 -0.0229  0.5051
19052TIP3    H178571   1.904   5.314   2.746 -0.4460 -0.8863 -2.1137
19052TIP3    H278572   1.806   5.430   2.743 -0.3701 -0.8353 -2.6501
19053TIP3   OH278573   3.229   4.690   4.397 -0.0428 -0.2229 -0.0620
19053TIP3    H178574   3.156   4.735   4.354  0.7027  2.7592  1.6693
19053TIP3    H278575   3.307   4.727   4.356  0.5853 -0.1183  1.2232
19054TIP3   OH278576   1.433   3.269   5.084  0.4629 -0.3299 -0.1228
19054TIP3    H178577   1.462   3.215   5.009  0.5882 -1.3312  0.6307
19054TIP3    H278578   1.369   3.214   5.129 -0.0831  0.5286  0.1506
19055TIP3   OH278579   1.700   5.461   5.607 -0.6911 -0.1889  0.3364
19055TIP3    H178580   1.678   5.483   5.517 -0.1096  1.7028  0.6176
19055TIP3    H278581   1.686   5.367   5.614 -2.2916 -0.0830 -1.2785
19056TIP3   OH278582   2.580   0.121   2.294 -0.5643  0.1776 -0.2617
19056TIP3    H178583   2.643   0.123   2.222  1.8738 -1.2721  1.7323
19056TIP3    H278584   2.564   0.213   2.314  0.5207  0.5750 -1.1609
19057TIP3   OH278585   6.687   4.635  16.016 -0.5598 -0.3180 -0.2453
19057TIP3    H178586   6.701   4.544  16.042  0.7469 -0.3881 -1.1218
19057TIP3    H278587   6.759   4.683  16.058 -0.5730  0.1195 -0.7162
19058TIP3   OH278588   3.987   2.066  16.100  0.4449 -1.0710  0.1741
19058TIP3    H178589   3.998   2.032  16.189  0.1142  0.6268  0.8954
19058TIP3    H278590   3.982   2.161  16.112  1.3302 -0.7611 -1.7502
19059TIP3   OH278591   1.144   4.435  11.429 -0.2865 -0.0288  0.1846
19059TIP3    H178592   1.081   4.499  11.396  0.6957  1.2166  0.6885
19059TIP3    H278593   1.229   4.480  11.424  0.5796 -1.7224 -0.6023
19060TIP3   OH278594   6.440   2.168   3.778 -0.0624 -0.0800 -0.0965
19060TIP3    H178595   6.377   2.169   3.850 -0.6168  2.0965 -0.5804
19060TIP3    H278596   6.510   2.226   3.806  1.4310 -1.9360  0.1340
19061TIP3   OH278597   4.539   5.323   1.657 -0.0915  0.1716 -0.2209
19061TIP3    H178598   4.581   5.404   1.627 -0.6583  0.4654 -0.2467
19061TIP3    H278599   4.450   5.350   1.679 -0.1019 -0.3276  0.3645
19062TIP3   OH278600   0.115   0.586  15.545 -0.1785 -0.4610  0.0742
19062TIP3    H178601   0.184   0.534  15.504  0.0215  0.0701 -0.2610
19062TIP3    H278602   0.036   0.562  15.497 -0.4136 -1.8028  1.0949
19063TIP3   OH278603   2.805   4.088   3.439 -0.2172  0.4770  0.2903
19063TIP3    H178604   2.831   4.096   3.347 -2.1591  1.1392 -0.2188
19063TIP3    H278605   2.802   4.179   3.471 -0.5023  0.3166  0.7326
19064TIP3   OH278606   0.284   1.885   1.191  0.5954  0.4262  0.4073
19064TIP3    H178607   0.362   1.895   1.136  0.1277  2.4052  0.0572
19064TIP3    H278608   0.295   1.951   1.259 -0.2735 -0.0183  0.9806
19065TIP3   OH278609   3.333   4.056  12.163 -0.2811  0.3215  0.4857
19065TIP3    H178610   3.358   3.976  12.208 -1.1129 -1.1177 -1.5201
19065TIP3    H278611   3.247   4.036  12.126 -0.3929  2.0670 -0.2345
19066TIP3   OH278612   6.723   4.131  13.845  0.4516  0.0669 -0.6927
19066TIP3    H178613   6.690   4.050  13.806  1.4988 -0.1793 -1.0818
19066TIP3    H278614   6.733   4.111  13.938  1.6149 -0.5519 -0.9466
19067TIP3   OH278615   1.736   1.193   5.534 -0.5829  0.1108 -0.5393
19067TIP3    H178616   1.694   1.251   5.597 -2.2427  0.1830 -1.6899
19067TIP3    H278617   1.776   1.252   5.470 -0.6145  0.0102 -0.6515
19068TIP3   OH278618   2.379   6.223   5.271  0.5445 -0.5926  0.1295
19068TIP3    H178619   2.395   6.129   5.268 -2.9239 -1.2192 -0.9711
19068TIP3    H278620   2.343   6.240   5.358  1.4138 -0.2200  0.4234
19069TIP3   OH278621   5.923   6.637  13.611  0.5642 -0.1970  0.3644
19069TIP3    H178622   5.869   6.560  13.591  0.5967  0.2765 -1.6883
19069TIP3    H278623   5.927   6.685  13.528  3.9923 -0.1418  0.4859
19070TIP3   OH278624   6.352   3.009   3.962  0.2184 -0.3206 -0.1635
19070TIP3    H178625   6.288   3.080   3.966 -1.1511 -1.5496  0.5896
19070TIP3    H278626   6.421   3.035   4.022 -0.8572 -0.1583  1.0296
19071TIP3   OH278627   1.683   6.002   3.038  0.2696 -0.1466 -0.5652
19071TIP3    H178628   1.753   6.021   3.100  1.0378  0.6753 -1.6737
19071TIP3    H278629   1.664   5.909   3.052  0.9955 -0.1759  0.3171
19072TIP3   OH278630   5.446   1.497   2.353  0.0261 -0.4128 -0.0916
19072TIP3    H178631   5.407   1.555   2.418  0.7891  0.0390 -0.0281
19072TIP3    H278632   5.500   1.555   2.299  0.3595 -0.9783 -0.3640
19073TIP3   OH278633   2.531   0.564  11.304 -0.5424 -0.0193  0.1170
19073TIP3    H178634   2.487   0.621  11.367 -1.6036 -2.4176  1.6379
19073TIP3    H278635   2.621   0.557  11.336 -1.0639 -1.1913  1.3936
19074TIP3   OH278636   6.339   0.266  10.737 -0.2393  0.4328  0.1856
19074TIP3    H178637   6.432   0.245  10.732 -0.4073 -0.8714  1.9662
19074TIP3    H278638   6.294   0.186  10.713 -0.9462  1.4420 -2.0051
19075TIP3   OH278639   1.033   2.071   2.927 -0.4494 -0.1548  0.9264
19075TIP3    H178640   1.048   2.166   2.932  0.9930 -0.3218  0.0038
19075TIP3    H278641   0.939   2.064   2.907 -0.1440  1.1776 -1.2609
19076TIP3   OH278642   6.678   3.220  15.454  0.0705  0.0203 -0.0231
19076TIP3    H178643   6.731   3.141  15.468 -1.1103 -0.7624  0.1237
19076TIP3    H278644   6.650   3.245  15.542 -0.9120 -0.3620 -0.2206
19077TIP3   OH278645   1.408   1.456   3.741 -0.4756  0.0135 -0.0135
19077TIP3    H178646   1.381   1.466   3.650 -0.9963 -0.1263  0.1210
19077TIP3    H278647   1.360   1.379   3.772 -1.5526  0.9973  0.8292
19078TIP3   OH278648   5.966   6.676   5.898 -0.2710 -0.1362  0.0586
19078TIP3    H178649   6.016   6.748   5.860 -0.1509  0.0581  0.5867
19078TIP3    H278650   5.907   6.717   5.961  0.6163 -0.6088  1.2182
19079TIP3   OH278651   1.114   6.032   2.767 -0.1700 -0.0073  0.2558
19079TIP3    H178652   1.119   6.020   2.672  1.7625 -0.3025  0.3718
19079TIP3    H278653   1.200   6.066   2.791 -0.8586  0.6389  1.8262
19080TIP3   OH278654   1.782   2.608   3.766  0.0679  0.1126  0.4493
19080TIP3    H178655   1.725   2.599   3.842 -0.4621 -1.6837 -0.1210
19080TIP3    H278656   1.811   2.699   3.767 -1.6456  0.6564  1.5783
19081TIP3   OH278657   0.810   4.361   4.003 -0.0433  0.7290 -0.5261
19081TIP3    H178658   0.746   4.427   4.027 -0.9321 -0.7276  1.2194
19081TIP3    H278659   0.894   4.407   4.007 -0.4935  1.4332  2.1061
19082TIP3   OH278660   5.442   3.161  15.149  0.4649 -0.4590  0.5605
19082TIP3    H178661   5.352   3.177  15.124  0.4830 -0.5974  0.4100
19082TIP3    H278662   5.477   3.247  15.171  0.5966 -0.2731 -0.3563
19083TIP3   OH278663   6.762   0.208  16.298 -0.1769 -0.4995  0.2080
19083TIP3    H178664   6.799   0.285  16.256 -1.8234 -0.3937 -1.1091
19083TIP3    H278665   6.773   0.224  16.392  0.2710  0.9234 -0.0696
19084TIP3   OH278666   0.128   4.544  15.854  0.2609  0.3857 -0.2447
19084TIP3    H178667   0.040   4.512  15.834  1.2268 -1.2006 -2.2668
19084TIP3    H278668   0.184   4.466  15.847  1.9280  1.5003  0.2291
19085TIP3   OH278669   3.762   1.810  17.180 -0.0861  0.4479 -0.4160
19085TIP3    H178670   3.724   1.723  17.172  1.8852 -0.5594  0.7372
19085TIP3    H278671   3.843   1.797  17.230  0.8081  2.7686 -1.1579
19086TIP3   OH278672   1.294   1.786  15.503 -0.4408 -0.2394 -0.4299
19086TIP3    H178673   1.320   1.842  15.576  1.7496 -0.2072 -1.2130
19086TIP3    H278674   1.375   1.746  15.473 -1.6579 -2.0794 -1.3552
19087TIP3   OH278675   1.554   1.106  14.873  0.1711 -0.2656 -0.2464
19087TIP3    H178676   1.606   1.027  14.862  1.2742  0.1858  1.6029
19087TIP3    H278677   1.463   1.074  14.876  0.5079 -1.3124 -0.7655
19088TIP3   OH278678   0.747   0.145   3.463  0.3541  0.1011  0.2507
19088TIP3    H178679   0.803   0.073   3.435 -0.7710 -0.3875 -0.7999
19088TIP3    H278680   0.732   0.130   3.556  1.1022 -0.3533  0.2956
19089TIP3   OH278681   5.078   4.159  12.343 -0.2096  0.1347 -0.1164
19089TIP3    H178682   5.083   4.073  12.303 -1.5252  0.1210 -0.2753
19089TIP3    H278683   5.008   4.204  12.295 -1.3385  0.3652  1.6747
19090TIP3   OH278684   3.688   3.396  12.638 -0.8514  0.3809 -0.0308
19090TIP3    H178685   3.709   3.392  12.731 -1.1688  1.3539  0.0854
19090TIP3    H278686   3.750   3.336  12.597 -1.5592 -1.0409  0.9448
19091TIP3   OH278687   3.260   0.826  11.447  0.7605  0.0859 -0.1044
19091TIP3    H178688   3.326   0.761  11.473  2.0390  1.2681 -0.3677
19091TIP3    H278689   3.309   0.906  11.433 -0.5862  0.7003 -1.4423
19092TIP3   OH278690   5.607   1.026   4.816  0.1622  0.2302  0.4218
19092TIP3    H178691   5.644   0.948   4.858  1.4257  0.6801  0.1611
19092TIP3    H278692   5.569   1.076   4.888  0.2113 -0.1550  0.7184
19093TIP3   OH278693   0.209   6.085  13.722  0.2770 -0.0987  0.0954
19093TIP3    H178694   0.151   6.055  13.652  0.7639  0.1107 -0.4027
19093TIP3    H278695   0.294   6.046  13.702  0.6428  0.7041  0.0506
19094TIP3   OH278696   5.749   0.986   0.678  0.2308 -0.5623  0.0127
19094TIP3    H178697   5.824   0.965   0.622  1.3337  1.4463  0.6840
19094TIP3    H278698   5.781   0.972   0.767 -0.4986 -0.6415  0.2654
19095TIP3   OH278699   3.069   0.124  12.303  0.0293  0.2794 -0.2481
19095TIP3    H178700   3.007   0.148  12.234 -0.9309  0.0298  0.5381
19095TIP3    H278701   3.017   0.120  12.383  1.2235  1.0175  0.5887
19096TIP3   OH278702   0.411   2.759  14.915 -0.4330 -0.1650  1.0033
19096TIP3    H178703   0.353   2.773  14.839  1.1123  0.1482 -0.1381
19096TIP3    H278704   0.412   2.843  14.960 -2.1416 -0.6329  1.9425
19097TIP3   OH278705   2.670   4.738   2.253  0.2348  0.5444  0.4085
19097TIP3    H178706   2.700   4.829   2.264  1.3385  0.1529  0.6438
19097TIP3    H278707   2.581   4.747   2.218  0.3200  1.7196  0.4615
19098TIP3   OH278708   4.274   2.899   2.032 -0.0583 -0.1762  0.0756
19098TIP3    H178709   4.237   2.817   2.066  0.6254  0.4554  2.4161
19098TIP3    H278710   4.240   2.905   1.943 -1.1298 -2.3845  0.2997
19099TIP3   OH278711   6.656   5.330   5.045 -0.3000 -0.1354  1.0156
19099TIP3    H178712   6.701   5.343   5.129 -0.2438 -0.0376  0.9709
19099TIP3    H278713   6.582   5.273   5.065 -1.3975  1.4182  1.4912
19100TIP3   OH278714   4.253   5.325   3.331  0.1631  0.4094  0.2484
19100TIP3    H178715   4.312   5.314   3.257  1.5963 -0.5175  1.4844
19100TIP3    H278716   4.219   5.237   3.348 -1.1696  0.8457 -0.1182
19101TIP3   OH278717   5.143   6.168  12.899 -0.4215  0.1340  0.2415
19101TIP3    H178718   5.193   6.089  12.918 -1.2325 -0.5773 -0.5247
19101TIP3    H278719   5.203   6.222  12.846 -0.7589 -1.1201 -1.4805
19102TIP3   OH278720   0.372   5.265  11.934 -0.4174 -0.4970 -0.1809
19102TIP3    H178721   0.433   5.332  11.903  0.7426 -0.7389  1.4810
19102TIP3    H278722   0.324   5.308  12.005  0.5581 -1.4801  1.1121
19103TIP3   OH278723   1.115   3.941  11.172 -0.2555 -0.0398 -0.0062
19103TIP3    H178724   1.071   4.026  11.174 -0.8940 -0.3801  0.8710
19103TIP3    H278725   1.155   3.933  11.259 -1.4995 -1.2917  0.4735
19104TIP3   OH278726   2.336   4.698  13.355  0.0020 -0.4966 -0.0868
19104TIP3    H178727   2.259   4.647  13.383  1.9291 -2.1642  2.3768
19104TIP3    H278728   2.382   4.640  13.295  1.1901 -0.9137  1.2177
19105TIP3   OH278729   3.493   3.127  11.001  0.5248  0.2979  0.5875
19105TIP3    H178730   3.432   3.189  10.961  2.3053 -0.0882 -2.9541
19105TIP3    H278731   3.563   3.181  11.036  0.4071  0.5033  0.5036
19106TIP3   OH278732   1.318   0.216  17.006 -0.1334 -0.0357  0.2602
19106TIP3    H178733   1.226   0.189  17.005 -0.4990  1.1860 -0.0844
19106TIP3    H278734   1.338   0.239  16.915 -0.0644  1.5811  0.6672
19107TIP3   OH278735   4.112   6.157  13.159  0.4469 -0.4110 -0.6300
19107TIP3    H178736   4.141   6.234  13.208 -1.5455 -1.9212  3.1319
19107TIP3    H278737   4.175   6.089  13.183 -1.8216 -1.7623  1.8316
19108TIP3   OH278738   5.745   2.695   4.689  0.2666  0.5814 -0.0807
19108TIP3    H178739   5.700   2.625   4.642  0.7776 -1.3960  2.2747
19108TIP3    H278740   5.686   2.719   4.761  0.7767  1.4988  0.0476
19109TIP3   OH278741   4.347   0.796  16.929  0.4770  0.0518 -0.0447
19109TIP3    H178742   4.305   0.780  16.845  0.6502 -0.1259 -0.0949
19109TIP3    H278743   4.401   0.874  16.915  0.9584 -0.3224 -0.2493
19110TIP3   OH278744   3.360   4.301   2.111  0.6739  0.3675  0.1362
19110TIP3    H178745   3.308   4.251   2.174  1.4493 -0.7841 -0.1227
19110TIP3    H278746   3.297   4.329   2.045  0.5971 -2.3240 -0.9955
19111TIP3   OH278747   5.125   6.343   2.759  0.0738 -0.3088  0.1916
19111TIP3    H178748   5.041   6.358   2.803 -0.7540  2.4299 -2.1365
19111TIP3    H278749   5.186   6.404   2.800 -0.2653  0.9981 -1.1919
19112TIP3   OH278750   3.115   4.133  16.900 -0.1472 -0.2980 -0.7611
19112TIP3    H178751   3.084   4.210  16.852  0.1963  0.1834 -0.2089
19112TIP3    H278752   3.078   4.059  16.851 -1.5438  0.2450 -0.5685
19113TIP3   OH278753   2.034   3.866  13.602 -0.2225 -1.0353 -0.5301
19113TIP3    H178754   2.054   3.833  13.689 -0.3138 -0.5809 -0.3343
19113TIP3    H278755   2.085   3.947  13.595 -1.4443 -0.2380 -0.2915
19114TIP3   OH278756   6.535   6.108   2.228  0.1918 -0.6602 -0.3438
19114TIP3    H178757   6.602   6.039   2.226  0.3895 -0.4855  0.0727
19114TIP3    H278758   6.453   6.061   2.241  0.0713 -0.9762 -2.1889
19115TIP3   OH278759   4.622   0.333  10.709 -0.3188 -0.5617 -0.2850
19115TIP3    H178760   4.611   0.422  10.675  3.3790 -0.5030 -1.6072
19115TIP3    H278761   4.687   0.343  10.779 -0.1548 -2.1553 -0.1917
19116TIP3   OH278762   1.383   2.958  12.239 -0.7047  0.3532  0.4843
19116TIP3    H178763   1.458   3.017  12.234 -0.3632  0.0277  1.5976
19116TIP3    H278764   1.387   2.907  12.158  1.3692 -0.9492  1.3746
19117TIP3   OH278765   6.463   3.400  16.556  0.1310  0.1862  0.1418
19117TIP3    H178766   6.462   3.494  16.573 -1.3373 -0.0017  1.1848
19117TIP3    H278767   6.435   3.391  16.465 -0.4961  0.7129  0.2799
19118TIP3   OH278768   5.618   2.021  17.127 -0.3539 -0.3143  0.2989
19118TIP3    H178769   5.585   2.086  17.189 -1.4175 -1.2026  0.6857
19118TIP3    H278770   5.590   1.937  17.163 -2.2415 -0.7702 -2.0657
19119TIP3   OH278771   3.884   2.432   3.465 -0.0064 -0.1285 -0.0918
19119TIP3    H178772   3.961   2.481   3.436  0.8850 -1.4832 -0.0515
19119TIP3    H278773   3.853   2.479   3.542  2.2122 -0.9468  1.3303
19120TIP3   OH278774   4.108   3.479   1.939  0.6575  0.1895 -0.0823
19120TIP3    H178775   4.199   3.460   1.918 -0.1886 -1.9884 -2.0395
19120TIP3    H278776   4.077   3.533   1.867 -0.1783 -0.9246 -0.5822
19121TIP3   OH278777   6.620   0.508  14.957  0.0906 -0.0243  0.5299
19121TIP3    H178778   6.547   0.466  15.002  0.0054 -1.1123 -0.6138
19121TIP3    H278779   6.698   0.463  14.989 -0.2068 -3.3647 -3.0844
19122TIP3   OH278780   6.213   6.260  12.786  0.0823 -0.1160 -0.0965
19122TIP3    H178781   6.306   6.285  12.793  0.3041 -1.0562  0.4292
19122TIP3    H278782   6.168   6.321  12.844  0.6216 -0.8733  1.1547
19123TIP3   OH278783   0.322   4.618   2.914  0.3139  0.3267 -0.7686
19123TIP3    H178784   0.294   4.527   2.907 -0.5696  0.5458 -0.2696
19123TIP3    H278785   0.375   4.634   2.836  0.9275 -0.7702 -0.5708
19124TIP3   OH278786   0.688   4.954   0.282  0.4223  0.5322 -0.5377
19124TIP3    H178787   0.715   5.000   0.202  0.9532  1.0807 -0.0363
19124TIP3    H278788   0.620   4.893   0.251 -0.4660  1.8239 -1.1609
19125TIP3   OH278789   2.988   0.685  12.269 -0.2195 -0.2767 -0.4761
19125TIP3    H178790   2.978   0.610  12.210  0.4534 -0.7910  0.0574
19125TIP3    H278791   3.003   0.646  12.355  0.1848  0.4706 -0.2001
19126TIP3   OH278792   4.955   5.520  15.381 -0.3363 -0.0556  0.0660
19126TIP3    H178793   4.946   5.441  15.329  0.9483 -0.2962  0.1979
19126TIP3    H278794   5.040   5.556  15.356  0.1146  0.0489  1.6901
19127TIP3   OH278795   5.009   4.068   3.269 -0.8087 -0.6672 -0.2521
19127TIP3    H178796   4.960   4.131   3.322 -0.1487 -0.2641 -0.1232
19127TIP3    H278797   4.993   4.095   3.179 -0.3978 -0.2166 -0.1929
19128TIP3   OH278798   1.603   0.506   1.299  0.3423  0.0496  0.2481
19128TIP3    H178799   1.583   0.520   1.207  2.1512 -1.2959 -0.3766
19128TIP3    H278800   1.639   0.417   1.303 -0.7618 -0.3428  2.4226
19129TIP3   OH278801   3.992   3.304  12.488 -0.1352  0.0772  0.3426
19129TIP3    H178802   3.951   3.326  12.404  2.1182  1.4358 -0.4512
19129TIP3    H278803   4.072   3.258  12.464  0.8251  0.9947  1.7315
19130TIP3   OH278804   0.028   1.912  11.073  0.4453 -0.0542 -1.2749
19130TIP3    H178805   0.029   2.000  11.035 -1.5104 -0.3443 -2.0811
19130TIP3    H278806   0.015   1.854  10.998 -1.1931 -0.8008 -0.4393
19131TIP3   OH278807   6.531   4.913  13.878 -0.0507 -0.0223  0.1923
19131TIP3    H178808   6.609   4.966  13.893 -0.5492  0.4903  1.0164
19131TIP3    H278809   6.489   4.953  13.801  1.5308 -1.5218 -1.4974
19132TIP3   OH278810   2.906   3.678  16.931  0.5483 -0.1466  0.4850
19132TIP3    H178811   2.826   3.650  16.885 -0.0533  0.4305  1.1787
19132TIP3    H278812   2.963   3.601  16.927 -0.0528 -0.5768  0.0164
19133TIP3   OH278813   6.474   2.323  11.479  0.7068 -0.5358 -0.7823
19133TIP3    H178814   6.512   2.236  11.474 -0.6654 -1.2125  0.2313
19133TIP3    H278815   6.440   2.329  11.568 -2.2296 -0.2407 -1.8901
19134TIP3   OH278816   5.137   0.227  14.432 -0.1166  0.1164 -0.1066
19134TIP3    H178817   5.065   0.210  14.371 -0.1889  0.4324 -0.1091
19134TIP3    H278818   5.111   0.306  14.479  0.1128  0.0872  0.0705
19135TIP3   OH278819   4.598   1.076  13.571  0.0644 -0.2914  0.0701
19135TIP3    H178820   4.586   1.020  13.494 -1.5394 -1.6328  1.2610
19135TIP3    H278821   4.584   1.164  13.538  2.7181 -0.5263 -1.8617
19136TIP3   OH278822   5.753   2.691   5.595  0.3683 -0.5194 -0.0309
19136TIP3    H178823   5.750   2.602   5.559  1.1018 -0.1986 -0.9025
19136TIP3    H278824   5.686   2.739   5.546  0.5101 -0.3902 -0.0964
19137TIP3   OH278825   4.894   2.827   5.128  0.1208 -0.0189  0.0206
19137TIP3    H178826   4.913   2.918   5.147  0.7707 -0.4950  1.7221
19137TIP3    H278827   4.862   2.791   5.211 -1.3797 -1.0059 -0.9718
19138TIP3   OH278828   5.589   1.221  13.156 -0.4693  0.1058 -0.1299
19138TIP3    H178829   5.511   1.231  13.209 -0.0522 -1.9127  0.9147
19138TIP3    H278830   5.558   1.227  13.066 -1.3787  2.2030  0.2934
19139TIP3   OH278831   1.201   5.481  11.270  0.2162  0.5444 -0.2697
19139TIP3    H178832   1.152   5.420  11.216  0.2217  0.0719  0.2523
19139TIP3    H278833   1.164   5.567  11.250  1.6696  0.6440 -2.6391
19140TIP3   OH278834   6.150   4.940   0.033  0.1685 -0.0782 -0.1555
19140TIP3    H178835   6.175   4.873   0.096 -1.2054 -0.1520  0.3247
19140TIP3    H278836   6.117   5.013   0.087  1.5140  0.9383 -0.6710
19141TIP3   OH278837   0.562   3.847   3.488  0.1164 -0.0551  0.0602
19141TIP3    H178838   0.503   3.874   3.559  0.0419  0.2572 -0.1196
19141TIP3    H278839   0.585   3.929   3.444  0.9724 -0.1309  0.3587
19142TIP3   OH278840   0.492   6.705  15.327 -0.4550  0.4266 -0.7250
19142TIP3    H178841   0.483   6.719  15.421 -1.4595  2.4019 -1.0842
19142TIP3    H278842   0.424   6.640  15.306 -1.2573  1.1391 -0.3409
19143TIP3   OH278843   2.404   5.942   5.269  0.2381 -0.8740 -0.1794
19143TIP3    H178844   2.313   5.927   5.296  0.0617  0.5173  0.0284
19143TIP3    H278845   2.406   5.913   5.178 -0.3263 -1.2498 -0.0776
19144TIP3   OH278846   3.959   1.297  13.571 -0.5317  0.3842 -0.1379
19144TIP3    H178847   3.924   1.234  13.634  0.2643  0.8426  0.7877
19144TIP3    H278848   3.883   1.330  13.525 -0.9219 -1.6865 -1.0582
19145TIP3   OH278849   2.837   2.515   5.588  0.2769 -0.1309 -0.0306
19145TIP3    H178850   2.918   2.473   5.618 -0.9482 -1.9300  0.8674
19145TIP3    H278851   2.792   2.539   5.669 -1.2549 -1.4739 -0.4645
19146TIP3   OH278852   5.117   5.094  16.530 -0.3963 -0.3945 -0.5966
19146TIP3    H178853   5.123   5.001  16.551  0.2272 -0.1410  0.3992
19146TIP3    H278854   5.035   5.102  16.481 -0.5098 -1.4447 -0.5989
19147TIP3   OH278855   3.063   0.456   0.716 -0.0044  0.1432  0.0677
19147TIP3    H178856   3.074   0.420   0.628  1.2472  2.7236 -0.8598
19147TIP3    H278857   2.980   0.504   0.712  0.0638  0.2823  0.3223
19148TIP3   OH278858   2.104   2.826  12.549  1.0358  0.0413  0.3903
19148TIP3    H178859   2.010   2.812  12.541  1.2714 -1.3295 -0.1773
19148TIP3    H278860   2.114   2.920  12.565 -0.4861 -0.0055  1.6685
19149TIP3   OH278861   6.291   5.009   4.992 -0.2715 -0.2912 -0.1914
19149TIP3    H178862   6.213   5.065   4.992 -0.7819 -0.9562  2.0531
19149TIP3    H278863   6.350   5.051   4.930 -1.3686  1.7437  0.0822
19150TIP3   OH278864   4.527   5.051   4.231 -0.0648 -0.3316  0.1797
19150TIP3    H178865   4.590   5.118   4.206  0.1473 -0.8169 -0.5965
19150TIP3    H278866   4.491   5.019   4.148  1.1677 -2.4592  0.4288
19151TIP3   OH278867   2.549   1.638   0.833 -0.7117 -0.5717 -0.0898
19151TIP3    H178868   2.517   1.699   0.767 -0.7637 -0.6522 -0.1394
19151TIP3    H278869   2.629   1.679   0.867 -1.5071  0.1938  0.8775
19152TIP3   OH278870   4.138   4.666   3.124  0.1731 -0.2810  0.3774
19152TIP3    H178871   4.077   4.595   3.104 -0.9406  1.8178 -4.3723
19152TIP3    H278872   4.112   4.697   3.211 -2.2074 -2.6997  0.5901
19153TIP3   OH278873   1.215   3.283  13.412 -0.1503 -0.2345 -0.6059
19153TIP3    H178874   1.129   3.241  13.407 -1.5176  2.5603 -2.3441
19153TIP3    H278875   1.269   3.236  13.350 -1.0636 -0.6681 -1.0867
19154TIP3   OH278876   2.035   3.830   5.058  0.1405  0.0647 -0.6166
19154TIP3    H178877   2.010   3.916   5.092  2.2718  0.8660 -0.9583
19154TIP3    H278878   2.043   3.843   4.963 -1.8629 -1.1372 -0.9657
19155TIP3   OH278879   4.767   0.273  11.475  0.2156 -0.2008 -0.1373
19155TIP3    H178880   4.855   0.244  11.498  0.0749  0.6691  1.6234
19155TIP3    H278881   4.714   0.248  11.551 -1.0268 -0.5880 -1.1173
19156TIP3   OH278882   3.247   0.112  17.238 -0.0066  0.2104 -0.8197
19156TIP3    H178883   3.259   0.136  17.146 -0.3399  2.6243 -0.2668
19156TIP3    H278884   3.178   0.170  17.268  0.8777  0.2139  1.2491
19157TIP3   OH278885   3.335   2.885  13.618 -0.0884  0.2135 -0.0579
19157TIP3    H178886   3.245   2.918  13.608 -0.6884 -1.1189  0.8943
19157TIP3    H278887   3.375   2.899  13.532 -1.0078  1.3750 -0.3152
19158TIP3   OH278888   3.775   1.125  16.584 -0.1633 -0.0153  0.1580
19158TIP3    H178889   3.722   1.189  16.632 -0.1409 -0.2660  0.5183
19158TIP3    H278890   3.831   1.178  16.528 -0.8068  0.2558 -0.2410
19159TIP3   OH278891   0.121   1.972   0.406  0.1088 -0.0521  0.2181
19159TIP3    H178892   0.063   2.004   0.475  1.1093  1.4681  0.3853
19159TIP3    H278893   0.122   1.877   0.418 -0.7076  0.0841  1.5176
19160TIP3   OH278894   3.492   4.821   5.102  0.3836  0.5448 -0.2178
19160TIP3    H178895   3.501   4.727   5.120 -0.2053  0.2927 -1.2267
19160TIP3    H278896   3.402   4.842   5.128  0.5524  0.8633  0.1196
19161TIP3   OH278897   5.584   4.364  15.648 -0.5017  0.4773 -0.2102
19161TIP3    H178898   5.640   4.367  15.726 -0.2437  1.4841 -0.4337
19161TIP3    H278899   5.605   4.443  15.600  0.5899 -0.9570 -2.1818
19162TIP3   OH278900   1.831   3.193   1.896  0.3826 -0.1551 -0.3357
19162TIP3    H178901   1.895   3.246   1.942  0.3452  0.0890 -0.5633
19162TIP3    H278902   1.807   3.124   1.958  0.0948  0.3581  0.1251
19163TIP3   OH278903   1.793   6.084  10.777  0.7145 -0.0646 -0.3432
19163TIP3    H178904   1.834   6.162  10.813  0.6707 -0.9306  1.6238
19163TIP3    H278905   1.867   6.025  10.758  0.5385 -0.8031  1.2233
19164TIP3   OH278906   2.941   6.715   3.214  0.0208  0.1119 -0.1871
19164TIP3    H178907   2.941   6.735   3.120 -1.6235  0.6903 -0.0865
19164TIP3    H278908   2.944   6.620   3.218 -2.0859 -0.0091 -0.8903
19165TIP3   OH278909   1.139   3.769   3.480 -0.4723  0.0489 -0.4958
19165TIP3    H178910   1.134   3.687   3.530 -0.4345 -0.0350 -0.6271
19165TIP3    H278911   1.108   3.745   3.393  0.4868 -0.0618 -0.8174
19166TIP3   OH278912   0.556   6.776   1.752  0.5642  0.1393 -0.5510
19166TIP3    H178913   0.616   6.847   1.731  1.2795 -0.4472 -0.5188
19166TIP3    H278914   0.470   6.807   1.723  0.7572  1.2888  0.1053
19167TIP3   OH278915   1.461   4.508  15.832  0.3601 -0.1846  0.0848
19167TIP3    H178916   1.386   4.511  15.771  0.7653 -1.0940 -0.4649
19167TIP3    H278917   1.521   4.575  15.798  0.5199 -0.5871 -0.4384
19168TIP3   OH278918   3.219   2.790   0.237 -0.0147  0.6553 -0.5594
19168TIP3    H178919   3.129   2.778   0.206  0.3032 -0.0457 -1.2103
19168TIP3    H278920   3.245   2.875   0.202 -0.0145  0.3278 -1.3532
19169TIP3   OH278921   1.369   6.753  12.438 -0.2453  0.1559  0.1340
19169TIP3    H178922   1.410   6.825  12.485  1.0890 -1.3356  1.2811
19169TIP3    H278923   1.350   6.789  12.351  1.3999  1.5480  0.3305
19170TIP3   OH278924   3.402   1.231   4.379 -0.0746  0.1819  0.7069
19170TIP3    H178925   3.388   1.312   4.328  0.2758  0.6807  1.3986
19170TIP3    H278926   3.397   1.161   4.314 -0.2758  0.7704  0.0812
19171TIP3   OH278927   1.779   3.849   1.546 -0.0669  0.0057 -0.0378
19171TIP3    H178928   1.746   3.875   1.632  0.0120 -0.5964  0.1774
19171TIP3    H278929   1.830   3.924   1.516 -2.1657  1.2354 -0.6784
19172TIP3   OH278930   5.345   0.550   1.369  0.0027  0.2653  0.5621
19172TIP3    H178931   5.320   0.630   1.323 -0.0798  0.8970  1.6700
19172TIP3    H278932   5.438   0.540   1.350 -0.2974 -0.1386 -0.7033
19173TIP3   OH278933   6.531   3.101   4.160  0.2534 -0.1736 -0.3445
19173TIP3    H178934   6.534   3.076   4.253 -1.5641  0.3826 -0.1158
19173TIP3    H278935   6.622   3.093   4.131  0.7180 -1.1819  1.2587
19174TIP3   OH278936   5.630   2.683  17.148 -0.5106  0.2619 -0.2297
19174TIP3    H178937   5.607   2.756  17.090 -0.8055  0.3614  0.0121
19174TIP3    H278938   5.725   2.690  17.158 -0.3424 -0.2670 -1.3827
19175TIP3   OH278939   6.223   4.624  15.869  0.6296 -0.5553 -0.3261
19175TIP3    H178940   6.232   4.529  15.871 -1.2769 -0.7287  0.3277
19175TIP3    H278941   6.220   4.649  15.961  1.7682  0.2306 -0.4820
19176TIP3   OH278942   4.911   0.954  15.007 -0.4521  0.6571  0.5166
19176TIP3    H178943   4.835   0.913  14.967 -1.5790  2.4959  0.7405
19176TIP3    H278944   4.946   0.887  15.066 -0.2678 -1.1672 -1.5724
19177TIP3   OH278945   3.326   6.649   0.190 -0.2137  0.1905  0.7106
19177TIP3    H178946   3.393   6.683   0.131 -0.2056  1.3731  1.3879
19177TIP3    H278947   3.309   6.560   0.158 -0.3247  0.8579 -1.1674
19178TIP3   OH278948   0.267   4.678   2.180 -0.3217 -0.1048  0.1476
19178TIP3    H178949   0.303   4.685   2.268  0.5608  3.0342 -0.3973
19178TIP3    H278950   0.297   4.593   2.149 -1.0505 -1.4695  3.0179
19179TIP3   OH278951   0.848   0.907  11.997 -0.4089  0.1726 -0.8092
19179TIP3    H178952   0.884   0.992  11.975 -0.5401  0.7596  1.1426
19179TIP3    H278953   0.753   0.916  11.984 -0.3843  0.2067 -0.9640
19180TIP3   OH278954   3.923   2.163  12.611  0.2220  0.5242 -0.2884
19180TIP3    H178955   3.881   2.078  12.623  2.2058 -0.6696 -1.7472
19180TIP3    H278956   3.850   2.223  12.595 -1.1921 -0.8762  0.7345
19181TIP3   OH278957   4.407   0.918   0.375  0.3765 -0.1124  0.6552
19181TIP3    H178958   4.452   1.001   0.360 -1.1192  0.7707  0.9859
19181TIP3    H278959   4.451   0.881   0.452  0.2747  0.9249  1.2203
19182TIP3   OH278960   5.967   0.710  14.160  0.4447 -0.1160 -0.9405
19182TIP3    H178961   5.992   0.663  14.239 -0.1191 -2.8908 -2.3264
19182TIP3    H278962   6.051   0.732  14.118  0.7221  0.2791 -0.1862
19183TIP3   OH278963   5.462   6.704   4.731  0.4645 -0.0814 -0.3394
19183TIP3    H178964   5.428   6.628   4.682  2.2443 -0.7782 -0.5521
19183TIP3    H278965   5.400   6.715   4.803 -0.4785 -0.9969 -0.9723
19184TIP3   OH278966   0.454   3.082  13.203  0.3841  0.0151  0.2615
19184TIP3    H178967   0.486   3.047  13.121  1.1639  1.3878 -0.0227
19184TIP3    H278968   0.464   3.177  13.195  0.5897  0.1557  1.9804
19185TIP3   OH278969   5.483   6.346  11.871 -0.4951 -0.4542  0.5261
19185TIP3    H178970   5.525   6.291  11.804 -0.5924  1.3595 -1.0838
19185TIP3    H278971   5.541   6.422  11.879 -1.6738  0.4319  0.8088
19186TIP3   OH278972   1.285   6.297   4.140 -0.4055 -0.6078  0.3604
19186TIP3    H178973   1.348   6.276   4.072  0.9760 -3.6967  2.5052
19186TIP3    H278974   1.208   6.244   4.120  0.2421 -2.0231  1.4914
19187TIP3   OH278975   0.002   2.752   3.718 -0.3681 -0.1367 -0.4294
19187TIP3    H178976  -0.082   2.760   3.673 -0.3306  0.7079 -0.3537
19187TIP3    H278977   0.067   2.781   3.653 -0.1701 -0.3729 -0.3398
19188TIP3   OH278978   2.414   3.513   5.079 -0.0075 -0.0025 -0.3591
19188TIP3    H178979   2.380   3.596   5.046  0.3894 -0.3122 -1.5671
19188TIP3    H278980   2.398   3.516   5.173  0.6115  1.7252 -0.2926
19189TIP3   OH278981   4.221   2.109   0.478 -0.3257 -0.2951  0.1187
19189TIP3    H178982   4.290   2.108   0.543  2.5234 -1.0438 -2.7967
19189TIP3    H278983   4.185   2.020   0.479  0.3507 -0.5718  0.0440
19190TIP3   OH278984   4.794   2.376   6.242  0.1210  0.1196 -0.3326
19190TIP3    H178985   4.805   2.437   6.170  0.7016 -0.5821 -0.8443
19190TIP3    H278986   4.835   2.295   6.212 -0.2110 -0.3776  0.5248
19191TIP3   OH278987   3.763   1.823  11.936 -0.2761  0.7220  0.6645
19191TIP3    H178988   3.771   1.917  11.951  0.4691  0.8934 -0.7793
19191TIP3    H278989   3.844   1.786  11.970  0.3640  0.8434 -0.7191
19192TIP3   OH278990   3.824   1.949  16.564 -0.3127 -0.0771 -0.6783
19192TIP3    H178991   3.750   2.007  16.546  1.1595  2.9010  2.4697
19192TIP3    H278992   3.881   1.959  16.488 -2.0392 -0.6516 -2.0747
19193TIP3   OH278993   1.468   4.602  16.336 -0.4280 -0.9982 -0.5353
19193TIP3    H178994   1.388   4.607  16.389  1.4008 -2.2363  2.4711
19193TIP3    H278995   1.460   4.518  16.290 -0.2176 -1.8312  0.9049
19194TIP3   OH278996   0.333   3.669  16.622  0.4089  0.1329  0.4845
19194TIP3    H178997   0.399   3.739  16.624  0.4281  0.2109 -1.5385
19194TIP3    H278998   0.251   3.715  16.604  0.2441 -0.2598  0.2470
19195TIP3   OH278999   6.217   1.450  10.360 -0.1337 -0.4985  0.3005
19195TIP3    H179000   6.230   1.372  10.306  0.3633 -0.0090 -0.2965
19195TIP3    H279001   6.139   1.491  10.324 -1.0524 -1.3201  1.3400
19196TIP3   OH279002   3.999   6.206  11.314  0.1031  0.1146  0.1136
19196TIP3    H179003   4.035   6.124  11.282 -0.4694  0.3084 -1.0788
19196TIP3    H279004   4.056   6.231  11.387  0.2708 -1.3296  0.4934
19197TIP3   OH279005   0.071   5.961   4.225 -0.3469 -0.1451  0.2878
19197TIP3    H179006  -0.019   5.989   4.241  0.3744  4.7170 -3.1345
19197TIP3    H279007   0.069   5.923   4.137  0.6087 -2.0595  1.0478
19198TIP3   OH279008   5.798   3.790   0.821  0.2684 -0.2065  0.4006
19198TIP3    H179009   5.770   3.881   0.810  0.7496 -0.0077  0.7822
19198TIP3    H279010   5.719   3.739   0.805  0.1164  0.2499 -0.3296
19199TIP3   OH279011   5.724   0.245   5.956  0.8672  0.6277  0.4364
19199TIP3    H179012   5.631   0.253   5.977  0.9542 -0.1318  1.1245
19199TIP3    H279013   5.749   0.158   5.989  2.4532  1.9003  2.6819
19200TIP3   OH279014   0.744   0.847  13.402  0.1486 -0.3124  0.0079
19200TIP3    H179015   0.791   0.781  13.455  0.6120  0.6038  0.7480
19200TIP3    H279016   0.810   0.879  13.340  0.8358  1.7304  1.7309
19201TIP3   OH279017   6.666   6.652   0.756  0.2191  0.0789  0.2714
19201TIP3    H179018   6.702   6.707   0.826  1.1576  0.9736 -0.8841
19201TIP3    H279019   6.743   6.616   0.713 -0.2753  1.0722 -1.5037
19202TIP3   OH279020   0.143   4.408   6.523  0.5526  0.5997  0.8833
19202TIP3    H179021   0.061   4.362   6.543  0.3441  0.5059 -0.1632
19202TIP3    H279022   0.203   4.338   6.497  0.3531  0.8633 -0.3272
19203TIP3   OH279023   2.179   5.485  13.759 -0.1495 -0.6470 -0.0919
19203TIP3    H179024   2.120   5.552  13.793 -0.4600 -0.9444 -0.0293
19203TIP3    H279025   2.128   5.404  13.766 -1.2508 -0.3450 -3.7671
19204TIP3   OH279026   2.985   3.733   5.357  0.6104  0.0981  0.5785
19204TIP3    H179027   3.060   3.756   5.411  3.0520 -1.0748 -2.2372
19204TIP3    H279028   2.962   3.813   5.311  1.4136 -0.0201 -0.0409
19205TIP3   OH279029   1.138   1.528   1.456  0.7276 -0.2956  0.1978
19205TIP3    H179030   1.223   1.484   1.445  0.0921 -1.2370 -1.0284
19205TIP3    H279031   1.083   1.463   1.499  0.3362 -0.0428  0.0788
19206TIP3   OH279032   3.017   0.452  12.077 -0.0134 -0.3412  0.2463
19206TIP3    H179033   3.112   0.460  12.069  0.0662  0.1475  1.4710
19206TIP3    H279034   2.996   0.367  12.040  0.7242  0.1611 -1.3727
19207TIP3   OH279035   6.197   5.249   1.874 -0.5201 -0.2317 -0.1445
19207TIP3    H179036   6.158   5.317   1.929 -0.1161 -0.1281  0.0090
19207TIP3    H279037   6.196   5.171   1.928  0.9203  0.1288  0.4253
19208TIP3   OH279038   5.827   4.679  12.589 -0.0729  0.3045  0.2642
19208TIP3    H179039   5.821   4.584  12.596 -0.2420  0.3922  1.4518
19208TIP3    H279040   5.915   4.695  12.555 -0.0181 -0.2730  0.1313
19209TIP3   OH279041   1.190   6.683   5.573 -0.4713  0.2884 -0.4106
19209TIP3    H179042   1.230   6.609   5.526 -0.2850 -0.1916  0.4906
19209TIP3    H279043   1.235   6.760   5.539  0.7471 -0.1849  0.0914
19210TIP3   OH279044   3.988   5.154   3.284  0.1485 -0.5291 -0.2954
19210TIP3    H179045   4.065   5.100   3.305  1.4878  1.2001 -0.6746
19210TIP3    H279046   3.932   5.146   3.361  1.7005 -0.1064  0.9149
19211TIP3   OH279047   1.839   0.352  15.333 -0.4861  0.8222 -0.4437
19211TIP3    H179048   1.873   0.336  15.421  1.4146  2.7982 -0.7844
19211TIP3    H279049   1.791   0.272  15.311 -0.2572 -0.0395  2.0334
19212TIP3   OH279050   6.583   2.430  12.325 -0.4390 -0.8916 -0.1508
19212TIP3    H179051   6.633   2.358  12.362 -0.9860 -1.7062 -0.9801
19212TIP3    H279052   6.630   2.454  12.246 -0.4071 -0.5039 -0.0185
19213TIP3   OH279053   6.665   0.719   2.718 -0.1242  0.7989  0.4584
19213TIP3    H179054   6.714   0.651   2.672  0.3756  1.0237  0.6640
19213TIP3    H279055   6.626   0.675   2.793 -0.2639  0.6178  0.2818
19214TIP3   OH279056   6.503   4.799  16.141 -0.4361  0.0241 -0.7454
19214TIP3    H179057   6.545   4.727  16.093  1.3518  1.2888 -1.0990
19214TIP3    H279058   6.573   4.838  16.193 -1.7682  0.4478  0.7838
19215TIP3   OH279059   5.893   5.857  15.894 -0.3768 -0.2622  0.3271
19215TIP3    H179060   5.981   5.882  15.865 -1.2609  1.2804 -1.0917
19215TIP3    H279061   5.893   5.761  15.891  1.1937 -0.2729  0.2051
19216TIP3   OH279062   1.315   2.867   3.049 -0.0206 -0.8029 -0.3704
19216TIP3    H179063   1.328   2.847   3.142 -2.7761 -2.4157 -0.2847
19216TIP3    H279064   1.241   2.928   3.048  1.6246  1.2409 -1.3771
19217TIP3   OH279065   3.003   4.229  14.404 -0.4430  0.0874 -0.0004
19217TIP3    H179066   2.973   4.159  14.346 -1.7946  0.9618 -0.3746
19217TIP3    H279067   3.011   4.306  14.348  0.3344  0.4181  0.5523
19218TIP3   OH279068   0.791   5.625  13.534  0.6209  0.0835  0.0201
19218TIP3    H179069   0.744   5.704  13.563  0.4747 -0.1479  0.4223
19218TIP3    H279070   0.820   5.646  13.445 -3.4852 -1.1633 -1.7293
19219TIP3   OH279071   4.972   3.071  12.969  0.1711 -0.0177 -0.4058
19219TIP3    H179072   4.909   3.007  13.001 -0.4757  1.1635  0.7102
19219TIP3    H279073   5.009   3.031  12.890 -2.0883 -0.6486 -1.1656
19220TIP3   OH279074   3.503   5.077  12.641  0.3703 -0.4412  0.5895
19220TIP3    H179075   3.439   5.099  12.573  1.0926  1.0775  0.3628
19220TIP3    H279076   3.509   4.982  12.639  0.9810 -0.3741 -2.0235
19221TIP3   OH279077   6.120   3.101   4.941 -0.1696 -0.0020  0.4324
19221TIP3    H179078   6.107   3.154   5.020  2.2992 -0.8144  1.4098
19221TIP3    H279079   6.213   3.082   4.939 -0.8983 -4.0930 -0.0259
19222TIP3   OH279080   6.360   0.721  16.290  0.5701  1.0131  0.4392
19222TIP3    H179081   6.339   0.745  16.199 -1.4347 -0.7945  0.3768
19222TIP3    H279082   6.336   0.799  16.341 -3.3841  0.2131 -0.0406
19223TIP3   OH279083   5.017   5.230  12.058  0.2892  0.2922  0.0753
19223TIP3    H179084   4.954   5.182  12.112  0.4972  0.8436  0.8260
19223TIP3    H279085   5.069   5.280  12.121  1.5099 -0.1927 -0.5318
19224TIP3   OH279086   1.848   2.267   1.154  0.1451 -0.1789 -0.5762
19224TIP3    H179087   1.863   2.179   1.119 -0.3521 -1.0233  1.2921
19224TIP3    H279088   1.925   2.284   1.209 -0.7244 -0.2827  0.6861
19225TIP3   OH279089   5.449   4.421   2.105 -0.0167  0.3889 -0.0843
19225TIP3    H179090   5.383   4.468   2.055 -1.1097 -0.1559  0.8312
19225TIP3    H279091   5.529   4.473   2.094 -0.2213  0.2653 -2.3916
19226TIP3   OH279092   1.789   6.342  11.103 -0.1918 -0.4012  0.1979
19226TIP3    H179093   1.822   6.301  11.183 -1.3094  0.3605  1.0636
19226TIP3    H279094   1.803   6.436  11.116 -1.3212 -0.1858 -0.0546
19227TIP3   OH279095   5.854   4.525   1.043 -0.2760 -0.0637  0.2305
19227TIP3    H179096   5.774   4.527   0.991 -1.7362 -0.3064  2.4265
19227TIP3    H279097   5.901   4.604   1.017 -2.0406  0.9897  0.2019
19228TIP3   OH279098   1.487   1.728   5.515  0.1978  0.6817  0.5659
19228TIP3    H179099   1.477   1.680   5.433  0.2376 -1.6369  1.8560
19228TIP3    H279100   1.580   1.752   5.518  0.2268  0.6464 -0.0065
19229TIP3   OH279101   4.902   5.970  11.393 -0.4096 -0.1600 -0.0032
19229TIP3    H179102   4.942   5.916  11.325 -0.5109 -1.4109  0.9060
19229TIP3    H279103   4.813   5.935  11.401 -1.2980  1.7507 -1.1077
19230TIP3   OH279104   3.418   6.143   1.785 -0.4483  0.5567  0.0408
19230TIP3    H179105   3.470   6.088   1.843  0.8709  1.2300 -0.4783
19230TIP3    H279106   3.378   6.082   1.722 -0.0768  0.0609  0.2882
19231TIP3   OH279107   2.319   3.190   4.375  0.7753 -0.1486 -0.5606
19231TIP3    H179108   2.370   3.265   4.344  1.4322  0.9975  3.0767
19231TIP3    H279109   2.381   3.117   4.377  1.6979  0.6721  1.5903
19232TIP3   OH279110   5.149   1.692  11.196 -0.2425  0.8643  0.5334
19232TIP3    H179111   5.240   1.667  11.210 -0.8935 -2.2337 -0.4051
19232TIP3    H279112   5.099   1.638  11.258 -1.4812  2.2074  0.7399
19233TIP3   OH279113   5.738   3.337   1.750  0.0090  0.1791  0.5363
19233TIP3    H179114   5.660   3.377   1.787 -0.4792 -0.5968  0.3596
19233TIP3    H279115   5.721   3.333   1.656 -0.1815 -0.9276  0.6118
19234TIP3   OH279116   5.357   0.220  10.201 -0.9515 -0.4143  0.1122
19234TIP3    H179117   5.310   0.203  10.283 -2.1651  0.9869 -0.2806
19234TIP3    H279118   5.293   0.201  10.132 -0.4964  0.1267 -0.4644
19235TIP3   OH279119   3.500   3.276   6.086 -0.0873  0.0168 -0.6302
19235TIP3    H179120   3.427   3.266   6.147  0.3873 -1.1882 -0.2342
19235TIP3    H279121   3.511   3.188   6.048  0.7801  0.3307 -1.1153
19236TIP3   OH279122   2.804   3.531  14.005  0.4465  0.4281 -0.1329
19236TIP3    H179123   2.842   3.543  14.092 -0.3368 -0.3102  0.3123
19236TIP3    H279124   2.716   3.497  14.021  0.6625 -0.6804 -1.2385
19237TIP3   OH279125   6.256   1.383  10.925 -0.1052 -1.0833  0.0420
19237TIP3    H179126   6.241   1.413  10.836 -0.5397 -1.8531 -0.1455
19237TIP3    H279127   6.299   1.457  10.968  0.4934 -0.8626 -0.9158
19238TIP3   OH279128   1.085   3.940   2.150  0.0782  0.3401 -0.0224
19238TIP3    H179129   1.050   3.867   2.099 -0.6706  1.1834 -0.7358
19238TIP3    H279130   1.171   3.957   2.111  0.6520 -0.7387  0.7382
19239TIP3   OH279131   6.281   5.294  14.736  0.2343 -0.0004  0.0052
19239TIP3    H179132   6.348   5.252  14.791  0.9341  0.3818 -0.5415
19239TIP3    H279133   6.198   5.258  14.768  0.5208  1.1084  2.1191
19240TIP3   OH279134   1.624   0.717   0.241  0.1241 -0.0957  0.9082
19240TIP3    H179135   1.672   0.771   0.303  0.7395  0.1243  0.2531
19240TIP3    H279136   1.663   0.630   0.250  0.9933  0.1925  0.0297
19241TIP3   OH279137   2.020   1.210  13.665  0.2172 -0.3837  0.0963
19241TIP3    H179138   2.111   1.179  13.668 -0.1180 -1.6488 -2.2610
19241TIP3    H279139   2.027   1.298  13.628  0.3209 -1.2896 -2.1142
19242TIP3   OH279140   1.989   0.529  10.970  0.0899 -0.0044  0.5614
19242TIP3    H179141   1.970   0.598  11.033  0.9454 -1.0948  2.0332
19242TIP3    H279142   2.063   0.563  10.919 -2.0978  1.8708 -1.4649
19243TIP3   OH279143   4.633   6.289   0.877 -0.4265  0.1462 -0.1770
19243TIP3    H179144   4.660   6.373   0.913 -0.8260  0.6114 -0.9424
19243TIP3    H279145   4.594   6.311   0.792 -0.8523 -0.7753 -0.2257
19244TIP3   OH279146   6.486   4.121   1.186 -0.2315  0.0269 -0.3862
19244TIP3    H179147   6.473   4.200   1.133 -0.4488  0.3188  0.0960
19244TIP3    H279148   6.397   4.091   1.207 -0.1826  1.4577  2.0810
19245TIP3   OH279149   2.641   5.858  16.188  0.5116 -0.1427 -0.6373
19245TIP3    H179150   2.653   5.881  16.096  0.1751  0.2311 -0.5890
19245TIP3    H279151   2.583   5.781  16.185  0.1826  0.1062 -0.7216
19246TIP3   OH279152   5.390   0.885   4.008  0.1120  0.3042 -0.2315
19246TIP3    H179153   5.358   0.958   4.061 -0.1339  0.2447 -0.2937
19246TIP3    H279154   5.410   0.817   4.072 -1.0083 -0.0736 -0.2651
19247TIP3   OH279155   0.203   2.129   4.904  0.2423  0.0565  0.0342
19247TIP3    H179156   0.257   2.098   4.976 -2.3416  0.1024  2.0670
19247TIP3    H279157   0.166   2.212   4.935 -0.1344  0.5695 -1.7355
19248TIP3   OH279158   1.163   6.079  13.608 -0.5253 -0.0522  0.0753
19248TIP3    H179159   1.172   6.147  13.674  0.3750 -1.2831  1.2683
19248TIP3    H279160   1.216   6.110  13.534 -3.2328  2.3186 -0.9576
19249TIP3   OH279161   3.611   6.716  13.859  0.1372  0.6755  0.1132
19249TIP3    H179162   3.655   6.783  13.912  0.6312  1.0088 -0.7164
19249TIP3    H279163   3.518   6.731  13.874  0.2643  1.0692  0.5225
19250TIP3   OH279164   3.742   6.020   2.190 -0.5733 -0.9722 -0.0197
19250TIP3    H179165   3.749   5.958   2.118  0.6067 -0.2785 -0.5132
19250TIP3    H279166   3.813   6.082   2.175 -1.4696  0.2454  0.7085
19251TIP3   OH279167   0.150   0.719  11.234 -0.3891  0.7813  0.5594
19251TIP3    H179168   0.058   0.693  11.237 -0.1850 -0.6849 -3.0805
19251TIP3    H279169   0.147   0.810  11.203 -0.6216  0.5541 -0.1082
19252TIP3   OH279170   1.673   3.374  15.592  0.1227  0.0882  0.4957
19252TIP3    H179171   1.584   3.391  15.622  0.1466 -0.7199  1.0451
19252TIP3    H279172   1.669   3.287  15.553  0.4178  0.5378 -0.5430
19253TIP3   OH279173   4.614   0.209  16.736  0.4829  0.2028 -0.2444
19253TIP3    H179174   4.581   0.298  16.731 -1.3236 -0.4760 -0.8743
19253TIP3    H279175   4.665   0.206  16.817 -1.1491  1.2497  0.8289
19254TIP3   OH279176   2.958   1.036  13.856 -0.8672  0.2844 -0.0920
19254TIP3    H179177   2.935   1.103  13.792  1.4101 -0.9579 -2.3121
19254TIP3    H279178   2.930   0.954  13.816 -0.4830 -0.4085  1.0353
19255TIP3   OH279179   6.604   1.233   1.102 -0.0192  0.2799 -0.5348
19255TIP3    H179180   6.583   1.324   1.123 -2.7839 -0.5671  0.6116
19255TIP3    H279181   6.646   1.200   1.181  1.5572  0.7022 -1.1757
19256TIP3   OH279182   1.878   4.299  15.104 -0.1429 -0.1119  0.1103
19256TIP3    H179183   1.798   4.248  15.088 -0.7806  0.5787  1.0270
19256TIP3    H279184   1.915   4.314  15.017  0.2932 -2.5058 -0.1516
19257TIP3   OH279185   3.876   4.896   2.547  0.2243 -0.2904  0.6357
19257TIP3    H179186   3.954   4.933   2.587  0.3281 -0.1907  0.3437
19257TIP3    H279187   3.816   4.970   2.538 -0.1980 -0.5091  1.5530
19258TIP3   OH279188   3.889   4.024  11.135  0.5175  0.0138 -0.1807
19258TIP3    H179189   3.970   4.031  11.084  0.8349  1.5919  0.5044
19258TIP3    H279190   3.820   4.050  11.074  0.6229 -0.4617 -0.5039
19259TIP3   OH279191   3.406   1.051   6.252  0.6428  0.2565 -0.0319
19259TIP3    H179192   3.404   0.984   6.184 -1.0659 -1.3623  1.5407
19259TIP3    H279193   3.348   1.120   6.219  1.0610  0.1850 -0.9196
19260TIP3   OH279194   5.579   3.309   2.527  0.0464  0.4851 -0.3384
19260TIP3    H179195   5.633   3.385   2.547 -1.7424  1.9649 -0.9578
19260TIP3    H279196   5.623   3.267   2.453  1.1524  0.8013  0.1327
19261TIP3   OH279197   5.158   4.748   0.096 -0.6061  0.4515  0.0025
19261TIP3    H179198   5.151   4.843   0.106 -0.1501  0.4119  0.6991
19261TIP3    H279199   5.125   4.731   0.008  2.5537  1.6366 -1.5002
19262TIP3   OH279200   3.808   5.688   3.621 -0.1916 -0.3444  0.1609
19262TIP3    H179201   3.789   5.780   3.604 -0.6169 -0.2750  0.9851
19262TIP3    H279202   3.854   5.688   3.705  2.5989 -0.6044 -1.2950
19263TIP3   OH279203   3.269   5.352  17.145  0.0142 -0.2306 -0.7414
19263TIP3    H179204   3.284   5.369  17.238 -0.3692 -0.0577 -0.7088
19263TIP3    H279205   3.282   5.258  17.135  0.7364 -0.1417 -0.6482
19264TIP3   OH279206   4.929   2.336  11.303 -0.3107 -0.1929 -0.0792
19264TIP3    H179207   4.836   2.319  11.290 -0.3066 -1.4845  1.4589
19264TIP3    H279208   4.949   2.300  11.389  0.9741  2.7302  0.9163
19265TIP3   OH279209   5.107   5.661  15.765  0.5850 -0.5856 -0.2704
19265TIP3    H179210   5.016   5.631  15.763  0.6614 -0.7572 -1.7819
19265TIP3    H279211   5.112   5.725  15.694  1.4875 -0.1160  0.2179
19266TIP3   OH279212   5.818   2.088  14.552  0.1726 -0.0163 -0.0547
19266TIP3    H179213   5.890   2.027  14.566 -0.6160 -0.9451 -0.0457
19266TIP3    H279214   5.767   2.084  14.633 -0.1653  0.2835 -0.2543
19267TIP3   OH279215   0.050   1.753  13.811  0.0937 -0.1875  0.2879
19267TIP3    H179216  -0.037   1.776  13.842  0.0407 -1.7870  1.3976
19267TIP3    H279217   0.034   1.706  13.728 -0.0555  0.1430  0.1300
19268TIP3   OH279218   4.699   2.640  11.922 -0.5482 -0.1224  0.3346
19268TIP3    H179219   4.638   2.580  11.879  0.7254 -1.2117  0.0448
19268TIP3    H279220   4.709   2.712  11.861 -0.6324 -0.5012 -0.1255
19269TIP3   OH279221   0.370   2.061   2.787 -0.0033  0.3137  0.2290
19269TIP3    H179222   0.340   2.075   2.697 -0.9538  3.0881  0.9176
19269TIP3    H279223   0.447   2.118   2.796  1.9098 -2.2119  0.3007
19270TIP3   OH279224   4.088   0.154   4.762  0.1068  0.2411 -0.3171
19270TIP3    H179225   4.012   0.097   4.773  0.7504 -0.6625 -0.5197
19270TIP3    H279226   4.073   0.226   4.823 -0.4437 -0.4300  0.3469
19271TIP3   OH279227   3.116   0.821   1.071  0.4822  0.5443 -0.4208
19271TIP3    H179228   3.084   0.841   1.159  0.1629 -0.5134 -0.2931
19271TIP3    H279229   3.117   0.906   1.026  0.0783  0.9947  0.4126
19272TIP3   OH279230   5.290   3.192  12.510  0.0947  0.0263  0.5176
19272TIP3    H179231   5.197   3.180  12.532 -0.4028 -1.7340 -2.3117
19272TIP3    H279232   5.291   3.262  12.445  0.6839 -0.3102  0.1573
19273TIP3   OH279233   6.321   1.887   1.680 -0.3207  0.2379  0.0691
19273TIP3    H179234   6.371   1.813   1.715 -1.4479 -0.0907  1.0045
19273TIP3    H279235   6.274   1.922   1.756 -0.1497  1.6364 -0.4570
19274TIP3   OH279236   4.838   2.051  14.506  0.4542  0.0224  0.2926
19274TIP3    H179237   4.915   2.003  14.475 -0.6922 -1.0776 -0.9429
19274TIP3    H279238   4.789   2.071  14.426 -1.2758 -0.6112  1.1582
19275TIP3   OH279239   6.156   4.595  11.130  0.0430  0.0635 -0.1173
19275TIP3    H179240   6.086   4.661  11.129 -0.7590 -0.7466  1.2766
19275TIP3    H279241   6.207   4.616  11.207 -0.4757 -1.1996  0.5817
19276TIP3   OH279242   3.231   3.943  15.274 -0.3407 -0.4288  0.1330
19276TIP3    H179243   3.190   3.932  15.189  0.2857 -2.1892  0.0429
19276TIP3    H279244   3.228   4.038  15.290 -1.4581 -0.2011 -1.3265
19277TIP3   OH279245   5.030   2.162  11.484  0.0712 -0.2646 -0.5949
19277TIP3    H179246   5.025   2.071  11.452  2.1392 -0.3594 -0.6899
19277TIP3    H279247   4.968   2.165  11.557  1.3796 -2.3001  0.6476
19278TIP3   OH279248   5.928   2.313   6.619  0.3477 -0.1203  0.3855
19278TIP3    H179249   5.994   2.313   6.549 -0.1922 -2.6595 -0.1676
19278TIP3    H279250   5.845   2.298   6.574 -0.6247  2.7781  1.1074
19279TIP3   OH279251   1.112   1.939   4.049 -0.0785 -0.1391  0.0341
19279TIP3    H179252   1.075   1.857   4.014 -1.1328 -0.0991  1.0281
19279TIP3    H279253   1.171   1.970   3.980  1.2717 -2.3699  0.1316
19280TIP3   OH279254   4.939   5.352   3.787  0.2268 -0.2457 -0.1597
19280TIP3    H179255   5.014   5.410   3.782 -0.1844  0.2395 -0.7539
19280TIP3    H279256   4.912   5.354   3.879 -1.0281  2.0932 -0.5461
19281TIP3   OH279257   0.962   1.833  14.001  0.3750 -0.8185  0.0554
19281TIP3    H179258   0.941   1.865  13.914 -0.0509 -2.5212 -0.4966
19281TIP3    H279259   0.878   1.810  14.040  0.3955  1.6133  1.6216
19282TIP3   OH279260   5.404   4.665   4.275 -0.2528  0.3415 -0.0950
19282TIP3    H179261   5.325   4.703   4.313 -0.3017 -0.1445  0.2997
19282TIP3    H279262   5.381   4.645   4.185 -0.1308  1.5303 -0.4088
19283TIP3   OH279263   2.448   0.709  12.714  0.2356  0.2042 -0.0153
19283TIP3    H179264   2.467   0.768  12.787  1.7495  1.0405 -1.0712
19283TIP3    H279265   2.532   0.697  12.670 -0.9722  1.0894 -2.6415
19284TIP3   OH279266   3.335   0.305  14.636  0.3044 -0.2032  0.0134
19284TIP3    H179267   3.409   0.248  14.657  0.6039 -0.2750 -1.2530
19284TIP3    H279268   3.375   0.388  14.610 -0.1068  0.2746  0.8855
19285TIP3   OH279269   5.493   5.068   0.634  0.1996 -0.2749 -0.0693
19285TIP3    H179270   5.467   5.067   0.726  0.2023  0.9133 -0.0539
19285TIP3    H279271   5.451   5.145   0.598  0.6925 -0.4072 -0.9277
19286TIP3   OH279272   4.363   5.451  11.597 -0.2766  0.2568 -0.2097
19286TIP3    H179273   4.388   5.438  11.505  0.0477  0.5133 -0.1579
19286TIP3    H279274   4.436   5.499  11.635 -0.2558 -0.1591  0.2739
19287TIP3   OH279275   6.550   4.611  15.771  0.2105 -0.3289 -0.1687
19287TIP3    H179276   6.564   4.640  15.861 -2.1010  1.7101 -0.3838
19287TIP3    H279277   6.575   4.686  15.718  0.3372 -1.0560 -1.1435
19288TIP3   OH279278   1.186   3.336   4.133  0.4987  0.2710  0.2794
19288TIP3    H179279   1.213   3.279   4.205  0.3963  1.7823  1.5357
19288TIP3    H279280   1.121   3.285   4.085  1.8121 -1.4042  0.2546
19289TIP3   OH279281   1.245   4.952  16.537  0.5092  0.0686  0.6431
19289TIP3    H179282   1.208   4.871  16.501 -0.3528 -0.3667  2.4609
19289TIP3    H279283   1.296   4.924  16.612  1.1735  1.1074  0.5867
19290TIP3   OH279284   3.618   1.666  11.387  0.2451 -1.0717  0.2654
19290TIP3    H179285   3.542   1.662  11.445  0.0726 -0.8909  0.0492
19290TIP3    H279286   3.619   1.581  11.343 -0.1003 -0.9055 -0.0722
19291TIP3   OH279287   6.205   6.669  11.944  0.1670 -0.2085  0.0401
19291TIP3    H179288   6.117   6.706  11.941  0.7478  1.0934 -1.5774
19291TIP3    H279289   6.191   6.576  11.962 -1.6242 -0.3032 -1.6322
19292TIP3   OH279290   2.250   4.961  12.269  0.2905 -0.4512  0.1096
19292TIP3    H179291   2.277   4.999  12.186  2.2682 -1.2579  0.3524
19292TIP3    H279292   2.276   4.869  12.263 -1.7568 -1.0926  0.6747
19293TIP3   OH279293   1.610   2.268   6.445 -0.4476  0.2501 -0.0803
19293TIP3    H179294   1.544   2.333   6.421  0.7450  1.3181 -0.5436
19293TIP3    H279295   1.651   2.303   6.523 -0.0829 -0.1551 -0.0900
19294TIP3   OH279296   2.465   4.497  13.202  0.1734 -0.4948  0.1108
19294TIP3    H179297   2.480   4.491  13.297 -1.3970 -1.1037  0.3425
19294TIP3    H279298   2.461   4.406  13.173  0.8239 -0.3081 -0.5741
19295TIP3   OH279299   2.655   6.354   3.197 -0.4836  1.0971  0.5262
19295TIP3    H179300   2.735   6.387   3.238 -0.4208  1.9083 -0.2198
19295TIP3    H279301   2.597   6.334   3.270  0.0583  1.4032  1.0451
19296TIP3   OH279302   4.296   5.108   3.849  0.1557 -0.0801  0.6349
19296TIP3    H179303   4.368   5.152   3.895  0.7768 -0.8931  0.4551
19296TIP3    H279304   4.336   5.075   3.768 -0.4215 -0.5029  0.5234
19297TIP3   OH279305   0.673   6.236  14.564  0.1713 -0.1353  0.1950
19297TIP3    H179306   0.596   6.286  14.592  0.5645 -0.2868  1.6030
19297TIP3    H279307   0.640   6.176  14.497 -0.7656  0.3816  0.1894
19298TIP3   OH279308   5.570   1.112   3.522 -0.0366 -0.1979  0.2063
19298TIP3    H179309   5.616   1.044   3.571  0.6584 -0.6745 -1.0498
19298TIP3    H279310   5.496   1.067   3.482 -1.1598  0.4008  1.5945
19299TIP3   OH279311   2.429   4.042   3.839 -0.1698  0.7130  0.1248
19299TIP3    H179312   2.487   4.107   3.878  0.3148  0.8396 -0.7913
19299TIP3    H279313   2.344   4.060   3.878  0.2974  0.8368  1.1172
19300TIP3   OH279314   2.310   5.359   5.511  0.8702 -0.1345  0.1227
19300TIP3    H179315   2.374   5.366   5.440 -0.3657 -0.2834 -1.0263
19300TIP3    H279316   2.275   5.270   5.502 -0.1863  0.2730  0.1420
19301TIP3   OH279317   1.307   0.583   3.562  0.2053  0.4381 -0.0899
19301TIP3    H179318   1.383   0.525   3.571 -0.6165 -0.8545 -1.2126
19301TIP3    H279319   1.330   0.642   3.490 -0.7617 -1.5031 -2.0602
19302TIP3   OH279320   5.272   6.391   1.015 -0.6552 -0.1343  0.0639
19302TIP3    H179321   5.312   6.308   1.039  0.6637  0.5558  0.2998
19302TIP3    H279322   5.342   6.441   0.973 -0.3394  2.3018  3.2509
19303TIP3   OH279323   4.490   6.276   1.331 -0.0192 -0.0199 -0.1091
19303TIP3    H179324   4.512   6.195   1.285  2.2119  0.2021  0.4898
19303TIP3    H279325   4.524   6.345   1.273 -2.0477  0.5063 -0.6938
19304TIP3   OH279326   2.354   2.084  11.215 -0.2190  0.1515 -0.1542
19304TIP3    H179327   2.268   2.051  11.239 -0.7180  1.7318  0.3372
19304TIP3    H279328   2.336   2.163  11.164  0.9198 -0.5856 -1.7474
19305TIP3   OH279329   5.105   1.603  15.810 -0.6162  0.2545 -0.3474
19305TIP3    H179330   5.082   1.510  15.811  0.0384  0.0921  0.0601
19305TIP3    H279331   5.061   1.638  15.733 -1.1220 -0.3307 -0.3248
19306TIP3   OH279332   3.688   0.438  14.158 -0.3330  0.0148  0.0081
19306TIP3    H179333   3.718   0.472  14.242 -0.8297 -0.2121  0.2756
19306TIP3    H279334   3.657   0.349  14.177 -2.2997  0.6725 -0.0399
19307TIP3   OH279335   3.933   1.635  13.404 -0.3457  0.7652 -0.6852
19307TIP3    H179336   3.846   1.608  13.433  0.0960 -1.1854 -1.0482
19307TIP3    H279337   3.987   1.631  13.483 -0.2808  0.5596 -0.7394
19308TIP3   OH279338   6.734   5.481   2.723 -0.5293 -0.1347 -0.8693
19308TIP3    H179339   6.679   5.504   2.798 -0.2876 -0.1047 -0.6985
19308TIP3    H279340   6.793   5.413   2.757 -0.1240  0.1948 -0.9069
19309TIP3   OH279341   5.731   1.154   2.720 -0.2666 -0.1777  0.7597
19309TIP3    H179342   5.765   1.068   2.699 -2.5638 -0.7337 -0.9121
19309TIP3    H279343   5.801   1.215   2.698  1.7230 -1.6469  2.8552
19310TIP3   OH279344   5.386   3.574  15.421 -0.0073 -0.3727  0.3799
19310TIP3    H179345   5.302   3.593  15.464 -1.1408 -0.6761 -1.6417
19310TIP3    H279346   5.428   3.659  15.413  0.4615 -0.3712  2.5279
19311TIP3   OH279347   0.700   2.308   5.549  0.1979 -0.6534  0.3746
19311TIP3    H179348   0.635   2.274   5.610  0.3372 -0.1100  0.8332
19311TIP3    H279349   0.764   2.352   5.604  0.4689 -0.3925 -0.1427
19312TIP3   OH279350   2.654   6.638   5.119 -0.1188 -0.3124  0.1132
19312TIP3    H179351   2.698   6.723   5.127  0.7458 -0.6168 -1.2823
19312TIP3    H279352   2.710   6.578   5.168 -0.5838 -0.1306  0.8689
19313TIP3   OH279353   2.560   1.062   0.693 -0.4205  0.8385 -0.0416
19313TIP3    H179354   2.627   1.081   0.759 -0.0874 -1.4490  0.3520
19313TIP3    H279355   2.508   0.991   0.732 -0.4305 -0.3221 -2.0666
19314TIP3   OH279356   0.846   6.050  13.804  0.0265  0.3110  0.3748
19314TIP3    H179357   0.773   6.024  13.860  1.1628 -0.6522  1.4461
19314TIP3    H279358   0.834   6.144  13.791 -1.8931  0.0195 -0.2292
19315TIP3   OH279359   3.810   1.608  13.780  0.2327 -0.3921 -0.4580
19315TIP3    H179360   3.747   1.537  13.794  2.5449 -1.7659  3.9160
19315TIP3    H279361   3.770   1.684  13.824  1.7539 -1.4142  2.8403
19316TIP3   OH279362   5.400   4.611   5.780  0.6436 -0.0765  0.5486
19316TIP3    H179363   5.320   4.660   5.794  0.7104 -0.0380  0.7961
19316TIP3    H279364   5.408   4.605   5.685  0.6931  0.4761  0.5177
19317TIP3   OH279365   5.136   3.988  12.616 -0.1602  0.3289 -0.0973
19317TIP3    H179366   5.088   4.050  12.561 -1.0940 -1.2111 -1.0584
19317TIP3    H279367   5.153   3.913  12.559  0.2966 -0.6235  1.2504
19318TIP3   OH279368   5.020   1.869  15.349 -0.3723 -0.0967  0.0022
19318TIP3    H179369   5.046   1.896  15.261 -2.6219 -0.6445 -0.8614
19318TIP3    H279370   4.954   1.934  15.376  0.7211  0.4177  1.5376
19319TIP3   OH279371   2.045   1.645  12.509  0.0575  0.4268  0.1846
19319TIP3    H179372   2.019   1.695  12.432 -2.4977 -0.2464  0.5700
19319TIP3    H279373   2.140   1.636  12.501 -0.0101  1.4868 -2.1808
19320TIP3   OH279374   4.664   3.236   3.896 -0.4414 -0.4212  0.1048
19320TIP3    H179375   4.748   3.219   3.939 -0.4347 -0.6136  0.0186
19320TIP3    H279376   4.687   3.286   3.818 -0.3477 -0.9708 -0.2229
19321TIP3   OH279377   0.454   4.335  11.223  0.0063 -0.1450  0.3128
19321TIP3    H179378   0.514   4.408  11.240 -1.3820  0.9991  0.3766
19321TIP3    H279379   0.432   4.343  11.130  0.4694 -0.9852  0.1172
19322TIP3   OH279380   0.846   3.880   1.021 -0.1460 -0.4544  0.1905
19322TIP3    H179381   0.789   3.860   1.096 -0.1585  1.6135  0.7682
19322TIP3    H279382   0.786   3.881   0.946 -0.0520 -3.0191  0.0542
19323TIP3   OH279383   2.089   1.883   2.358  0.0928  0.2540  0.1916
19323TIP3    H179384   2.039   1.962   2.376  0.9847  0.3932  2.1652
19323TIP3    H279385   2.145   1.906   2.284  0.1068  1.3540  0.5441
19324TIP3   OH279386   6.230   3.516  13.915 -0.6866  0.0564 -0.2010
19324TIP3    H179387   6.191   3.593  13.956 -1.2363 -1.3565  1.9713
19324TIP3    H279388   6.169   3.445  13.934  0.7662 -1.3073 -0.5272
19325TIP3   OH279389   1.266   2.129  11.745 -0.5564  0.5122 -0.1762
19325TIP3    H179390   1.253   2.061  11.679 -0.9621  0.8687 -0.4691
19325TIP3    H279391   1.324   2.192  11.703  0.4417 -0.0300  0.3727
19326TIP3   OH279392   5.695   0.493   5.602  0.0455  0.2440 -0.5192
19326TIP3    H179393   5.688   0.561   5.535  1.2452  2.0532  1.1205
19326TIP3    H279394   5.745   0.423   5.560  1.4629  1.6890 -1.3041
19327TIP3   OH279395   5.871   5.421   2.795  0.1218 -0.4146 -0.2259
19327TIP3    H179396   5.902   5.482   2.862  0.0240 -0.6249  0.0089
19327TIP3    H279397   5.895   5.334   2.828  0.3525 -0.5006 -0.6077
19328TIP3   OH279398   0.475   5.762   1.873  0.0426  0.5611  0.4258
19328TIP3    H179399   0.497   5.697   1.940 -3.5314  0.0226  1.1488
19328TIP3    H279400   0.399   5.808   1.907 -1.1061  1.1176 -2.7059
19329TIP3   OH279401   1.122   2.978   0.698  0.2071 -0.4678  0.0657
19329TIP3    H179402   1.045   3.035   0.698  0.3143 -0.2987  1.3233
19329TIP3    H279403   1.165   2.995   0.615 -0.0371  0.9329  0.2192
19330TIP3   OH279404   0.227   1.978   5.537  0.5756 -0.0547 -0.0180
19330TIP3    H179405   0.189   2.051   5.488 -2.5376  2.0838  5.2152
19330TIP3    H279406   0.293   2.018   5.593  2.4563 -2.1020 -0.6779
19331TIP3   OH279407   5.371   5.099  11.809  0.0653 -0.0099 -0.0364
19331TIP3    H179408   5.431   5.029  11.782 -1.1142 -0.4491 -1.5759
19331TIP3    H279409   5.396   5.174  11.755  1.1832  0.7068  1.4564
19332TIP3   OH279410   5.847   5.632  10.927 -0.6800  0.2903 -0.4293
19332TIP3    H179411   5.909   5.565  10.955 -0.6453  0.5939  0.2293
19332TIP3    H279412   5.798   5.654  11.007 -2.2186 -0.5602 -1.1062
19333TIP3   OH279413   1.323   3.698   2.154 -0.5049  0.2177  0.3085
19333TIP3    H179414   1.288   3.697   2.065 -0.1739 -1.0439  0.1759
19333TIP3    H279415   1.248   3.675   2.209 -0.2287 -1.1181  0.1493
19334TIP3   OH279416   5.774   5.077   1.344  0.1073  0.4443 -0.4035
19334TIP3    H179417   5.691   5.092   1.389  0.1557  1.2273 -0.5789
19334TIP3    H279418   5.774   4.982   1.326 -0.0201  0.1716  1.0062
19335TIP3   OH279419   0.970   5.328  11.208 -0.1501 -0.1600 -0.6131
19335TIP3    H179420   0.965   5.375  11.292 -1.3799 -0.6684 -0.3899
19335TIP3    H279421   0.893   5.272  11.207 -0.9253  0.8765 -2.7208
19336TIP3   OH279422   6.652   6.328   1.419 -0.0195  0.5479  0.1505
19336TIP3    H179423   6.643   6.251   1.475  0.9855 -2.1139 -3.1275
19336TIP3    H279424   6.746   6.345   1.415  0.0544 -0.1691 -1.7623
19337TIP3   OH279425   6.078   3.080  13.899 -0.1530  0.2777  0.9481
19337TIP3    H179426   6.134   3.050  13.970 -0.8504 -2.6253  0.3378
19337TIP3    H279427   6.126   3.056  13.819 -2.1532 -2.1780  0.4156
19338TIP3   OH279428   2.698   3.347   5.422 -0.0409 -0.1573  0.7542
19338TIP3    H179429   2.775   3.395   5.394 -0.9984  0.6650 -0.5598
19338TIP3    H279430   2.719   3.255   5.404 -0.1000  0.2312 -1.5140
19339TIP3   OH279431   5.702   0.174  11.353 -0.8009  0.4052  0.3597
19339TIP3    H179432   5.675   0.087  11.323 -0.6350  0.4107  0.1887
19339TIP3    H279433   5.629   0.206  11.406 -1.0715  0.3672  0.0122
19340TIP3   OH279434   3.280   4.392   5.326 -0.1857 -0.5506 -0.1270
19340TIP3    H179435   3.240   4.315   5.286 -0.4788 -0.8301  0.6949
19340TIP3    H279436   3.245   4.393   5.415 -0.3446  0.6501 -0.1974
19341TIP3   OH279437   5.653   1.377   5.790 -0.0058  0.2414  0.4838
19341TIP3    H179438   5.689   1.433   5.721  0.6762  0.7001  1.2059
19341TIP3    H279439   5.654   1.432   5.868  0.4439 -0.7017  1.1523
19342TIP3   OH279440   3.552   6.299  14.775 -0.1811  0.0878 -0.2318
19342TIP3    H179441   3.619   6.236  14.802  0.0241  0.5752  0.4251
19342TIP3    H279442   3.480   6.284  14.836  0.2369  1.1162  0.5384
19343TIP3   OH279443   6.040   6.164   2.475 -0.0502  0.7671 -0.1383
19343TIP3    H179444   6.119   6.215   2.492  0.5599  0.3181 -1.5616
19343TIP3    H279445   6.069   6.073   2.481  0.0694  0.5757 -2.8394
19344TIP3   OH279446   0.632   5.163  15.938 -0.3864 -0.6073  0.1964
19344TIP3    H179447   0.608   5.234  15.997  2.6280  0.9851 -0.4169
19344TIP3    H279448   0.565   5.165  15.870 -0.4632  1.4818  0.3128
19345TIP3   OH279449   2.574   3.138   2.888 -0.0197  0.0386  0.0925
19345TIP3    H179450   2.561   3.230   2.867  1.3175 -0.1593 -1.6993
19345TIP3    H279451   2.619   3.139   2.972 -0.1716  1.0120  0.1666
19346TIP3   OH279452   1.746   0.399   3.300  0.2967  0.1321  1.0695
19346TIP3    H179453   1.825   0.400   3.354  0.0142  0.2711  1.4798
19346TIP3    H279454   1.745   0.485   3.258  0.0107  0.3715  1.5723
19347TIP3   OH279455   2.549   6.248   2.423 -0.2115  0.1841 -0.0595
19347TIP3    H179456   2.612   6.311   2.388 -0.2307 -0.2180 -0.8229
19347TIP3    H279457   2.542   6.271   2.516  1.4429 -0.0781  0.1534
19348TIP3   OH279458   1.964   0.630  15.880  0.3548  0.4420 -0.5315
19348TIP3    H179459   2.057   0.631  15.858  0.9433  0.1463  1.8137
19348TIP3    H279460   1.942   0.721  15.899  0.4100  0.3719 -0.1260
19349TIP3   OH279461   5.881   4.590  12.877 -0.4061 -1.0472  0.6319
19349TIP3    H179462   5.786   4.581  12.866 -0.2424 -0.9623 -1.0447
19349TIP3    H279463   5.918   4.547  12.800  0.9299 -1.1902  1.3381
19350TIP3   OH279464   1.733   1.615   5.771 -0.1821  0.0271  0.3543
19350TIP3    H179465   1.721   1.688   5.709 -1.9830 -0.6520 -0.1248
19350TIP3    H279466   1.809   1.568   5.738 -0.3031  0.4715 -0.5684
19351TIP3   OH279467   1.518   1.215   3.109 -0.5174 -0.1069  0.4351
19351TIP3    H179468   1.530   1.309   3.123  0.5171 -0.1711 -0.0034
19351TIP3    H279469   1.569   1.196   3.030  1.3363 -1.4941  1.9118
19352TIP3   OH279470   1.841   0.571   0.395  0.4765 -0.1002  0.0302
19352TIP3    H179471   1.909   0.628   0.359 -0.3271  0.2087 -1.0195
19352TIP3    H279472   1.835   0.499   0.333 -2.0206  1.2300 -1.3258
19353TIP3   OH279473   0.768   0.263   2.072  0.7755 -0.1376 -0.3556
19353TIP3    H179474   0.752   0.306   2.157  2.9899  2.6287 -1.2721
19353TIP3    H279475   0.838   0.201   2.090 -0.0180 -0.8855  0.2160
19354TIP3   OH279476   6.127   4.308   3.991  0.2661 -0.8944 -0.2876
19354TIP3    H179477   6.212   4.331   3.953  0.7418 -2.1809 -0.0351
19354TIP3    H279478   6.148   4.266   4.074 -0.6675 -0.2984  0.2560
19355TIP3   OH279479   1.888   5.072  15.010 -0.1238  0.2276 -0.6166
19355TIP3    H179480   1.902   5.132  14.937  0.4638  0.1425 -0.5797
19355TIP3    H279481   1.923   4.988  14.979 -0.7025 -0.0282 -0.5752
19356TIP3   OH279482   0.901   5.328   0.261 -0.0642  0.3218 -0.1678
19356TIP3    H179483   0.893   5.394   0.192  0.0182  0.7245  0.1999
19356TIP3    H279484   0.994   5.328   0.283  0.1472 -0.8086 -1.0227
19357TIP3   OH279485   2.470   2.441  15.743  0.2097  0.0712 -0.4143
19357TIP3    H179486   2.415   2.449  15.821  1.2047 -1.5535  0.5098
19357TIP3    H279487   2.429   2.371  15.692  0.4228  0.0702 -0.5835
19358TIP3   OH279488   5.845   5.878   5.736 -0.2661  0.2059 -0.3688
19358TIP3    H179489   5.922   5.936   5.729 -0.3233  0.6652  2.2501
19358TIP3    H279490   5.814   5.890   5.825 -1.4550 -2.4558 -0.3689
19359TIP3   OH279491   5.125   1.900   5.348  0.3703 -0.2668 -0.0879
19359TIP3    H179492   5.085   1.913   5.434 -0.7532 -1.2466 -0.4417
19359TIP3    H279493   5.205   1.851   5.366  1.0604  1.0789  0.5641
19360TIP3   OH279494   1.086   2.238   0.517 -0.2748  0.3315 -0.2103
19360TIP3    H179495   1.176   2.226   0.487 -0.3347 -0.2071 -0.1834
19360TIP3    H279496   1.094   2.249   0.612 -0.3118 -0.6058 -0.0955
19361TIP3   OH279497   0.418   2.594  15.288 -0.0986 -0.3188  0.4467
19361TIP3    H179498   0.361   2.543  15.230 -0.7884  1.4736 -0.5005
19361TIP3    H279499   0.504   2.590  15.246 -0.1385 -0.7455  0.4039
19362TIP3   OH279500   5.163   0.482  16.700  0.0370  0.5440  0.0452
19362TIP3    H179501   5.245   0.483  16.651 -0.0345 -2.8108 -0.2354
19362TIP3    H279502   5.110   0.415  16.658 -2.2959  1.6585  1.1341
19363TIP3   OH279503   4.171   3.616   6.158 -0.2630 -0.3513 -0.1096
19363TIP3    H179504   4.160   3.642   6.250  0.6702 -0.3717  0.0190
19363TIP3    H279505   4.130   3.530   6.153  0.1153 -0.5651  0.4120
19364TIP3   OH279506   2.823   2.513  13.507  0.6015 -0.4592  0.1392
19364TIP3    H179507   2.880   2.519  13.430 -0.6187 -1.7100 -0.8818
19364TIP3    H279508   2.764   2.587  13.499  0.4816 -0.5828 -0.1296
19365TIP3   OH279509   2.856   0.223   0.543  0.7996  0.1338  0.5810
19365TIP3    H179510   2.778   0.233   0.488  0.5946 -0.6682  0.7230
19365TIP3    H279511   2.926   0.264   0.492  0.1319  1.6132  0.8192
19366TIP3   OH279512   2.534   3.859   2.217 -0.1701 -0.2074 -0.5782
19366TIP3    H179513   2.551   3.765   2.204  2.3026  0.3630 -1.8508
19366TIP3    H279514   2.620   3.899   2.212 -1.2878  2.2284 -0.7274
19367TIP3   OH279515   3.173   4.868   6.106  0.7043  0.3741  0.3215
19367TIP3    H179516   3.172   4.780   6.142  0.1383  0.5965  0.8722
19367TIP3    H279517   3.198   4.924   6.180  1.2886  0.6526 -0.0809
19368TIP3   OH279518   0.763   3.205   3.049  0.1508 -0.0201  0.1924
19368TIP3    H179519   0.824   3.252   2.992  1.5822  0.4055  2.0403
19368TIP3    H279520   0.779   3.112   3.031 -2.2626  0.0808 -3.0233
19369TIP3   OH279521   2.440   0.494   4.365  0.0657 -0.7865 -0.3249
19369TIP3    H179522   2.418   0.574   4.316 -4.6753 -2.8057 -1.8135
19369TIP3    H279523   2.481   0.437   4.299 -2.1567 -1.7966 -0.8820
19370TIP3   OH279524   6.218   2.212   2.287 -0.4390  0.3030  0.0410
19370TIP3    H179525   6.285   2.175   2.229 -0.4260 -1.2027  0.9750
19370TIP3    H279526   6.158   2.258   2.229 -0.2585 -0.9151 -1.1298
19371TIP3   OH279527   6.591   4.826   5.670  0.5014  0.1161 -0.2696
19371TIP3    H179528   6.631   4.772   5.602  0.0801 -1.2828  0.5731
19371TIP3    H279529   6.497   4.814   5.659  0.4342 -0.2349  0.6477
19372TIP3   OH279530   6.527   4.069  14.808  0.1243  0.0762  1.1708
19372TIP3    H179531   6.557   4.009  14.876 -0.3530 -1.2689  0.2078
19372TIP3    H279532   6.432   4.069  14.816  0.1443  1.1271  1.5110
19373TIP3   OH279533   6.060   5.844   0.120 -0.1272 -0.1719  0.5025
19373TIP3    H179534   6.138   5.796   0.093 -0.2729 -0.1559  0.0473
19373TIP3    H279535   5.990   5.808   0.065 -0.3938 -0.0242  0.7455
19374TIP3   OH279536   0.009   1.844  15.311  0.3441  0.2025  0.2495
19374TIP3    H179537   0.057   1.873  15.389  0.6641 -0.1761  0.1977
19374TIP3    H279538  -0.079   1.827  15.342  0.3979  0.3237  0.4705
19375TIP3   OH279539   2.746   3.097  14.287 -0.2640  0.0737  0.0099
19375TIP3    H179540   2.717   3.047  14.364  0.6806 -1.0155 -0.3267
19375TIP3    H279541   2.684   3.072  14.218 -0.5713  0.3684  0.1733
19376TIP3   OH279542   6.305   3.059   0.281  0.0348  0.4528  0.1247
19376TIP3    H179543   6.282   3.008   0.203  0.5353  0.2362  0.1196
19376TIP3    H279544   6.220   3.080   0.320 -0.2161  0.4815 -0.4214
19377TIP3   OH279545   1.209   4.321  14.628 -0.1151  0.5199 -0.6424
19377TIP3    H179546   1.135   4.283  14.580 -1.2269  0.6464  0.9682
19377TIP3    H279547   1.223   4.406  14.586 -1.1829  0.6949 -0.6575
19378TIP3   OH279548   2.583   5.667   1.517 -0.9443 -0.0023 -0.1019
19378TIP3    H179549   2.670   5.702   1.534 -1.5690  0.4533  2.4466
19378TIP3    H279550   2.595   5.603   1.448  1.4779 -0.2164  0.4874
19379TIP3   OH279551   2.430   1.567  14.954 -0.1160 -0.4388  0.6503
19379TIP3    H179552   2.415   1.492  14.896 -1.9828  0.1589  0.3622
19379TIP3    H279553   2.514   1.547  14.995  2.7971  0.4750 -4.3663
19380TIP3   OH279554   5.240   2.942   1.257 -0.1108  0.5725  0.0761
19380TIP3    H179555   5.149   2.972   1.249 -0.4440 -0.2678  0.6162
19380TIP3    H279556   5.276   2.996   1.327 -0.1651  0.9649 -0.1931
19381TIP3   OH279557   6.374   6.713  16.756 -0.4739 -0.4651  0.0640
19381TIP3    H179558   6.293   6.705  16.806  0.0266  1.9172  1.3452
19381TIP3    H279559   6.352   6.772  16.684 -0.9080 -3.0495 -2.0078
19382TIP3   OH279560   6.759   5.372   4.041  0.4145 -1.4564  0.3242
19382TIP3    H179561   6.713   5.433   4.099  1.3340 -1.1093  0.7047
19382TIP3    H279562   6.821   5.328   4.098  1.1266 -1.3252 -0.3386
19383TIP3   OH279563   3.691   1.863  15.193  1.3055 -0.6494 -0.3377
19383TIP3    H179564   3.605   1.834  15.163  0.5250  0.2496  1.0028
19383TIP3    H279565   3.691   1.958  15.182  1.5186 -0.4546  1.1230
19384TIP3   OH279566   3.773   4.517   3.370 -0.6253 -0.0041 -0.2873
19384TIP3    H179567   3.847   4.503   3.428 -1.5895 -1.9677  0.4947
19384TIP3    H279568   3.709   4.564   3.423 -2.4181 -3.7480  1.0453
19385TIP3   OH279569   2.077   1.825  15.180  0.1421  0.5529 -0.0761
19385TIP3    H179570   2.133   1.824  15.102  0.9312  0.3756  0.4938
19385TIP3    H279571   2.033   1.740  15.179 -0.8543  1.0666 -1.0512
19386TIP3   OH279572   1.029   2.550  11.034  0.6862 -0.1502  0.2567
19386TIP3    H179573   1.022   2.463  10.996  4.4049 -0.2352 -0.4684
19386TIP3    H279574   0.959   2.600  10.992  0.1302 -2.1149 -1.2348
19387TIP3   OH279575   2.313   1.597   2.178 -0.2521  0.0095 -0.0015
19387TIP3    H179576   2.311   1.665   2.112 -1.3443  0.4726  0.5021
19387TIP3    H279577   2.223   1.565   2.184  0.2684 -1.6044 -0.3551
19388TIP3   OH279578   0.642   2.927  13.728 -0.1098 -0.1051 -0.4376
19388TIP3    H179579   0.581   2.885  13.667  0.1227 -0.3752 -0.4809
19388TIP3    H279580   0.585   2.976  13.788 -0.3830 -0.5930 -0.2955
19389TIP3   OH279581   2.861   3.380   2.740  0.4860  0.2149  0.0339
19389TIP3    H179582   2.900   3.304   2.696  0.6913  0.1806  0.2755
19389TIP3    H279583   2.774   3.387   2.702 -0.3573 -1.4888  1.6058
19390TIP3   OH279584   6.055   0.394  12.375  0.9013  0.6436  0.0826
19390TIP3    H179585   5.983   0.407  12.436  1.1667 -0.9563  0.7608
19390TIP3    H279586   6.065   0.299  12.370  0.3628  0.6896 -3.0454
19391TIP3   OH279587   2.527   0.739  17.151  0.2903  0.2796  0.3017
19391TIP3    H179588   2.533   0.676  17.078  0.4993 -0.7651  1.1966
19391TIP3    H279589   2.579   0.698  17.221  0.2882  1.3867  0.9572
19392TIP3   OH279590   5.212   1.308  13.786  0.0964 -0.1843  0.0915
19392TIP3    H179591   5.180   1.256  13.860 -1.5437  1.9665  0.9588
19392TIP3    H279592   5.191   1.255  13.709  0.1749 -1.6491  1.0578
19393TIP3   OH279593   5.855   3.145   2.678  0.1737 -0.4535 -0.4892
19393TIP3    H179594   5.911   3.165   2.753 -1.1435  0.4185  0.2794
19393TIP3    H279595   5.777   3.106   2.716 -0.4632 -0.0988 -1.4160
19394TIP3   OH279596   4.449   5.114  13.573 -0.5592 -0.2124 -0.3963
19394TIP3    H179597   4.412   5.045  13.628  1.4009 -0.5006  0.5922
19394TIP3    H279598   4.435   5.194  13.622  0.4839 -0.3719  0.1683
19395TIP3   OH279599   1.754   2.256  15.772 -0.1269  0.3553  0.5631
19395TIP3    H179600   1.706   2.311  15.710  0.8048 -0.7117 -1.1255
19395TIP3    H279601   1.710   2.270  15.856 -1.9709  1.1027 -0.5189
19396TIP3   OH279602   4.792   4.199   0.770 -0.2556 -0.4444 -0.6681
19396TIP3    H179603   4.791   4.287   0.807  1.4365 -1.1966  1.2432
19396TIP3    H279604   4.715   4.157   0.807  1.3899 -1.1673  2.0170
19397TIP3   OH279605   2.922   3.324  13.568 -0.2479  0.0463 -0.0689
19397TIP3    H179606   2.919   3.358  13.479 -1.1186  0.6885  0.1951
19397TIP3    H279607   2.895   3.398  13.623 -0.1711 -0.4763  0.6843
19398TIP3   OH279608   2.601   2.645  16.616  0.7792  0.2341 -0.3672
19398TIP3    H179609   2.656   2.587  16.563  1.4881  0.0480  0.5585
19398TIP3    H279610   2.512   2.618  16.596  1.0529 -0.0935 -1.1696
19399TIP3   OH279611   2.994   5.236   2.361 -0.1538 -0.2611 -0.2159
19399TIP3    H179612   2.972   5.168   2.425  0.1182 -1.6505 -1.5639
19399TIP3    H279613   3.024   5.310   2.413 -1.5123 -0.7846  1.3348
19400TIP3   OH279614   4.655   2.075   4.034 -0.3860  0.2251 -0.2930
19400TIP3    H179615   4.625   1.998   3.986 -0.4994  1.4312 -2.2119
19400TIP3    H279616   4.579   2.133   4.036  0.1082  0.8724 -0.1159
19401TIP3   OH279617   2.169   2.423  13.134  0.5999 -0.1544 -0.0472
19401TIP3    H179618   2.178   2.328  13.136  0.4727 -0.1806 -0.4935
19401TIP3    H279619   2.078   2.439  13.157  0.4333 -0.1824 -0.6766
19402TIP3   OH279620   0.696   3.981   3.154  1.0128 -0.0439 -0.2670
19402TIP3    H179621   0.773   3.942   3.112  1.1313  1.3658 -1.3870
19402TIP3    H279622   0.672   4.054   3.097 -0.4421  0.2649  0.7132
19403TIP3   OH279623   0.299   6.253   0.287  0.2103  0.1818  0.2116
19403TIP3    H179624   0.324   6.205   0.366  0.6473  2.6576  1.6111
19403TIP3    H279625   0.380   6.262   0.237  0.2767  0.1375  0.3114
19404TIP3   OH279626   1.476   6.685  14.728 -0.4900  0.0267  0.3555
19404TIP3    H179627   1.505   6.776  14.721 -0.9714  0.3758  2.5077
19404TIP3    H279628   1.557   6.635  14.739 -0.1285  0.0212 -2.0486
19405TIP3   OH279629   3.888   4.322  13.826  0.1538  0.3413 -0.1740
19405TIP3    H179630   3.947   4.356  13.893  0.0336 -0.3220  0.2694
19405TIP3    H279631   3.842   4.400  13.794 -1.1408  0.4352  1.8347
19406TIP3   OH279632   5.876   4.067  16.522 -0.6920 -0.1849  0.5885
19406TIP3    H179633   5.872   4.034  16.612  0.9427 -1.9444  0.0621
19406TIP3    H279634   5.956   4.121  16.519  0.0800 -1.3346 -0.1544
19407TIP3   OH279635   5.695   5.763   1.665  0.0319  0.3629  0.5619
19407TIP3    H179636   5.729   5.728   1.747  2.7452 -1.9726 -1.4235
19407TIP3    H279637   5.749   5.840   1.648  0.4552  0.0137  0.2940
19408TIP3   OH279638   2.090   4.241   4.247  0.4040  0.6809 -0.1141
19408TIP3    H179639   2.150   4.276   4.312 -1.4160  1.2061  1.3260
19408TIP3    H279640   2.017   4.302   4.246 -0.7377 -0.6515 -0.8449
19409TIP3   OH279641   6.560   1.095   5.495 -0.1401 -0.0110 -0.0204
19409TIP3    H179642   6.642   1.056   5.526 -0.7494 -0.9988  0.3449
19409TIP3    H279643   6.505   1.101   5.573 -0.1240  1.4275 -0.0994
19410TIP3   OH279644   6.755   0.723   3.979  0.1337 -0.3980 -0.3194
19410TIP3    H179645   6.681   0.678   3.936 -0.2396 -0.3498  0.2718
19410TIP3    H279646   6.756   0.810   3.940  0.8756 -0.9160 -1.4944
19411TIP3   OH279647   1.194   4.726   4.042 -0.2264  0.2557  0.5048
19411TIP3    H179648   1.290   4.734   4.042 -0.2668  0.9591  1.8441
19411TIP3    H279649   1.164   4.801   4.094 -1.5235  0.2246 -0.1799
19412TIP3   OH279650   3.022   6.402   0.810  0.2383  0.0713 -0.1669
19412TIP3    H179651   3.116   6.414   0.797  0.9708 -2.4912  2.2302
19412TIP3    H279652   2.988   6.490   0.825  2.6945  0.7649  1.5452
19413TIP3   OH279653   2.202   0.164   1.557  0.1197 -0.0057  0.0764
19413TIP3    H179654   2.134   0.197   1.499  2.0049  2.1416 -1.0025
19413TIP3    H279655   2.198   0.222   1.634  0.5027 -0.0867  0.1585
19414TIP3   OH279656   5.636   0.595  12.247  0.0907  0.5864  0.0763
19414TIP3    H179657   5.681   0.596  12.332 -0.0212  1.0752  0.1309
19414TIP3    H279658   5.630   0.503  12.224 -0.7052  0.3977  1.0381
19415TIP3   OH279659   2.744   5.840   2.098  0.0222  0.3117  0.9150
19415TIP3    H179660   2.771   5.932   2.097  0.7726  0.1057  2.1699
19415TIP3    H279661   2.650   5.843   2.078  0.0378  1.3505  0.9620
19416TIP3   OH279662   3.785   3.668  11.320  0.5964  0.5533 -0.5059
19416TIP3    H179663   3.736   3.595  11.283 -2.5130  3.3327 -2.1876
19416TIP3    H279664   3.848   3.692  11.252 -1.1299  1.9091 -1.6967
19417TIP3   OH279665   6.658   3.312  10.719  0.1685  0.3184 -0.2895
19417TIP3    H179666   6.611   3.244  10.766 -0.1389  1.8039  1.6291
19417TIP3    H279667   6.720   3.347  10.784  1.4536  0.7657 -1.7299
19418TIP3   OH279668   6.444   2.183   4.912 -0.4754 -0.2712 -0.1877
19418TIP3    H179669   6.351   2.200   4.893 -1.0317 -2.0534  0.8102
19418TIP3    H279670   6.476   2.265   4.950 -1.7859  0.1864 -0.0236
19419TIP3   OH279671   3.747   1.781  12.325 -0.2897 -0.2317  0.1675
19419TIP3    H179672   3.797   1.702  12.306  1.4212  1.2633 -1.7523
19419TIP3    H279673   3.776   1.807  12.412  0.4641 -0.7177  0.0650
19420TIP3   OH279674   2.094   4.851  10.878  0.2265  0.5084 -0.4844
19420TIP3    H179675   2.177   4.821  10.841  1.1570  2.5892 -0.1477
19420TIP3    H279676   2.029   4.790  10.842  1.7568 -0.5660 -1.5215
19421TIP3   OH279677   1.104   1.699  13.571  0.2852  0.4280  0.2698
19421TIP3    H179678   1.132   1.732  13.486 -1.1043  1.7504  0.3215
19421TIP3    H279679   1.184   1.664  13.610  1.3637  1.8291 -0.6502
19422TIP3   OH279680   4.742   3.691   4.294 -0.5059 -0.1153  0.5650
19422TIP3    H179681   4.696   3.641   4.361  1.8139 -0.2356  2.1239
19422TIP3    H279682   4.778   3.625   4.234 -0.6827 -0.1178  0.4610
19423TIP3   OH279683   4.082   4.043   2.208 -0.3898  0.1584  0.7706
19423TIP3    H179684   4.099   4.081   2.122 -0.7392  0.0530  0.6523
19423TIP3    H279685   4.155   4.071   2.262  1.7002 -2.6766 -0.4687
19424TIP3   OH279686   4.679   6.640  12.499 -0.1041 -0.6154 -0.2867
19424TIP3    H179687   4.656   6.582  12.572  1.0802 -1.7845 -0.8141
19424TIP3    H279688   4.634   6.603  12.424 -1.7060  0.8651 -0.0732
19425TIP3   OH279689   1.076   0.147   2.601 -0.0821  0.0786  0.7456
19425TIP3    H179690   0.985   0.176   2.596 -0.2838 -0.7846 -0.8873
19425TIP3    H279691   1.127   0.221   2.569 -0.2659  0.2945  0.9560
19426TIP3   OH279692   0.494   4.561  13.133  0.0432  0.4097 -0.0624
19426TIP3    H179693   0.485   4.517  13.217  1.6001 -0.7539 -0.4686
19426TIP3    H279694   0.531   4.647  13.155 -1.5737  0.9524  0.6053
19427TIP3   OH279695   4.790   3.099  14.223  0.2730 -0.2255  0.0159
19427TIP3    H179696   4.702   3.081  14.188 -0.1038 -1.3582  1.5143
19427TIP3    H279697   4.821   3.015  14.256  1.2257  0.5062  1.0285
19428TIP3   OH279698   1.232   5.787   3.148 -0.5611  0.0261 -0.3741
19428TIP3    H179699   1.154   5.842   3.152  0.8393  1.9979  0.8506
19428TIP3    H279700   1.299   5.842   3.107  0.4656 -1.2803 -0.4952
19429TIP3   OH279701   2.442   2.024   1.219 -0.4409  0.2260  0.1051
19429TIP3    H179702   2.535   2.050   1.216 -0.3719 -0.0529 -0.2707
19429TIP3    H279703   2.439   1.942   1.171 -0.6221 -0.6059  1.5190
19430TIP3   OH279704   5.123   0.148  15.049 -0.0355  0.2030 -0.4914
19430TIP3    H179705   5.153   0.133  15.138 -1.0581 -1.6295 -0.4384
19430TIP3    H279706   5.159   0.075  14.998  0.3625  1.1103 -1.5553
19431TIP3   OH279707   2.770   0.148   3.317  0.0458 -0.7678  0.3089
19431TIP3    H179708   2.831   0.143   3.391  2.0592 -1.3155 -1.3288
19431TIP3    H279709   2.821   0.116   3.242 -1.9052 -0.0970 -1.3461
19432TIP3   OH279710   5.345   6.363  14.250  0.3714 -0.0253 -0.1364
19432TIP3    H179711   5.416   6.382  14.311 -0.7971 -1.1917  1.6368
19432TIP3    H279712   5.285   6.437  14.260  0.7817  0.4064 -0.8173
19433TIP3   OH279713   3.092   3.439   0.921  0.2774  0.3549  0.1965
19433TIP3    H179714   3.043   3.426   1.002 -0.1318  1.8854  0.2053
19433TIP3    H279715   3.162   3.500   0.944  0.2649  0.6578 -0.5531
19434TIP3   OH279716   2.677   4.803   2.932 -0.3147 -0.0483  0.1460
19434TIP3    H179717   2.591   4.845   2.927  1.2076  3.3185  0.7880
19434TIP3    H279718   2.677   4.760   3.018 -1.3153  0.0326  0.1976
19435TIP3   OH279719   3.753   0.846   0.780 -0.3309  0.3630 -0.3440
19435TIP3    H179720   3.733   0.802   0.697 -0.5885  0.9416 -0.5958
19435TIP3    H279721   3.672   0.837   0.831  0.5376 -1.8680  0.6995
19436TIP3   OH279722   4.710   6.154  16.363 -0.4617  0.0294  0.5114
19436TIP3    H179723   4.653   6.151  16.286  0.1597  0.2387  0.0435
19436TIP3    H279724   4.796   6.128  16.330 -0.3502 -0.5963  1.2823
19437TIP3   OH279725   0.076   0.724  15.922 -0.6725  0.7003 -0.3267
19437TIP3    H179726   0.146   0.691  15.864 -1.2972 -2.3571  0.5701
19437TIP3    H279727   0.095   0.817  15.931  1.8403  0.4283 -2.1306
19438TIP3   OH279728   5.576   1.044   5.856  0.0352  0.0725 -0.2705
19438TIP3    H179729   5.640   1.107   5.890  0.9291 -1.2044  0.4824
19438TIP3    H279730   5.499   1.097   5.835  1.8222  1.8989 -2.6359
19439TIP3   OH279731   2.110   5.597   2.560 -0.1936 -0.2730  0.1261
19439TIP3    H179732   2.193   5.573   2.518 -2.2729  1.0581 -5.0948
19439TIP3    H279733   2.125   5.687   2.591  0.8780 -0.7255  0.9776
19440TIP3   OH279734   5.515   6.243  16.155  0.4931 -0.1217  0.1186
19440TIP3    H179735   5.495   6.320  16.208  0.4047 -1.5184  2.1917
19440TIP3    H279736   5.609   6.230  16.164  0.8351  0.8337 -1.7977
19441TIP3   OH279737   5.255   0.013  12.955  0.6046 -0.0892  0.6017
19441TIP3    H179738   5.239  -0.071  12.997 -1.0550  0.0718  0.3391
19441TIP3    H279739   5.339   0.003  12.911  0.8670 -1.2919  1.3526
19442TIP3   OH279740   6.378   0.665  16.672  0.2105 -0.4011 -0.0221
19442TIP3    H179741   6.376   0.575  16.704 -2.0253  0.0346  1.2031
19442TIP3    H279742   6.375   0.719  16.752  1.9294  0.7639 -0.7202
19443TIP3   OH279743   3.642   0.268  11.273  0.1144 -0.0220 -0.0118
19443TIP3    H179744   3.710   0.296  11.211  0.0196  0.3002  0.0285
19443TIP3    H279745   3.633   0.174  11.257  0.5245 -0.0551 -0.0612
19444TIP3   OH279746   2.157   6.663   0.577 -0.3942 -0.7132  0.2858
19444TIP3    H179747   2.230   6.720   0.603 -0.2116  0.2128 -2.1067
19444TIP3    H279748   2.197   6.576   0.567 -0.3383 -0.9477  2.3384
19445TIP3   OH279749   5.358   6.091   3.042 -0.4600  0.1558  0.4064
19445TIP3    H179750   5.435   6.046   3.077 -0.2135  1.2388  1.3348
19445TIP3    H279751   5.313   6.026   2.989  1.7434 -0.1562 -1.1529
19446TIP3   OH279752   2.870   4.487  11.572 -0.2078  0.4128  0.3676
19446TIP3    H179753   2.847   4.431  11.646 -0.2038  0.8165  0.6751
19446TIP3    H279754   2.857   4.432  11.495  3.0566 -1.1542  0.8143
19447TIP3   OH279755   1.236   5.727   2.237 -0.9818  0.2322 -0.0225
19447TIP3    H179756   1.149   5.754   2.267 -1.4311  1.9274 -2.6546
19447TIP3    H279757   1.296   5.789   2.279 -0.9628 -1.1502  2.0660
19448TIP3   OH279758   2.360   3.034   6.446 -0.4402  0.0887  0.3716
19448TIP3    H179759   2.448   3.003   6.465 -0.9135 -0.6224  1.4751
19448TIP3    H279760   2.344   3.102   6.511 -1.0574 -0.4729  0.8235
19449TIP3   OH279761   0.759   6.514   2.518  0.4554 -0.0845 -0.8363
19449TIP3    H179762   0.829   6.499   2.581  0.4269  0.0557 -0.7736
19449TIP3    H279763   0.785   6.593   2.471 -0.0071  0.3622 -0.3453
19450TIP3   OH279764   4.297   1.014  11.609 -0.5708 -0.1737 -0.3244
19450TIP3    H179765   4.380   1.062  11.601 -1.9293  2.4508  0.8233
19450TIP3    H279766   4.298   0.953  11.535  0.4244  2.8897 -2.9388
19451TIP3   OH279767   5.160   0.726  13.464 -0.9787 -0.2519  0.4900
19451TIP3    H179768   5.195   0.643  13.495  1.8763  0.6076 -0.3071
19451TIP3    H279769   5.110   0.704  13.386 -1.3507 -1.3851  1.0384
19452TIP3   OH279770   6.575   4.546   3.218  0.1718  0.2180  0.7514
19452TIP3    H179771   6.626   4.465   3.230 -0.3954  0.1036  2.4785
19452TIP3    H279772   6.623   4.594   3.150  0.2000 -1.8244 -0.7498
19453TIP3   OH279773   4.879   2.116  11.686 -0.1827  0.1567 -0.2119
19453TIP3    H179774   4.887   2.178  11.759  2.2768  0.3935 -0.6355
19453TIP3    H279775   4.837   2.039  11.725  0.1962  0.6555  1.2323
19454TIP3   OH279776   3.920   0.194  16.216  0.3533 -0.0462  0.8795
19454TIP3    H179777   3.885   0.124  16.272 -0.6517  0.6578  1.1640
19454TIP3    H279778   3.852   0.207  16.150  1.2357 -0.4041 -0.1116
19455TIP3   OH279779   3.224   1.682   1.154  0.1212 -0.3160  0.4386
19455TIP3    H179780   3.251   1.665   1.064  0.5404 -1.1982  0.7286
19455TIP3    H279781   3.136   1.719   1.146  0.5797  0.6111 -0.3868
19456TIP3   OH279782   0.145   4.533   3.267 -0.2197 -1.0860 -0.4737
19456TIP3    H179783   0.202   4.601   3.232  0.1268 -0.7756  0.6675
19456TIP3    H279784   0.167   4.455   3.216  1.0981 -0.9246 -0.1796
19457TIP3   OH279785   5.120   4.177  13.885 -0.2540 -0.5683  0.4487
19457TIP3    H179786   5.118   4.190  13.980  1.0870  1.1806  0.2768
19457TIP3    H279787   5.034   4.208  13.855 -0.8518 -1.5561  1.1363
19458TIP3   OH279788   4.654   6.432  14.639 -0.5911  0.4372 -0.4009
19458TIP3    H179789   4.567   6.392  14.646 -0.9554  1.3921  0.6581
19458TIP3    H279790   4.704   6.391  14.710 -0.6482  1.0564  0.0002
19459TIP3   OH279791   2.722   2.019  14.577 -0.2011  0.0495 -0.1112
19459TIP3    H179792   2.772   2.097  14.602  0.7677 -0.4441 -0.4919
19459TIP3    H279793   2.750   1.952  14.639 -1.2332  0.0655  0.3841
19460TIP3   OH279794   4.281   5.280   6.023 -0.0978 -0.2095 -0.2421
19460TIP3    H179795   4.235   5.228   6.089  0.2991 -1.7127 -1.1442
19460TIP3    H279796   4.354   5.225   5.995  0.5005  0.9444 -1.0064
19461TIP3   OH279797   5.105   2.874   0.277  0.5275  0.1333 -0.1850
19461TIP3    H179798   5.122   2.783   0.301  0.0085 -0.0620 -0.5456
19461TIP3    H279799   5.017   2.873   0.240  0.1664  0.9418  0.6495
19462TIP3   OH279800   1.241   2.985   5.479  0.0381 -0.2927  0.4611
19462TIP3    H179801   1.267   2.957   5.567 -0.9894  0.4899  1.0138
19462TIP3    H279802   1.166   2.930   5.457 -1.2209  1.1677  1.0535
19463TIP3   OH279803   5.554   6.561  13.329 -0.1334  0.6242  0.1461
19463TIP3    H179804   5.505   6.480  13.344  1.3310 -0.1216  1.0297
19463TIP3    H279805   5.634   6.532  13.285  0.8895  1.4539  1.4412
19464TIP3   OH279806   1.847   2.455   0.581  0.1797 -0.3731  0.5873
19464TIP3    H179807   1.817   2.469   0.491 -2.3029 -0.5051  1.3735
19464TIP3    H279808   1.775   2.408   0.623  0.4532  1.5037  3.2033
19465TIP3   OH279809   0.753   2.123   4.743  0.6302 -0.3269  0.1370
19465TIP3    H179810   0.673   2.163   4.709  1.6300  1.4967 -0.1549
19465TIP3    H279811   0.739   2.117   4.838  0.8859  1.7503  0.3185
19466TIP3   OH279812   4.485   1.006  17.183  0.5372  0.0813 -0.2569
19466TIP3    H179813   4.538   1.084  17.168 -1.7936  1.5753 -1.0936
19466TIP3    H279814   4.433   0.997  17.103 -0.9812 -0.8958  0.8115
19467TIP3   OH279815   0.085   6.618  11.252 -0.0334  0.0010  0.2314
19467TIP3    H179816   0.131   6.699  11.229 -1.2866  0.2136 -1.5974
19467TIP3    H279817   0.130   6.587  11.331  1.0140  2.0206  0.4655
19468TIP3   OH279818   2.316   6.099   4.871 -0.1550 -0.3243  0.6608
19468TIP3    H179819   2.404   6.061   4.872 -0.6411 -1.4763  0.5754
19468TIP3    H279820   2.325   6.182   4.917  2.2969  2.4963 -4.4444
19469TIP3   OH279821   0.774   3.229  14.005 -0.5618 -0.4430  0.0794
19469TIP3    H179822   0.862   3.247  13.972 -0.1980 -0.0360  1.2470
19469TIP3    H279823   0.750   3.307  14.054 -1.2768 -0.8560  0.3997
19470TIP3   OH279824   0.290   4.786   4.747  0.2092  0.2167 -0.0870
19470TIP3    H179825   0.292   4.856   4.681 -0.9570  1.2333  0.9162
19470TIP3    H279826   0.197   4.778   4.769 -0.0543 -3.5592 -2.1536
19471TIP3   OH279827   2.518   6.262   6.401 -0.1051  0.6325 -0.0156
19471TIP3    H179828   2.529   6.190   6.464  0.5271  0.8183  0.0855
19471TIP3    H279829   2.446   6.314   6.437  1.4594  1.7873  1.5430
19472TIP3   OH279830   6.350   5.807   5.644 -0.0968  0.6271  0.3130
19472TIP3    H179831   6.415   5.788   5.577 -0.3382  1.6572 -0.2203
19472TIP3    H279832   6.342   5.902   5.645 -1.5323  0.5223  0.4230
19473TIP3   OH279833   5.564   0.713   1.549 -0.0059  0.0782  0.5737
19473TIP3    H179834   5.646   0.696   1.597  0.4493  0.0522 -0.2122
19473TIP3    H279835   5.503   0.647   1.583  0.1389  0.4261  1.5416
19474TIP3   OH279836   1.569   6.094  13.885 -0.1981  0.0624  0.1289
19474TIP3    H179837   1.535   6.150  13.816  0.3475 -0.9381 -0.9636
19474TIP3    H279838   1.538   6.006  13.862 -0.8112 -0.1467  1.6667
19475TIP3   OH279839   0.341   6.510  16.977 -0.0564  0.0953 -0.5394
19475TIP3    H179840   0.303   6.552  17.054 -1.7423  0.4816 -1.5674
19475TIP3    H279841   0.308   6.420  16.980 -0.3443  0.1879 -0.9629
19476TIP3   OH279842   5.697   6.003  16.942 -0.2256  0.0475  0.0197
19476TIP3    H179843   5.730   6.054  16.869 -1.1042  0.2073 -0.2689
19476TIP3    H279844   5.625   5.952  16.905  0.1072 -0.7730  0.4963
19477TIP3   OH279845   2.826   1.331  10.750 -0.2240  0.7496  0.2540
19477TIP3    H179846   2.830   1.243  10.788  0.1511  1.3683  1.7066
19477TIP3    H279847   2.735   1.342  10.723 -0.3563  0.0572  0.4117
19478TIP3   OH279848   4.158   1.778  16.868  0.2155  0.4866 -0.5694
19478TIP3    H179849   4.202   1.862  16.854  0.1122  0.3614 -1.6761
19478TIP3    H279850   4.109   1.789  16.949 -0.4262  1.7635 -1.1239
19479TIP3   OH279851   4.802   5.636  13.476 -0.1625 -0.5337 -0.1543
19479TIP3    H179852   4.755   5.583  13.539 -0.1792 -0.4453 -0.0917
19479TIP3    H279853   4.852   5.698  13.530 -1.5050  0.6750 -0.2727
19480TIP3   OH279854   0.692   3.501   1.025 -0.6534 -0.2496 -0.0038
19480TIP3    H179855   0.732   3.510   1.112 -0.6236 -0.5497  0.0156
19480TIP3    H279856   0.764   3.518   0.965  0.0921 -3.0756  0.0206
19481TIP3   OH279857   3.452   5.709  10.884 -0.2991  0.1140 -0.2689
19481TIP3    H179858   3.376   5.760  10.853 -0.2440  2.0625  2.6537
19481TIP3    H279859   3.414   5.640  10.938 -0.1166 -0.2084 -0.5557
19482TIP3   OH279860   3.122   5.420  12.387  0.0783 -0.3885 -0.3353
19482TIP3    H179861   3.134   5.374  12.470  0.8130  0.2804 -0.0637
19482TIP3    H279862   3.161   5.506  12.401 -1.1172  0.2732 -0.8939
19483TIP3   OH279863   3.097   6.107  14.427 -0.1464  0.3197  0.2458
19483TIP3    H179864   3.082   6.190  14.383 -2.4104 -0.5027 -0.6152
19483TIP3    H279865   3.010   6.068  14.436  0.6542 -1.0658  2.4139
19484TIP3   OH279866   5.697   4.294  16.541 -0.0071  0.0111 -0.0401
19484TIP3    H179867   5.775   4.244  16.517 -0.1998 -0.3803  0.1580
19484TIP3    H279868   5.630   4.228  16.556 -0.3964  0.3528 -0.2816
19485TIP3   OH279869   5.810   3.889  17.061  0.4457 -0.2831 -0.4396
19485TIP3    H179870   5.788   3.959  17.000  0.2210  0.3866  0.4087
19485TIP3    H279871   5.901   3.868  17.042  0.1435 -0.6642 -1.5741
19486TIP3   OH279872   1.078   2.455  11.416 -0.6861 -0.8230 -0.2366
19486TIP3    H179873   1.172   2.440  11.422 -0.4913  0.4922  0.0872
19486TIP3    H279874   1.047   2.450  11.506 -0.6264  0.6158 -0.1283
19487TIP3   OH279875   2.639   2.240   3.564 -0.3043  0.2951 -0.1873
19487TIP3    H179876   2.627   2.312   3.502  1.1782  0.1519 -0.6600
19487TIP3    H279877   2.551   2.202   3.574 -0.6138  0.4953 -1.9909
19488TIP3   OH279878   2.897   5.750   0.018 -0.1169  0.4899 -0.2706
19488TIP3    H179879   2.905   5.675  -0.042 -2.6805  1.0315 -1.3729
19488TIP3    H279880   2.884   5.710   0.104 -0.9076 -0.3419 -0.7625
19489TIP3   OH279881   1.629   1.611  15.156 -0.2958  0.1732  0.2713
19489TIP3    H179882   1.535   1.594  15.151 -0.3671  0.8317 -0.6967
19489TIP3    H279883   1.645   1.678  15.090  0.8406  0.1405  0.5022
19490TIP3   OH279884   6.496   2.241  16.212 -0.3099  0.1217 -0.0041
19490TIP3    H179885   6.507   2.278  16.124  0.8821  0.1001  0.1220
19490TIP3    H279886   6.403   2.253  16.232 -0.3594  1.1873 -0.7978
19491TIP3   OH279887   5.937   0.300  14.100  0.5760  0.5741  0.0584
19491TIP3    H179888   6.012   0.259  14.144  1.2907  0.5936 -1.0988
19491TIP3    H279889   5.967   0.389  14.081 -0.4042  1.1572  1.1673
19492TIP3   OH279890   4.111   2.978  11.094 -0.6821  0.0062 -0.2241
19492TIP3    H179891   4.140   2.992  11.004  0.4989  0.6648  0.2508
19492TIP3    H279892   4.175   3.025  11.147  0.2902 -2.7977  1.1261
19493TIP3   OH279893   3.806   1.024  16.846 -0.1213 -1.1098 -0.3614
19493TIP3    H179894   3.850   0.942  16.823  1.5869 -0.4052  0.3817
19493TIP3    H279895   3.822   1.081  16.771  0.9560 -0.5797  0.2601
19494TIP3   OH279896   6.255   5.678   4.339  0.1555  0.5915  0.4872
19494TIP3    H179897   6.313   5.603   4.322  1.4511  1.5357  0.6887
19494TIP3    H279898   6.303   5.753   4.304 -1.5467  1.2214 -0.5528
19495TIP3   OH279899   2.804   2.512   1.690 -0.5381 -0.1189  0.0050
19495TIP3    H179900   2.871   2.547   1.631  0.4186 -0.1388  1.0625
19495TIP3    H279901   2.753   2.589   1.716  0.8042  0.3605  1.3541
19496TIP3   OH279902   4.608   1.067   1.012 -0.9872  0.6627 -0.0740
19496TIP3    H179903   4.610   1.128   1.086 -0.9888  0.0726  0.4219
19496TIP3    H279904   4.518   1.071   0.980 -0.4903  2.3663 -1.2751
19497TIP3   OH279905   6.268   1.251  16.861 -0.0842  0.3300  0.0236
19497TIP3    H179906   6.192   1.208  16.822  0.1471 -1.7166  1.7726
19497TIP3    H279907   6.250   1.253  16.955  1.0506  1.8202  0.2494
19498TIP3   OH279908   0.359   4.576  16.775 -0.6569 -0.0886  0.3077
19498TIP3    H179909   0.263   4.584  16.776 -0.6637 -0.1735  0.3045
19498TIP3    H279910   0.386   4.619  16.694 -0.6175  0.8444  0.8032
19499TIP3   OH279911   2.251   5.536   4.342  0.3112  0.0128  0.1445
19499TIP3    H179912   2.311   5.603   4.310  0.6264  0.0708  0.8335
19499TIP3    H279913   2.304   5.483   4.401 -0.1413 -0.3605  0.2195
19500TIP3   OH279914   2.031   5.677  14.335  1.0074 -0.1736 -0.3782
19500TIP3    H179915   1.974   5.600  14.336 -0.0663  0.6275 -0.0131
19500TIP3    H279916   2.046   5.696  14.428 -0.2872  1.2198 -0.4552
19501TIP3   OH279917   0.295   5.424  13.447 -0.3871  0.7313 -0.0498
19501TIP3    H179918   0.269   5.336  13.419  2.3905 -0.3396  0.5362
19501TIP3    H279919   0.263   5.431  13.537  0.4210 -0.1635  0.3137
19502TIP3   OH279920   1.316   6.592   5.227 -0.4257 -0.3700 -0.0224
19502TIP3    H179921   1.259   6.668   5.218  0.1807  0.1469  0.4433
19502TIP3    H279922   1.340   6.569   5.138  1.0788  1.2990 -0.0957
19503TIP3   OH279923   3.709   2.142   0.840 -0.5444  0.0945  0.0424
19503TIP3    H179924   3.783   2.119   0.896  0.1899 -0.3105 -1.0741
19503TIP3    H279925   3.673   2.058   0.812  1.3787  0.2497 -3.0492
19504TIP3   OH279926   0.897   2.005   1.736 -0.1176 -0.0876 -0.2310
19504TIP3    H179927   0.879   2.009   1.642 -0.3852 -0.3648 -0.1941
19504TIP3    H279928   0.850   2.081   1.773  0.2199  0.1829 -0.3554
19505TIP3   OH279929   2.486   3.377  12.928  0.0004 -0.1457 -0.4621
19505TIP3    H179930   2.443   3.321  12.993  0.0877  1.3227  0.8938
19505TIP3    H279931   2.574   3.339  12.918 -0.1369 -0.5957  0.0267
19506TIP3   OH279932   5.469   5.698  11.937 -0.0673  0.1232  0.2649
19506TIP3    H179933   5.548   5.705  11.991  0.2888 -0.2465 -0.2019
19506TIP3    H279934   5.465   5.781  11.890  0.6682 -0.2990 -0.5519
19507TIP3   OH279935   0.947   1.321   1.927 -0.3504 -0.1182 -0.1273
19507TIP3    H179936   0.870   1.374   1.905  0.5722  1.0734 -0.4871
19507TIP3    H279937   0.943   1.247   1.866 -0.8835  0.2470 -0.5423
19508TIP3   OH279938   2.083   5.399   4.669 -0.3210 -0.5749 -0.4996
19508TIP3    H179939   2.068   5.393   4.763  1.8866 -0.1524 -0.0989
19508TIP3    H279940   2.178   5.406   4.660 -0.6624  2.3454 -2.6001
19509TIP3   OH279941   2.799   4.826  13.125  0.7623  0.4924 -0.1758
19509TIP3    H179942   2.747   4.888  13.176  0.4571 -1.6906  2.3174
19509TIP3    H279943   2.735   4.774  13.077  0.8616  0.5892 -0.4089
19510TIP3   OH279944   2.235   6.381  15.051 -0.0498  0.2011 -0.0439
19510TIP3    H179945   2.167   6.369  15.117  0.8358 -1.7972  0.5238
19510TIP3    H279946   2.187   6.385  14.968 -0.8443 -1.3212  0.3376
19511TIP3   OH279947   5.085   1.671  12.509 -0.5154  0.1241  0.5559
19511TIP3    H179948   5.039   1.613  12.570 -0.9728  0.4571  0.5313
19511TIP3    H279949   5.050   1.758  12.528 -2.2267 -0.0477 -1.6478
19512TIP3   OH279950   5.200   4.907  12.034 -0.2231  0.7855 -0.1206
19512TIP3    H179951   5.168   4.818  12.051  4.3383 -1.1300 -0.6206
19512TIP3    H279952   5.197   4.951  12.119 -2.3941  0.1445  0.1599
19513TIP3   OH279953   4.441   0.202  10.863 -0.5417 -0.7775 -0.1248
19513TIP3    H179954   4.515   0.217  10.804 -0.7592  0.5948 -0.0611
19513TIP3    H279955   4.388   0.135  10.819  0.0024 -0.7471 -0.8327
19514TIP3   OH279956   1.565   1.340  13.365 -0.0323 -0.3910 -0.3138
19514TIP3    H179957   1.655   1.373  13.358 -0.4583  0.7303 -0.5977
19514TIP3    H279958   1.562   1.296  13.450  0.4764  0.5216  0.1807
19515TIP3   OH279959   2.116   5.795  16.017  0.2321  0.4355 -0.4827
19515TIP3    H179960   2.206   5.818  15.993 -1.3989  5.0178 -2.7816
19515TIP3    H279961   2.081   5.751  15.939 -0.2637  0.8816 -0.5132
19516TIP3   OH279962   6.050   6.653  13.241 -0.0891  0.5759  0.0481
19516TIP3    H179963   6.028   6.711  13.315 -0.2665  2.3072 -1.3378
19516TIP3    H279964   6.119   6.596  13.275  0.0511  1.5585  1.4570
19517TIP3   OH279965   1.566   4.730   5.267 -0.4444 -0.2153 -0.6454
19517TIP3    H179966   1.533   4.647   5.233 -0.7172 -0.2541 -0.2968
19517TIP3    H279967   1.655   4.737   5.232 -0.3558 -0.7404 -0.5401
19518TIP3   OH279968   1.189   4.116  15.350  0.0428 -0.2306 -0.0648
19518TIP3    H179969   1.181   4.164  15.268 -1.4441  0.3106  0.3742
19518TIP3    H279970   1.227   4.179  15.411 -1.8434  0.4069  0.4935
19519TIP3   OH279971   4.663   4.942   3.561  0.1240 -0.2019  0.1907
19519TIP3    H179972   4.690   4.900   3.479  1.5380 -0.6509  0.8665
19519TIP3    H279973   4.728   5.011   3.576 -1.6709  1.6865 -0.4477
19520TIP3   OH279974   0.043   5.258  12.967  0.0948  0.1823  0.5079
19520TIP3    H179975   0.092   5.176  12.961 -0.1795  0.1757 -2.2142
19520TIP3    H279976   0.110   5.325  12.977  0.4398 -0.1489  0.4576
19521TIP3   OH279977   4.507   0.653   4.168 -0.1711 -0.0152 -0.3872
19521TIP3    H179978   4.550   0.578   4.209  0.9068 -0.3038 -2.0013
19521TIP3    H279979   4.567   0.726   4.184 -1.2770  0.5648  1.2899
19522TIP3   OH279980   3.128   0.548  14.665 -0.0582  0.1408  0.2225
19522TIP3    H179981   3.216   0.541  14.627 -0.3232  3.0282 -1.0887
19522TIP3    H279982   3.144   0.566  14.757  0.7094 -0.6220  0.2444
19523TIP3   OH279983   4.339   5.664   1.622  0.2082 -0.2397 -0.1929
19523TIP3    H179984   4.360   5.655   1.715 -0.6311 -2.4977 -0.1694
19523TIP3    H279985   4.401   5.607   1.578 -0.8854 -0.9922 -0.7902
19524TIP3   OH279986   1.111   4.870   4.718 -0.5307  0.3290 -0.1767
19524TIP3    H179987   1.028   4.917   4.714 -0.9855 -0.3981  0.6385
19524TIP3    H279988   1.111   4.829   4.804  0.4700 -0.0651 -0.3560
19525TIP3   OH279989   0.698   6.386   0.988  0.2521  0.2457  0.0071
19525TIP3    H179990   0.631   6.362   0.924 -1.0227  1.4608  0.8541
19525TIP3    H279991   0.719   6.477   0.968  0.3352  0.4215  0.8989
19526TIP3   OH279992   4.146   2.145  11.964 -0.0095 -0.0449  0.1332
19526TIP3    H179993   4.227   2.158  11.914  0.6122 -0.6382  0.9638
19526TIP3    H279994   4.176   2.136  12.055 -1.0480  0.1761  0.4952
19527TIP3   OH279995   3.109   6.664   1.526 -0.0256 -0.1466  0.4984
19527TIP3    H179996   3.073   6.711   1.601 -1.9046 -0.2628 -0.2935
19527TIP3    H279997   3.121   6.732   1.459 -0.2299 -0.3634  0.2431
19528TIP3   OH279998   2.643   2.680  16.975  0.5049 -0.6870 -0.1075
19528TIP3    H179999   2.635   2.589  16.946  3.5158 -0.7776 -0.8422
19528TIP3    H280000   2.673   2.728  16.898 -0.3500  0.8079  0.4673
19529TIP3   OH280001   4.855   3.647  13.638  0.1266  0.4556 -0.5239
19529TIP3    H180002   4.831   3.562  13.675  1.5849 -0.8143 -2.4163
19529TIP3    H280003   4.871   3.703  13.714 -2.0253 -0.5847  0.7618
19530TIP3   OH280004   0.704   2.535   5.176  0.1133 -0.3568  0.7292
19530TIP3    H180005   0.740   2.475   5.111  2.0081  0.0056  1.4019
19530TIP3    H280006   0.646   2.593   5.126  2.1950  0.4554 -0.8264
19531TIP3   OH280007   2.593   2.539  14.858 -0.0089  0.2802 -0.0823
19531TIP3    H180008   2.656   2.489  14.910  2.1983  0.3787 -2.5935
19531TIP3    H280009   2.508   2.516  14.895  1.0073 -4.4304 -0.3938
19532TIP3   OH280010   5.340   2.967  16.199  0.0723 -0.7074 -0.6294
19532TIP3    H180011   5.324   2.911  16.275 -1.3321  0.7877  0.1993
19532TIP3    H280012   5.300   2.921  16.126  0.9259 -1.8723 -0.3847
19533TIP3   OH280013   2.364   0.813   2.387  0.3839 -0.4309  0.0262
19533TIP3    H180014   2.284   0.774   2.424 -0.1292 -0.2016 -0.8421
19533TIP3    H280015   2.401   0.744   2.332  0.8020 -0.5443  0.4448
19534TIP3   OH280016   2.356   1.344   1.976 -0.6777 -0.3983  0.6699
19534TIP3    H180017   2.449   1.331   1.960 -0.6868 -0.4872  0.6878
19534TIP3    H280018   2.352   1.413   2.042 -0.6936  1.3914 -1.1460
19535TIP3   OH280019   4.616   4.827   2.385  0.3452 -0.4916 -0.7546
19535TIP3    H180020   4.683   4.836   2.318  1.1668 -0.0936  0.1165
19535TIP3    H280021   4.533   4.829   2.336  0.9693 -1.3965 -1.8683
19536TIP3   OH280022   2.372   5.791   4.218 -0.4668  0.0583  0.4137
19536TIP3    H180023   2.281   5.818   4.209 -0.7997 -0.7475  1.3458
19536TIP3    H280024   2.411   5.856   4.277 -0.7201 -0.2412  0.9118
19537TIP3   OH280025   4.931   3.155  16.848 -0.3902 -0.7641  1.1125
19537TIP3    H180026   4.856   3.173  16.792 -1.4038 -4.2520  1.2544
19537TIP3    H280027   4.995   3.114  16.790 -0.1037 -1.2506  1.7592
19538TIP3   OH280028   0.018   0.510  16.544 -0.7584  0.8830  0.4992
19538TIP3    H180029   0.049   0.507  16.454 -1.8841 -0.4634  0.1309
19538TIP3    H280030  -0.068   0.552  16.539 -1.6851 -0.9305  0.6539
19539TIP3   OH280031   2.966   1.061   4.695  0.2480 -0.2474 -0.3372
19539TIP3    H180032   2.922   1.140   4.724  0.2570 -0.4958  0.3569
19539TIP3    H280033   3.025   1.090   4.626  0.8477  0.4721  0.4757
19540TIP3   OH280034   4.493   5.672  12.089  0.5909 -0.0380 -0.6549
19540TIP3    H180035   4.581   5.635  12.093  0.0051 -1.3627  1.3193
19540TIP3    H280036   4.495   5.746  12.149  0.1122 -0.7219  0.2352
19541TIP3   OH280037   3.071   4.464  14.273  0.0473  0.3534 -0.2599
19541TIP3    H180038   3.153   4.419  14.251 -0.0565  0.5049 -0.9840
19541TIP3    H280039   3.098   4.547  14.312  0.2393 -0.1560  0.7132
19542TIP3   OH280040   1.099   6.610  11.817 -0.2271 -0.2719 -0.1861
19542TIP3    H180041   1.058   6.689  11.850 -0.1950 -0.2338 -0.2359
19542TIP3    H280042   1.069   6.540  11.875  0.6239 -0.0493  0.5371
19543TIP3   OH280043   5.027   2.910  17.190 -0.1040  0.4026 -0.4374
19543TIP3    H180044   4.991   2.951  17.268  0.3897  0.0219 -0.0099
19543TIP3    H280045   4.970   2.940  17.119 -1.0040  0.1586  0.1738
19544TIP3   OH280046   5.474   0.273   4.806 -0.0740 -0.1895 -0.2207
19544TIP3    H180047   5.498   0.309   4.892 -0.5793 -0.5814  0.0881
19544TIP3    H280048   5.552   0.226   4.777 -1.0838 -3.2345  1.7015
19545TIP3   OH280049   6.380   0.950  16.452  0.3867 -0.0800  0.0834
19545TIP3    H180050   6.307   1.002  16.486 -0.8349 -1.1459 -0.8569
19545TIP3    H280051   6.420   0.911  16.529  0.0890  0.6861  0.6287
19546TIP3   OH280052   6.603   4.829  15.513  0.1711 -0.2747 -0.0070
19546TIP3    H180053   6.624   4.911  15.470 -0.5945 -0.6160 -1.0498
19546TIP3    H280054   6.685   4.780  15.514  0.2175 -0.2172 -0.9750
19547TIP3   OH280055   6.397   1.239   3.310 -0.2799  0.1036  0.4902
19547TIP3    H180056   6.423   1.326   3.279  1.9923 -0.9426 -0.6578
19547TIP3    H280057   6.452   1.223   3.387 -0.3018 -0.5541  0.3726
19548TIP3   OH280058   2.884   4.905  11.099  0.2905  0.2959  0.2775
19548TIP3    H180059   2.960   4.961  11.117  0.4953  0.6400 -1.5545
19548TIP3    H280060   2.919   4.835  11.044 -0.5652  0.0462  0.0468
19549TIP3   OH280061   0.755   1.144   0.492 -0.2275  0.8026 -0.1597
19549TIP3    H180062   0.725   1.175   0.407 -0.9008  2.3624  0.6121
19549TIP3    H280063   0.750   1.222   0.548  0.1456 -0.2184  1.3111
19550TIP3   OH280064   1.007   1.538  12.251  0.4293 -0.1265 -0.3739
19550TIP3    H180065   1.015   1.505  12.340  2.1143 -1.4447 -0.9801
19550TIP3    H280066   1.009   1.459  12.196 -1.5393  0.5892 -1.5392
19551TIP3   OH280067   4.435   0.219  15.897 -0.2848  0.0249  0.6391
19551TIP3    H180068   4.491   0.277  15.949  0.4069 -1.6291  1.7783
19551TIP3    H280069   4.483   0.136  15.893 -1.1045 -0.3917 -1.2421
19552TIP3   OH280070   5.822   6.482   2.666  0.3951 -0.4880  0.4746
19552TIP3    H180071   5.898   6.536   2.691 -0.0528  0.2917  0.1777
19552TIP3    H280072   5.835   6.463   2.573  0.5712 -0.9183  0.5889
19553TIP3   OH280073   5.870   6.683  15.594 -0.7046  0.3157  0.0844
19553TIP3    H180074   5.842   6.766  15.630 -3.0309 -0.2978 -0.2321
19553TIP3    H280075   5.886   6.627  15.671 -1.3401  0.3702  0.2595
19554TIP3   OH280076   5.080   4.407  12.583  0.5355  0.1180 -0.1436
19554TIP3    H180077   5.009   4.366  12.634 -0.1814  1.6900  0.1654
19554TIP3    H280078   5.048   4.407  12.493  1.1709 -1.3266 -0.3765
19555TIP3   OH280079   3.187   3.803   5.502 -0.4890  0.1401 -0.0240
19555TIP3    H180080   3.242   3.747   5.559  1.4558  1.3600 -0.6577
19555TIP3    H280081   3.179   3.885   5.551 -0.4810  0.4920 -0.6187
19556TIP3   OH280082   6.295   4.433   1.163 -0.1513  0.1271  0.8433
19556TIP3    H180083   6.266   4.505   1.106  0.6465 -0.0189  0.2390
19556TIP3    H280084   6.214   4.395   1.196 -0.6053  0.7345  0.4517
19557TIP3   OH280085   5.214   5.844  16.475  0.0972  0.0807  0.3288
19557TIP3    H180086   5.236   5.752  16.490  1.2100  0.2641 -0.0919
19557TIP3    H280087   5.176   5.846  16.387  2.4436  0.3764 -0.7076
19558TIP3   OH280088   5.233   2.311  16.437 -0.2230 -0.2585 -0.0601
19558TIP3    H180089   5.158   2.360  16.402  0.1206  2.5909  2.9509
19558TIP3    H280090   5.309   2.365  16.416  0.6078 -1.4093 -0.0440
19559TIP3   OH280091   3.774   1.236   5.694 -0.0421  0.3704  0.4435
19559TIP3    H180092   3.694   1.184   5.691  0.2577 -0.0118 -1.2365
19559TIP3    H280093   3.844   1.171   5.708  0.3259  0.2845 -1.5890
19560TIP3   OH280094   6.302   5.570  14.878 -0.0830  0.2937 -0.0468
19560TIP3    H180095   6.242   5.644  14.865  0.5130  0.7115 -0.4592
19560TIP3    H280096   6.299   5.522  14.796  0.4872  0.5683 -0.2300
19561TIP3   OH280097   4.207   1.866   0.689  0.7016 -0.0786 -0.7548
19561TIP3    H180098   4.119   1.902   0.693  0.6806 -0.2206  0.2273
19561TIP3    H280099   4.196   1.772   0.702  1.1041  0.0543  0.6015
19562TIP3   OH280100   5.081   6.216   3.498 -0.2940 -0.0442 -0.6012
19562TIP3    H180101   5.069   6.147   3.433  1.7262 -1.8050  0.8045
19562TIP3    H280102   5.033   6.184   3.575  0.5790  0.1435  0.0241
19563TIP3   OH280103   6.267   1.351   4.372 -0.2763  0.5173 -0.0414
19563TIP3    H180104   6.234   1.420   4.429 -1.5834 -0.8776  0.9270
19563TIP3    H280105   6.206   1.350   4.298 -0.6029  0.0106  0.2337
19564TIP3   OH280106   5.208   4.556   4.103  0.5698 -0.2957 -0.1866
19564TIP3    H180107   5.117   4.562   4.133  0.2874  2.9166 -1.4489
19564TIP3    H280108   5.209   4.482   4.043 -1.3593 -0.0797 -0.5295
19565TIP3   OH280109   1.978   3.035   4.927 -0.0276  0.6882  0.2130
19565TIP3    H180110   1.945   3.065   4.842  1.1756 -0.0755 -0.5471
19565TIP3    H280111   1.921   3.077   4.991 -2.4247 -0.5638 -1.0385
19566TIP3   OH280112   2.459   4.290   5.487  0.2781 -0.5730 -0.7265
19566TIP3    H180113   2.439   4.233   5.561 -0.0105 -0.4825 -0.7341
19566TIP3    H280114   2.507   4.364   5.525 -1.3759  0.3432 -0.3622
19567TIP3   OH280115   2.246   4.205  13.423  0.3804  0.2050 -0.4109
19567TIP3    H180116   2.213   4.289  13.456 -0.1546 -0.3961  0.6321
19567TIP3    H280117   2.169   4.163  13.384  0.7235  0.3436 -1.2387
19568TIP3   OH280118   0.282   6.404  12.641  0.2416  0.4041 -0.3535
19568TIP3    H180119   0.274   6.491  12.601  1.6274  0.4724 -0.5040
19568TIP3    H280120   0.345   6.358  12.585 -0.2838 -0.6077 -0.1217
19569TIP3   OH280121   3.929   3.610   1.729 -0.3459  0.4492 -0.7096
19569TIP3    H180122   4.012   3.635   1.689  0.3800 -1.4878 -0.4582
19569TIP3    H280123   3.920   3.668   1.805  0.3086  1.2926 -1.2682
19570TIP3   OH280124   1.812   1.933   5.315 -0.5334 -0.0433 -1.0881
19570TIP3    H180125   1.786   1.920   5.224  0.3367 -0.6624 -1.2546
19570TIP3    H280126   1.906   1.918   5.315 -0.6711 -0.9473  0.0878
19571TIP3   OH280127   3.071   0.237  16.222  0.4021  0.4384 -0.6258
19571TIP3    H180128   3.051   0.208  16.133  2.8302 -0.0352 -1.0707
19571TIP3    H280129   3.136   0.307  16.210  0.4901  0.6084  0.7553
19572TIP3   OH280130   4.477   4.606   4.652 -0.0640 -0.5426 -0.1227
19572TIP3    H180131   4.444   4.696   4.660 -0.3375 -0.7534  1.1789
19572TIP3    H280132   4.537   4.609   4.577 -0.8444  0.4922 -0.7171
19573TIP3   OH280133   2.699   4.737   0.934 -0.4668 -0.4202 -0.0076
19573TIP3    H180134   2.692   4.645   0.908 -1.2896 -0.3233 -0.1426
19573TIP3    H280135   2.697   4.784   0.851 -3.9281 -0.0531  0.2061
19574TIP3   OH280136   3.352   6.038   5.336  0.3681 -0.1272  0.1935
19574TIP3    H180137   3.436   6.057   5.294  0.1524 -0.5666 -0.4541
19574TIP3    H280138   3.375   5.982   5.410  0.8085  1.0999  1.0052
19575TIP3   OH280139   0.728   0.421   2.296 -0.4108 -0.2794 -0.4137
19575TIP3    H180140   0.657   0.432   2.359 -1.2917 -0.5254 -1.3378
19575TIP3    H280141   0.786   0.495   2.311 -0.4337 -0.5114  0.8955
19576TIP3   OH280142   0.311   1.613  14.277  0.1092  0.6801 -0.2614
19576TIP3    H180143   0.235   1.637  14.224  0.7644  1.4037 -0.8972
19576TIP3    H280144   0.351   1.697  14.301 -0.2102  0.3579  1.4240
19577TIP3   OH280145   4.985   6.565  15.719  0.5127 -0.2068 -0.6324
19577TIP3    H180146   4.979   6.471  15.732 -0.6128  0.0292  0.6297
19577TIP3    H280147   5.037   6.575  15.640  0.8293 -1.8802 -0.6487
19578TIP3   OH280148   1.133   0.944  13.063 -0.5973  0.3522  0.0103
19578TIP3    H180149   1.226   0.928  13.073 -1.0301 -2.2645  0.0499
19578TIP3    H280150   1.123   0.973  12.972  0.1233 -0.3708 -0.3012
19579TIP3   OH280151   3.694   6.164  12.057 -0.1098  0.5538 -0.1861
19579TIP3    H180152   3.672   6.137  11.968 -0.4758 -0.4503  0.2068
19579TIP3    H280153   3.771   6.112  12.080 -0.8768 -0.2293  0.6138
19580TIP3   OH280154   0.949   2.928   6.099 -0.3971 -0.4688 -0.0248
19580TIP3    H180155   1.012   2.940   6.171 -0.3852  0.7786 -0.2282
19580TIP3    H280156   0.894   2.856   6.127  3.4284 -4.1582 -1.4546
19581TIP3   OH280157   0.642   5.128  14.492 -1.0522  0.3658  0.2393
19581TIP3    H180158   0.696   5.177  14.555  1.1823 -0.2050 -1.1777
19581TIP3    H280159   0.597   5.062  14.545  0.8998 -0.1899  1.2432
19582TIP3   OH280160   1.296   5.284  14.829 -0.3541 -0.0344 -0.7121
19582TIP3    H180161   1.248   5.297  14.910 -1.1079  0.2412 -1.2039
19582TIP3    H280162   1.252   5.210  14.786  0.5099 -0.6774 -0.5204
19583TIP3   OH280163   3.495   3.833  12.251 -0.2320  0.3815 -0.0062
19583TIP3    H180164   3.573   3.874  12.215 -1.2881  2.9021  0.4676
19583TIP3    H280165   3.517   3.813  12.342 -0.1783  1.2689  0.1814
19584TIP3   OH280166   2.238   0.217  16.409  0.2407  0.0036 -0.5526
19584TIP3    H180167   2.293   0.170  16.472  0.5689 -0.1083 -0.9253
19584TIP3    H280168   2.297   0.283  16.371  0.2942 -0.5380 -1.4213
19585TIP3   OH280169   6.325   2.546   1.541  0.1112  0.3869 -0.5290
19585TIP3    H180170   6.246   2.520   1.589 -0.6260  2.1625 -0.7571
19585TIP3    H280171   6.396   2.533   1.603 -0.2747 -1.6951 -0.4703
19586TIP3   OH280172   5.441   2.990  12.601 -0.4929 -0.3867 -0.3883
19586TIP3    H180173   5.405   3.070  12.562 -0.2123 -0.6085 -1.1104
19586TIP3    H280174   5.387   2.975  12.678 -0.1253  0.8758  0.1362
19587TIP3   OH280175   3.316   2.690   4.675  0.0678 -0.0173 -0.8839
19587TIP3    H180176   3.389   2.633   4.652  0.5822 -0.3512  1.4716
19587TIP3    H280177   3.238   2.638   4.656  0.5201 -1.1084  0.1570
19588TIP3   OH280178   4.402   5.897  12.544  0.4451  0.8361  0.0662
19588TIP3    H180179   4.442   5.835  12.605  1.2140  0.2052 -1.0736
19588TIP3    H280180   4.313   5.866  12.532  1.2200 -0.8793 -1.5680
19589TIP3   OH280181   1.043   5.047   5.320 -0.9653  0.2113 -0.0354
19589TIP3    H180182   1.019   4.977   5.381  0.1261  0.4431  0.6872
19589TIP3    H280183   1.100   5.005   5.256  1.4469  0.8452  1.6314
19590TIP3   OH280184   4.542   6.149  10.698  0.2434 -0.1070  0.5060
19590TIP3    H180185   4.633   6.117  10.703  0.5472  0.4707 -1.0329
19590TIP3    H280186   4.548   6.241  10.724  0.5137  0.6000 -1.8942
19591TIP3   OH280187   1.648   0.540  14.162  0.2809 -0.2561 -0.6733
19591TIP3    H180188   1.734   0.563  14.199  0.2395  0.4094 -0.9861
19591TIP3    H280189   1.667   0.509  14.074  0.5925 -3.7082  0.5017
19592TIP3   OH280190   5.771   2.536  11.299 -0.1451 -0.1786  0.2671
19592TIP3    H180191   5.711   2.480  11.347 -0.5459 -0.3621 -0.4441
19592TIP3    H280192   5.794   2.486  11.221  0.0947  0.3249  0.0067
19593TIP3   OH280193   3.842   2.227   0.592  0.3387 -0.3885 -0.2715
19593TIP3    H180194   3.829   2.252   0.501  0.1781 -1.0027 -0.4195
19593TIP3    H280195   3.891   2.300   0.630 -0.5820  0.4007 -0.5611
19594TIP3   OH280196   6.029   4.930   5.986 -0.1856  0.0222 -0.4803
19594TIP3    H180197   5.945   4.890   6.006 -0.2511  0.8617  1.0127
19594TIP3    H280198   6.091   4.857   5.985 -0.6241 -0.3642  0.2561
19595TIP3   OH280199   3.962   1.062   5.743 -0.4861  0.0247 -0.2645
19595TIP3    H180200   3.943   0.970   5.725  0.4853 -0.8074  2.6012
19595TIP3    H280201   4.050   1.076   5.709 -0.8538  0.0500 -1.2044
19596TIP3   OH280202   0.762   4.515   5.660  0.0286  0.0075  0.8045
19596TIP3    H180203   0.730   4.585   5.717 -0.8125  0.7663 -0.5611
19596TIP3    H280204   0.691   4.450   5.660 -0.8249  0.8968 -0.8613
19597TIP3   OH280205   3.306   3.797   5.126  0.5053  0.0158 -0.0138
19597TIP3    H180206   3.289   3.703   5.121  0.8003 -0.0396  0.0397
19597TIP3    H280207   3.343   3.810   5.213  0.6905  0.1454 -0.1117
19598TIP3   OH280208   1.770   1.848  11.730  0.1277 -0.4736 -0.4915
19598TIP3    H180209   1.852   1.897  11.739  0.9859 -1.4324 -2.7373
19598TIP3    H280210   1.786   1.766  11.776  0.6616 -0.9067 -1.4349
19599TIP3   OH280211   6.030   3.273   1.777 -0.4080 -0.0462 -0.4469
19599TIP3    H180212   6.068   3.343   1.829 -0.1182 -0.0075 -0.7133
19599TIP3    H280213   5.937   3.295   1.772  0.0468  1.5773 -2.4966
19600TIP3   OH280214   6.460   4.783  16.598  0.2770  0.2117  0.2870
19600TIP3    H180215   6.408   4.705  16.619  0.5051  0.4107  1.6221
19600TIP3    H280216   6.550   4.750  16.589  0.3908  0.3385  0.9620
19601TIP3   OH280217   4.899   6.426  12.697 -0.3985  0.1167  0.0887
19601TIP3    H180218   4.964   6.393  12.636 -0.4255  0.7373 -0.2758
19601TIP3    H280219   4.898   6.362  12.768 -2.2802 -2.0471 -1.8100
19602TIP3   OH280220   2.631   1.175  16.350 -0.4401  0.6142 -0.0321
19602TIP3    H180221   2.570   1.119  16.398  0.0497  0.4477  0.3927
19602TIP3    H280222   2.691   1.114  16.307 -0.7742  0.7680 -0.7269
19603TIP3   OH280223   2.149   0.546   1.932  0.1151 -0.7101  0.1657
19603TIP3    H180224   2.088   0.566   2.003 -0.2494 -1.0527 -0.0505
19603TIP3    H280225   2.230   0.590   1.957 -0.1236 -0.5225  0.6126
19604TIP3   OH280226   0.160   0.557   5.882 -0.4878  0.4859 -0.5796
19604TIP3    H180227   0.143   0.463   5.893  2.5074 -0.1020 -0.5671
19604TIP3    H280228   0.151   0.572   5.788 -0.4554  0.0535 -0.6557
19605TIP3   OH280229   2.952   2.296  11.647 -0.0824  0.2753  0.1399
19605TIP3    H180230   3.023   2.331  11.594  0.1190 -0.6291 -0.2022
19605TIP3    H280231   2.885   2.270  11.583  0.2745 -1.0679  0.2988
19606TIP3   OH280232   3.941   4.388  15.342  0.4363  0.2874  0.0415
19606TIP3    H180233   3.966   4.296  15.340 -0.2591  0.0970 -0.0700
19606TIP3    H280234   3.853   4.388  15.378 -0.1778  0.7683 -1.4105
19607TIP3   OH280235   4.774   2.688   2.031  0.3850  0.4713  0.7714
19607TIP3    H180236   4.862   2.656   2.052 -0.0203 -0.3964  1.1509
19607TIP3    H280237   4.729   2.613   1.993 -0.0037  1.0843  0.0110
19608TIP3   OH280238   3.069   2.242   0.291  0.1212 -0.2103 -0.0009
19608TIP3    H180239   3.098   2.163   0.245  2.7483 -0.3218  1.7415
19608TIP3    H280240   3.015   2.209   0.364  0.0423 -0.3186 -0.1090
19609TIP3   OH280241   3.990   2.126  16.716 -0.6057 -0.3958  0.2384
19609TIP3    H180242   3.897   2.109  16.730 -0.8794  1.4769  0.7732
19609TIP3    H280243   3.994   2.166  16.629 -0.2088 -1.0975 -0.0742
19610TIP3   OH280244   2.757   6.250  12.991 -0.2800  0.2268 -0.4198
19610TIP3    H180245   2.662   6.250  12.979 -0.2298  0.4065 -0.8289
19610TIP3    H280246   2.791   6.300  12.916 -0.0949  3.1015  1.5068
19611TIP3   OH280247   6.293   0.771   5.018  0.3277  0.2880  0.0318
19611TIP3    H180248   6.250   0.706   5.073  0.7772  1.2772  1.5938
19611TIP3    H280249   6.281   0.854   5.065  2.0940  0.9050 -0.5630
19612TIP3   OH280250   3.842   4.982  12.445  1.2207  0.0566 -0.0065
19612TIP3    H180251   3.886   4.938  12.371  1.5806  1.1256 -0.4421
19612TIP3    H280252   3.906   4.980  12.515  0.8200 -1.1039  0.3373
19613TIP3   OH280253   4.508   5.861  12.276 -0.1574  0.3745  0.1334
19613TIP3    H180254   4.486   5.948  12.243 -1.1200 -0.0087 -0.2604
19613TIP3    H280255   4.503   5.869  12.371  2.1546  1.3645  0.2159
19614TIP3   OH280256   5.335   0.276  13.326  0.0378 -0.6029  0.3482
19614TIP3    H180257   5.349   0.186  13.299 -2.3710 -0.8910 -0.0846
19614TIP3    H280258   5.400   0.327  13.277  2.5096 -2.2330  1.8299
19615TIP3   OH280259   6.647   0.453  13.846  0.7496 -0.2512  0.2962
19615TIP3    H180260   6.734   0.493  13.848  0.2374  0.8655  0.0813
19615TIP3    H280261   6.626   0.445  13.753  0.6701 -0.6425  0.3461
19616TIP3   OH280262   3.618   3.117  10.482  0.1141  0.3921 -0.2646
19616TIP3    H180263   3.687   3.075  10.431  1.4864  0.1138  1.7501
19616TIP3    H280264   3.659   3.196  10.518 -1.0622  0.9932 -0.1979
19617TIP3   OH280265   5.548   0.724  12.578 -0.2698 -0.4185 -0.9692
19617TIP3    H180266   5.551   0.747  12.485 -2.0674  0.9498 -0.6966
19617TIP3    H280267   5.476   0.661  12.585 -0.6780  0.1129 -0.3639
19618TIP3   OH280268   3.984   3.465   0.179 -0.5339  0.5315 -0.1887
19618TIP3    H180269   4.062   3.417   0.208 -0.1320  1.0124 -0.4900
19618TIP3    H280270   3.969   3.530   0.248 -2.3813 -1.4585  1.3641
19619TIP3   OH280271   5.611   2.315   0.493  0.2862  0.2895 -0.3529
19619TIP3    H180272   5.668   2.328   0.417  1.5398 -2.4964  0.0468
19619TIP3    H280273   5.667   2.336   0.568  0.1516 -0.3921 -0.0601
19620TIP3   OH280274   5.962   6.417   2.455  0.3389  0.0134 -0.3598
19620TIP3    H180275   5.927   6.422   2.367 -0.8497 -0.5441  0.0704
19620TIP3    H280276   5.987   6.325   2.466  1.7774  0.3668 -0.5980
19621TIP3   OH280277   2.101   3.772  14.984  0.0798 -0.0023 -0.2709
19621TIP3    H180278   2.159   3.756  15.059  1.1043 -0.5312 -1.1669
19621TIP3    H280279   2.155   3.819  14.921 -0.3869 -0.7414 -1.2325
19622TIP3   OH280280   5.472   5.065  15.173  0.1771 -0.1741  0.1934
19622TIP3    H180281   5.511   5.113  15.246 -3.5810  2.4026  0.6809
19622TIP3    H280282   5.501   5.113  15.095 -0.4905  0.6482  0.4344
19623TIP3   OH280283   4.773   6.718   4.927 -0.3701  0.3333 -0.1348
19623TIP3    H180284   4.691   6.765   4.913 -0.8310 -0.3963  0.1237
19623TIP3    H280285   4.747   6.630   4.955  0.4595 -0.4573 -1.7403
19624TIP3   OH280286   5.255   3.406   2.930 -0.4366  0.2952 -0.0867
19624TIP3    H180287   5.307   3.477   2.966  0.9899 -0.7910  0.0627
19624TIP3    H280288   5.216   3.363   3.006  0.7303 -0.5984  0.0250
19625TIP3   OH280289   0.513   6.312  12.481  0.1486 -0.8035 -0.3393
19625TIP3    H180290   0.480   6.286  12.394  2.6732 -1.1377 -1.2291
19625TIP3    H280291   0.550   6.400  12.467 -0.5696 -0.3202  0.7091
19626TIP3   OH280292   0.683   1.842  15.580 -0.9664 -0.4287 -0.2943
19626TIP3    H180293   0.766   1.794  15.584 -0.8627 -0.2707 -0.5143
19626TIP3    H280294   0.709   1.934  15.577 -1.1794 -0.3335  0.6750
19627TIP3   OH280295   6.069   6.409   5.833  0.0722 -0.3827 -0.1997
19627TIP3    H180296   6.155   6.390   5.872 -0.2465 -1.0204  0.2206
19627TIP3    H280297   6.064   6.504   5.830  1.0758 -0.3382 -0.8652
19628TIP3   OH280298   2.490   3.823  16.453  0.0336 -0.3102  0.2679
19628TIP3    H180299   2.554   3.754  16.434 -0.4426 -0.9148  0.8269
19628TIP3    H280300   2.489   3.828  16.549 -0.0540  0.3656  0.2344
19629TIP3   OH280301   2.938   1.847   1.284 -0.1946  0.1255 -0.1519
19629TIP3    H180302   2.872   1.887   1.340 -0.9083  2.1192 -2.3397
19629TIP3    H280303   3.021   1.872   1.325 -0.7211  0.4879  0.7192
19630TIP3   OH280304   3.191   1.800   3.379 -0.0390 -0.0746 -0.1885
19630TIP3    H180305   3.197   1.717   3.426  0.3256 -1.0840 -1.9685
19630TIP3    H280306   3.166   1.775   3.290  1.6580  1.5779 -1.1570
19631TIP3   OH280307   0.632   0.378  10.865 -0.1012  0.0913  0.5493
19631TIP3    H180308   0.637   0.332  10.782  0.9498  3.4045 -1.3266
19631TIP3    H280309   0.704   0.442  10.861 -0.5329  0.8471  3.6713
19632TIP3   OH280310   6.689   0.130  15.053  0.1140  0.2744 -0.3505
19632TIP3    H180311   6.756   0.160  14.992  1.3185 -3.4825 -1.0324
19632TIP3    H280312   6.731   0.136  15.139  0.1402  1.0622 -0.4206
19633TIP3   OH280313   3.490   5.181   4.047 -0.1028  0.4511 -0.2466
19633TIP3    H180314   3.510   5.233   3.969  1.7770 -2.4950 -1.7908
19633TIP3    H280315   3.546   5.218   4.115 -0.2126  1.6733 -0.7978
19634TIP3   OH280316   0.414   0.297   1.752 -0.3746 -0.3947  0.1698
19634TIP3    H180317   0.388   0.238   1.681  0.8656 -0.4164 -0.2712
19634TIP3    H280318   0.476   0.245   1.805  1.2198  0.7192 -0.5820
19635TIP3   OH280319   4.508   6.585   6.424 -0.2848 -0.3027 -0.3102
19635TIP3    H180320   4.521   6.536   6.505  1.1729  0.9790  0.2493
19635TIP3    H280321   4.566   6.543   6.361  0.7295  0.4951  0.0856
19636TIP3   OH280322   1.985   0.836   3.042 -0.2472 -0.5129  0.2839
19636TIP3    H180323   1.954   0.904   3.102  1.6074  0.6976 -0.0979
19636TIP3    H280324   2.026   0.770   3.099 -1.6319 -1.1032  0.6154
19637TIP3   OH280325   5.205   3.919   3.410  0.1738 -0.0357  0.1470
19637TIP3    H180326   5.293   3.946   3.439  0.5457 -0.0986 -0.8879
19637TIP3    H280327   5.171   3.995   3.363  0.8755 -1.0212 -2.0182
19638TIP3   OH280328   6.076   5.661  16.592 -0.4349  0.3794  0.1423
19638TIP3    H180329   6.020   5.598  16.637  0.3656 -0.9642 -0.7270
19638TIP3    H280330   6.059   5.744  16.637 -0.6679 -0.6571  2.0238
19639TIP3   OH280331   4.103   2.941  13.981 -0.4510  0.2542  0.4962
19639TIP3    H180332   4.098   2.993  14.061 -1.9082  0.7651  0.0852
19639TIP3    H280333   4.159   2.992  13.923 -0.2704  0.4057  0.8043
19640TIP3   OH280334   0.390   2.948   0.725 -0.0290  0.3473 -0.6383
19640TIP3    H180335   0.424   2.910   0.806  0.9749  0.4017 -1.0275
19640TIP3    H280336   0.298   2.922   0.723  0.2592 -0.7523 -0.1246
19641TIP3   OH280337   2.163   0.818   0.698 -0.0779 -0.2665  0.4034
19641TIP3    H180338   2.127   0.807   0.786  0.5214  0.4658  0.7389
19641TIP3    H280339   2.251   0.852   0.712 -0.2535  0.5798 -0.4898
19642TIP3   OH280340   2.813   0.808  11.538  0.0447  0.1140 -0.4556
19642TIP3    H180341   2.830   0.846  11.624  1.3279  0.6800 -0.9492
19642TIP3    H280342   2.876   0.850  11.480  0.5608 -1.7451 -1.2903
19643TIP3   OH280343   0.838   4.711   1.397 -0.3383  0.3593  0.2432
19643TIP3    H180344   0.905   4.765   1.355  1.3439 -0.4111  1.8843
19643TIP3    H280345   0.780   4.773   1.440  0.1506  0.9681  0.0240
19644TIP3   OH280346   3.477   2.503  17.235 -0.3652  0.9532 -0.1398
19644TIP3    H180347   3.454   2.411  17.224  1.3236  0.6737 -1.4842
19644TIP3    H280348   3.434   2.529  17.316 -0.1069 -1.2500  0.7314
19645TIP3   OH280349   1.572   3.833  15.246 -0.6743  0.4190 -0.0126
19645TIP3    H180350   1.493   3.787  15.273 -0.6456  0.2798 -0.1672
19645TIP3    H280351   1.644   3.774  15.269 -0.3939  1.7837  2.8692
19646TIP3   OH280352   0.086   6.018   5.970  0.4731  0.3275  0.4649
19646TIP3    H180353   0.132   5.965   6.034  0.1226  0.5927  0.9426
19646TIP3    H280354   0.025   6.071   6.022 -0.7697 -0.4239 -0.1945
19647TIP3   OH280355   1.429   2.133   5.761 -0.4152  0.1080  0.0682
19647TIP3    H180356   1.508   2.156   5.711 -0.4605 -0.3098 -0.1949
19647TIP3    H280357   1.364   2.198   5.734 -0.3131  0.1418 -0.0963
19648TIP3   OH280358   0.946   2.585   5.966  0.4508  0.6070  0.3952
19648TIP3    H180359   0.878   2.648   5.991 -0.7511  0.4392 -2.2418
19648TIP3    H280360   0.974   2.546   6.049 -2.4269  0.9440  1.6016
19649TIP3   OH280361   3.467   2.849  12.297  0.2066 -0.3617 -0.4456
19649TIP3    H180362   3.435   2.865  12.385 -1.0762  0.7946 -1.1087
19649TIP3    H280363   3.417   2.908  12.241  0.6380 -1.4257 -2.0232
19650TIP3   OH280364   5.734   6.407  16.762  0.4441 -0.2267  0.2237
19650TIP3    H180365   5.689   6.327  16.731  0.9147  0.4736 -2.3756
19650TIP3    H280366   5.691   6.427  16.845 -0.8970 -2.1889  0.0543
19651TIP3   OH280367   3.732   4.493  16.878 -0.3662  0.0531  0.4544
19651TIP3    H180368   3.721   4.415  16.933 -0.3114 -1.0595 -1.0656
19651TIP3    H280369   3.670   4.480  16.806  1.2148  0.3389 -0.9846
19652TIP3   OH280370   2.778   1.981  16.069  0.3256 -0.8416 -0.4999
19652TIP3    H180371   2.707   2.023  16.117  0.2319 -1.1021 -0.4076
19652TIP3    H280372   2.777   2.022  15.983  0.7894 -0.0496 -0.1300
19653TIP3   OH280373   6.690   0.244  12.376  0.0526  0.0600 -0.2505
19653TIP3    H180374   6.617   0.183  12.371  0.2201 -0.1189 -0.4957
19653TIP3    H280375   6.740   0.216  12.452 -1.2905  1.4581  1.1882
19654TIP3   OH280376   3.122   3.422  14.323 -0.1895  0.6445 -0.4737
19654TIP3    H180377   3.113   3.326  14.326 -2.2048  0.7580 -1.8634
19654TIP3    H280378   3.040   3.452  14.283  1.0779  2.8372 -1.5086
19655TIP3   OH280379   0.314   3.127  11.334 -0.4094  0.0416 -0.1694
19655TIP3    H180380   0.271   3.202  11.376  1.1892  0.0445  1.5226
19655TIP3    H280381   0.314   3.149  11.241  2.0660  3.2399  0.5060
19656TIP3   OH280382   2.461   4.793   5.325  0.0237  0.0668 -0.1992
19656TIP3    H180383   2.467   4.808   5.419  0.1369  0.4061 -0.2626
19656TIP3    H280384   2.398   4.857   5.294  1.5673  1.3747 -0.6896
19657TIP3   OH280385   6.301   0.955   0.989  0.2959 -0.3013 -0.1030
19657TIP3    H180386   6.249   0.909   0.923  0.7607 -0.4578 -0.3612
19657TIP3    H280387   6.265   0.925   1.072  0.5950 -1.1427 -0.2720
19658TIP3   OH280388   0.191   0.907  10.698  0.0403  0.3605 -0.1780
19658TIP3    H180389   0.232   0.873  10.619  2.7729  1.5025  0.6999
19658TIP3    H280390   0.132   0.976  10.668 -0.0718 -0.2342 -1.3331
19659TIP3   OH280391   6.654   4.340  15.847  0.2033  0.3553 -0.1610
19659TIP3    H180392   6.644   4.367  15.755 -0.7829  0.6927  0.0484
19659TIP3    H280393   6.608   4.256  15.853 -0.7985  0.9328  0.3167
19660TIP3   OH280394   3.940   2.106  17.047 -0.4863 -0.0343  0.1234
19660TIP3    H180395   4.001   2.036  17.070 -0.2178  0.3167  0.4814
19660TIP3    H280396   3.870   2.062  16.998 -0.4613 -0.5914  0.5884
19661TIP3   OH280397   4.359   3.208  11.823  0.5207 -0.0155 -0.0956
19661TIP3    H180398   4.415   3.250  11.757 -0.2252  0.6371 -0.3140
19661TIP3    H280399   4.299   3.277  11.851  0.0584 -0.6184  0.3989
19662TIP3   OH280400   5.921   3.436   4.444  0.4381 -0.2894 -0.6256
19662TIP3    H180401   6.002   3.409   4.400  0.1746  2.5864 -3.0172
19662TIP3    H280402   5.851   3.398   4.391  0.1667 -0.6443 -0.0205
19663TIP3   OH280403   0.458   4.898  15.193  0.2232  0.1761 -0.3131
19663TIP3    H180404   0.392   4.912  15.125 -0.2326  2.3720  0.5353
19663TIP3    H280405   0.408   4.875  15.271  0.5661  0.4089 -0.0261
19664TIP3   OH280406   3.583   3.438  14.081  0.3911 -0.0410 -0.1236
19664TIP3    H180407   3.634   3.399  14.153 -0.4908 -0.3999  0.3086
19664TIP3    H280408   3.498   3.395  14.086 -0.2595  1.2333 -0.2673
19665TIP3   OH280409   4.901   2.987  12.295 -0.1431  0.1018 -0.4348
19665TIP3    H180410   4.924   2.932  12.220  4.6742  3.2460 -1.5081
19665TIP3    H280411   4.936   2.939  12.370  1.2066  0.1290 -1.0174
19666TIP3   OH280412   1.460   1.190   0.623  0.1042 -0.3823  0.2016
19666TIP3    H180413   1.444   1.278   0.589  0.2058 -0.1719  0.6861
19666TIP3    H280414   1.491   1.140   0.548  0.7688  0.1912  0.0870
19667TIP3   OH280415   4.096   4.839  16.643 -0.2357  0.2887 -0.2364
19667TIP3    H180416   4.078   4.752  16.607 -1.8970  0.7063 -0.4055
19667TIP3    H280417   4.176   4.867  16.598 -0.1430 -0.7980 -0.7761
19668TIP3   OH280418   1.137   5.691  15.301  0.5174 -0.2038 -0.1179
19668TIP3    H180419   1.108   5.750  15.231  0.7587  0.1018  0.0355
19668TIP3    H280420   1.074   5.704  15.372  0.8652  0.2578  0.1132
19669TIP3   OH280421   1.025   2.769  16.494 -0.3709 -0.2311  0.0786
19669TIP3    H180422   1.024   2.861  16.470 -1.8114 -0.5170 -1.0055
19669TIP3    H280423   0.941   2.735  16.464  0.0079 -1.8235  0.7592
19670TIP3   OH280424   5.687   4.240   3.912  0.2138 -0.0062  0.0925
19670TIP3    H180425   5.753   4.267   3.848  1.8052  2.3231  2.6363
19670TIP3    H280426   5.729   4.169   3.960  0.6763  1.1248  1.3687
19671TIP3   OH280427   0.635   1.081  13.534 -0.4192  0.1145  0.6543
19671TIP3    H180428   0.669   1.110  13.619  1.1620  2.1907 -0.6474
19671TIP3    H280429   0.683   1.001  13.514  1.2284  1.1547  0.4267
19672TIP3   OH280430   4.883   5.767   1.328  0.5130  0.1777 -0.2180
19672TIP3    H180431   4.943   5.695   1.311 -0.4172 -0.4650 -0.8247
19672TIP3    H280432   4.800   5.739   1.289 -0.1563  1.0923  0.5217
19673TIP3   OH280433   5.001   2.737  16.519  0.2671 -0.5096  0.2548
19673TIP3    H180434   5.065   2.709  16.584  1.1725  1.3301  0.1698
19673TIP3    H280435   4.923   2.758  16.569  0.9052  0.7386  0.7418
19674TIP3   OH280436   1.491   0.352   6.419  0.0942  0.0578  0.0779
19674TIP3    H180437   1.421   0.293   6.450 -0.5085  0.0983 -1.1478
19674TIP3    H280438   1.447   0.436   6.405  0.7899  0.5938  1.0810
19675TIP3   OH280439   6.070   3.960   3.467  0.4876 -0.0558 -0.4355
19675TIP3    H180440   6.078   3.981   3.560 -1.2898  1.3547 -0.5627
19675TIP3    H280441   5.981   3.925   3.457  0.6690 -0.2339 -1.5750
19676TIP3   OH280442   5.946   4.912   2.444  0.0206  0.2263  0.7379
19676TIP3    H180443   5.908   4.936   2.359 -0.4816 -0.0094  0.8961
19676TIP3    H280444   5.912   4.824   2.461  0.1364  0.2670  1.1742
19677TIP3   OH280445   0.067   5.476   5.313 -0.2756  0.0072  0.3997
19677TIP3    H180446   0.109   5.524   5.385  0.6575 -1.4721  0.8537
19677TIP3    H280447   0.134   5.418   5.280 -1.0786 -0.2056 -0.8891
19678TIP3   OH280448   2.268   0.716  15.894  0.1886 -0.1899  0.0410
19678TIP3    H180449   2.301   0.802  15.870 -2.2904  0.7189 -0.2963
19678TIP3    H280450   2.285   0.709  15.988  2.3182 -0.2436 -0.3264
19679TIP3   OH280451   3.145   0.606   2.780 -0.0903 -0.8384  0.0115
19679TIP3    H180452   3.215   0.564   2.730 -0.7899 -1.3781 -0.5161
19679TIP3    H280453   3.148   0.563   2.865 -0.0715 -1.1739 -0.1583
19680TIP3   OH280454   5.803   1.220   0.242 -0.0332  0.2071 -0.2506
19680TIP3    H180455   5.732   1.217   0.306  1.6614 -0.0049  1.6414
19680TIP3    H280456   5.831   1.311   0.240 -1.4361  0.6460 -2.2659
19681TIP3   OH280457   5.650   4.115  17.202 -0.3244  0.2226  0.1368
19681TIP3    H180458   5.603   4.069  17.133  0.2435  1.3364 -1.0109
19681TIP3    H280459   5.664   4.049  17.270 -2.7705 -0.3505  0.1362
19682TIP3   OH280460   0.874   5.409   3.651  0.1033  0.5859 -0.7845
19682TIP3    H180461   0.863   5.328   3.702  1.0845 -0.3740 -2.0744
19682TIP3    H280462   0.925   5.467   3.708 -1.8833  0.8813  0.7537
19683TIP3   OH280463   0.720   2.953   2.968 -0.1675  0.1237 -0.8361
19683TIP3    H180464   0.674   2.871   2.951 -0.5616  0.1992 -0.1457
19683TIP3    H280465   0.803   2.926   3.008 -0.6364  0.0875  0.1324
19684TIP3   OH280466   0.385   3.648  17.073 -0.1277  0.7666  0.3548
19684TIP3    H180467   0.362   3.614  17.159  0.1247 -1.2121 -0.3507
19684TIP3    H280468   0.353   3.739  17.074 -0.7732  0.5313  2.2499
19685TIP3   OH280469   4.883   3.584  16.035  0.4265  0.2884 -0.4132
19685TIP3    H180470   4.857   3.675  16.049 -0.0185 -0.0908  1.4031
19685TIP3    H280471   4.978   3.586  16.038  0.4664  0.8867 -1.7307
19686TIP3   OH280472   2.650   4.929  14.875 -0.6764 -0.6528  0.1785
19686TIP3    H180473   2.728   4.912  14.822 -1.2237 -0.4598 -0.6777
19686TIP3    H280474   2.623   4.843  14.906  0.3741 -0.6440  1.2024
19687TIP3   OH280475   6.639   6.672  16.765  0.3056  0.2393 -0.2871
19687TIP3    H180476   6.545   6.691  16.771  0.6819  2.1494 -0.1750
19687TIP3    H280477   6.643   6.581  16.734 -1.5741  0.0504 -0.0404
19688TIP3   OH280478   2.797   5.876   3.178  0.0096 -0.1692 -0.1020
19688TIP3    H180479   2.758   5.963   3.169  0.7057  0.1238 -0.2540
19688TIP3    H280480   2.765   5.827   3.102  1.1085  0.5148 -1.0161
19689TIP3   OH280481   5.130   3.793   4.821 -0.2844  0.2894 -0.3652
19689TIP3    H180482   5.154   3.756   4.906 -0.7857 -1.5526 -1.0237
19689TIP3    H280483   5.214   3.812   4.778 -0.0085 -1.3686 -0.5792
19690TIP3   OH280484   3.064   5.683  16.268 -0.4512 -0.3378 -0.2448
19690TIP3    H180485   2.997   5.636  16.219  0.4105 -0.7515 -1.0318
19690TIP3    H280486   3.146   5.642  16.242  0.0974  0.0035  0.8959
19691TIP3   OH280487   3.858   3.674  15.617 -0.6808 -0.3382  0.3242
19691TIP3    H180488   3.867   3.760  15.659 -1.1229  0.0082 -0.2723
19691TIP3    H280489   3.813   3.620  15.682  2.0456 -0.9534  1.8065
19692TIP3   OH280490   3.896   4.043   4.720  0.0105  0.1983 -0.0111
19692TIP3    H180491   3.950   4.001   4.653  2.4915 -0.4699  2.3057
19692TIP3    H280492   3.808   4.049   4.681  1.3855 -0.1557 -3.2586
19693TIP3   OH280493   6.495   5.513   3.466 -1.1188  0.0139  0.3851
19693TIP3    H180494   6.572   5.473   3.427 -1.6252 -0.5117 -0.0950
19693TIP3    H280495   6.512   5.513   3.560  0.5869  2.2882  0.1026
19694TIP3   OH280496   2.874   1.886  15.600  0.1170  0.0124  0.0910
19694TIP3    H180497   2.821   1.844  15.667  1.4687  0.4979  1.4821
19694TIP3    H280498   2.953   1.832  15.594  0.8347  1.0412  0.2350
19695TIP3   OH280499   2.512   0.215   2.813  0.1169  0.2149 -0.0692
19695TIP3    H180500   2.431   0.192   2.766  0.8564 -0.1015 -1.2138
19695TIP3    H280501   2.487   0.212   2.905 -1.5280  1.4237 -0.4418
19696TIP3   OH280502   3.349   4.770  12.644 -0.3811  0.1312 -0.0293
19696TIP3    H180503   3.351   4.744  12.552  0.4457  1.3370 -0.3707
19696TIP3    H280504   3.441   4.774  12.669 -0.5692  0.7039  0.5871
19697TIP3   OH280505   5.106   6.660   1.546  0.4385  0.3136  0.9864
19697TIP3    H180506   5.200   6.651   1.527 -0.0266  0.0915 -1.3745
19697TIP3    H280507   5.089   6.754   1.540  0.1155  0.1643 -0.7240
19698TIP3   OH280508   0.576   4.638  15.190 -0.0178 -0.1154 -0.3899
19698TIP3    H180509   0.532   4.723  15.193  0.3647  0.0805 -0.2707
19698TIP3    H280510   0.661   4.656  15.150  0.5428 -0.2168  0.7291
19699TIP3   OH280511   4.348   0.315   4.834  0.7257 -0.0477 -0.3789
19699TIP3    H180512   4.360   0.389   4.775 -0.8844 -0.0828 -0.7614
19699TIP3    H280513   4.346   0.238   4.777  1.9213 -0.3487 -0.0247
19700TIP3   OH280514   4.474   4.074  15.885 -0.0708  0.1876  0.2464
19700TIP3    H180515   4.379   4.075  15.895 -0.2275 -0.1696 -1.0922
19700TIP3    H280516   4.500   3.985  15.911 -0.1639  0.1363  0.1648
19701TIP3   OH280517   0.941   0.822   4.537  0.3437 -0.2951  0.0606
19701TIP3    H180518   0.976   0.840   4.624 -1.2076  0.1041  0.6134
19701TIP3    H280519   0.912   0.907   4.504 -1.0040 -0.7597  0.0209
19702TIP3   OH280520   3.985   5.864   4.032 -0.4452 -0.4659 -0.5367
19702TIP3    H180521   4.034   5.849   4.113 -0.8204  0.1253 -0.1962
19702TIP3    H280522   3.910   5.804   4.038  0.7566 -2.1119 -1.5283
19703TIP3   OH280523   3.175   0.143  15.027 -0.1276 -0.1423  0.2329
19703TIP3    H180524   3.144   0.174  14.942  0.8066  0.4407  0.0980
19703TIP3    H280525   3.105   0.169  15.088 -0.9052 -0.7740 -0.3855
19704TIP3   OH280526   3.312   3.538   3.538 -0.1334  0.0723  0.0783
19704TIP3    H180527   3.336   3.470   3.601 -0.1942 -0.1407 -0.1236
19704TIP3    H280528   3.395   3.562   3.496  0.1677  1.4471  1.4386
19705TIP3   OH280529   3.099   2.817  14.585  0.0486 -0.3129 -0.1669
19705TIP3    H180530   3.005   2.833  14.578  0.2458  0.7943 -0.4658
19705TIP3    H280531   3.112   2.728  14.553 -1.1006 -1.0662  1.3655
19706TIP3   OH280532   1.831   2.811  10.579  0.6691 -0.0699 -0.0391
19706TIP3    H180533   1.771   2.882  10.601 -0.2123 -1.4164  1.9871
19706TIP3    H280534   1.785   2.731  10.603  2.1021 -1.2932 -1.2170
19707TIP3   OH280535   4.537   1.052  12.159 -0.1570 -0.2453  0.1080
19707TIP3    H180536   4.631   1.038  12.153 -0.0334  0.5224  0.3049
19707TIP3    H280537   4.507   1.048  12.068 -0.4450 -3.9871  0.2992
19708TIP3   OH280538   1.999   4.744   0.777  0.1370 -0.5242 -0.2608
19708TIP3    H180539   1.983   4.826   0.824 -2.3460  0.0922 -2.0540
19708TIP3    H280540   2.078   4.760   0.726 -0.4224  0.8432 -0.7241
19709TIP3   OH280541   4.285   5.079  11.680 -0.2195  0.8027  0.2985
19709TIP3    H180542   4.280   5.118  11.767 -0.5410 -0.5872  0.9001
19709TIP3    H280543   4.200   5.037  11.667 -0.2577  1.1960 -0.7774
19710TIP3   OH280544   2.464   5.579   3.146 -0.4108 -0.4247 -0.0408
19710TIP3    H180545   2.537   5.541   3.195 -1.2823 -1.1958  0.6612
19710TIP3    H280546   2.387   5.563   3.200 -0.8594  2.0927  0.1594
19711TIP3   OH280547   0.210   4.738   5.438 -0.2385  0.1079  0.0357
19711TIP3    H180548   0.141   4.672   5.448 -0.1739  0.1048  0.4320
19711TIP3    H280549   0.223   4.773   5.526 -2.8151  3.1800 -0.6716
19712TIP3   OH280550   5.842   5.541  12.308  0.4243  0.5698  0.6223
19712TIP3    H180551   5.921   5.593  12.294  1.1989 -1.2503 -2.1438
19712TIP3    H280552   5.868   5.475  12.373  1.1698 -0.0186 -0.2722
19713TIP3   OH280553   0.805   2.410   3.425  0.6067 -0.1714  0.1797
19713TIP3    H180554   0.795   2.405   3.330  1.1713  0.8342  0.0558
19713TIP3    H280555   0.779   2.500   3.447 -2.6472 -1.3248  1.3869
19714TIP3   OH280556   2.474   2.319   1.349 -0.0439 -0.0151  0.6513
19714TIP3    H180557   2.493   2.368   1.269 -2.3605  4.6286  2.6807
19714TIP3    H280558   2.558   2.315   1.395  0.6180  0.2599 -0.5122
19715TIP3   OH280559   5.921   1.591  15.858  0.2268  0.7165 -0.4634
19715TIP3    H180560   5.851   1.629  15.911  0.4368  3.1081 -1.8464
19715TIP3    H280561   5.922   1.498  15.882 -0.2165  1.5655  3.1095
19716TIP3   OH280562   0.274   0.591   0.481 -0.0798 -0.0470  0.3001
19716TIP3    H180563   0.289   0.545   0.563 -1.2814  2.4361  1.9861
19716TIP3    H280564   0.180   0.581   0.464  0.2923 -1.1690 -1.1728
19717TIP3   OH280565   3.726   4.074   5.542 -0.7713 -0.0303  0.4712
19717TIP3    H180566   3.638   4.043   5.565 -1.1515 -0.4275 -1.4500
19717TIP3    H280567   3.710   4.150   5.486  0.1244 -0.0509  0.1972
19718TIP3   OH280568   5.570   2.869   4.841  0.4272  0.6585  0.5711
19718TIP3    H180569   5.604   2.875   4.930  0.0902 -0.1657  0.7619
19718TIP3    H280570   5.623   2.931   4.790  0.4001  1.3689  1.4036
19719TIP3   OH280571   5.637   5.001  11.441  0.3237 -0.0451 -0.5732
19719TIP3    H180572   5.636   4.941  11.516  0.1007  1.4340  0.6348
19719TIP3    H280573   5.680   4.951  11.372  3.2041 -0.4321  1.4038
19720TIP3   OH280574   5.412   5.874  13.193  0.5307 -0.1544  0.1148
19720TIP3    H180575   5.403   5.953  13.247 -0.0774 -0.4392  0.4397
19720TIP3    H280576   5.385   5.802  13.251  0.9073 -0.5790 -0.2332
19721TIP3   OH280577   0.374   1.672   0.487  0.3162  0.3175  0.3735
19721TIP3    H180578   0.465   1.700   0.477  0.5140 -0.1276  0.9149
19721TIP3    H280579   0.348   1.706   0.573  0.7330 -1.5949  1.2967
19722TIP3   OH280580   5.249   2.489   5.218  0.0610 -0.9110 -0.2811
19722TIP3    H180581   5.189   2.537   5.276  1.3534  0.0323  0.3035
19722TIP3    H280582   5.271   2.552   5.150 -1.5127 -2.0408 -1.8749
19723TIP3   OH280583   5.384   0.459   5.433 -0.7277 -0.1708  0.0335
19723TIP3    H180584   5.469   0.475   5.392 -0.9764  1.9391  0.2752
19723TIP3    H280585   5.386   0.510   5.514 -1.4898 -1.6821  1.0329
19724TIP3   OH280586   2.394   4.108  16.739 -0.9024 -0.2672  0.8927
19724TIP3    H180587   2.403   4.021  16.778 -0.9131 -0.6622  0.0265
19724TIP3    H280588   2.413   4.094  16.646 -0.0078  0.8199  0.9028
19725TIP3   OH280589   5.805   2.853   3.299  0.0399  0.7995  0.4801
19725TIP3    H180590   5.731   2.802   3.268 -0.2702  0.8673  1.1075
19725TIP3    H280591   5.767   2.937   3.326  0.6595  1.7196 -1.3927
19726TIP3   OH280592   4.693   2.750  13.805 -0.3196 -0.1184 -0.3938
19726TIP3    H180593   4.757   2.712  13.745  0.2835  0.5795 -0.1996
19726TIP3    H280594   4.708   2.706  13.888 -1.1210 -1.0503 -0.7279
19727TIP3   OH280595   2.266   4.016  13.146 -0.1273  0.3595  0.4698
19727TIP3    H180596   2.241   3.993  13.057  1.1574  2.0616 -0.3645
19727TIP3    H280597   2.242   3.940  13.199  2.1111 -2.0503 -1.8354
19728TIP3   OH280598   2.200   3.068  11.335 -0.3966  0.1147  0.4023
19728TIP3    H180599   2.197   3.105  11.246  1.5232 -1.2544 -0.2656
19728TIP3    H280600   2.292   3.074  11.361 -0.0669 -3.6720  0.4246
19729TIP3   OH280601   2.424   5.214   2.965  0.4096 -0.0072 -0.2265
19729TIP3    H180602   2.511   5.245   2.939 -0.5727  2.4078 -0.7876
19729TIP3    H280603   2.367   5.290   2.952 -1.7564 -1.5047  0.3048
19730TIP3   OH280604   6.322   2.498   2.083  0.2387 -0.3401 -0.1825
19730TIP3    H180605   6.393   2.449   2.043  0.4042 -0.1175 -0.1644
19730TIP3    H280606   6.267   2.525   2.009 -0.1503 -1.0192 -0.1403
19731TIP3   OH280607   5.876   2.202   1.234 -0.1167 -0.2538 -0.1521
19731TIP3    H180608   5.967   2.173   1.236  0.4104  1.3921  0.4274
19731TIP3    H280609   5.856   2.210   1.140  1.0840  1.6108 -0.2717
19732TIP3   OH280610   5.731   1.747   2.461 -0.1158  0.3330 -0.1808
19732TIP3    H180611   5.794   1.814   2.436 -0.4528  0.5052 -0.5697
19732TIP3    H280612   5.761   1.668   2.416  0.0462  0.3223 -0.0534
19733TIP3   OH280613   6.718   0.343   1.151 -0.2282  0.1525 -0.2007
19733TIP3    H180614   6.721   0.313   1.242  2.4127 -0.4683 -0.4456
19733TIP3    H280615   6.672   0.273   1.104 -0.8128  0.0564  0.5046
19734TIP3   OH280616   6.156   3.389  13.686 -0.2177 -0.2214 -0.0333
19734TIP3    H180617   6.230   3.335  13.657 -1.0474 -1.0955 -0.5812
19734TIP3    H280618   6.191   3.442  13.757  1.0265 -0.3666 -0.5288
19735TIP3   OH280619   0.752   5.503   5.975  0.2124 -0.4696  0.5984
19735TIP3    H180620   0.756   5.590   6.013  0.2293 -0.3889  0.4119
19735TIP3    H280621   0.671   5.465   6.009 -0.1563 -0.1215  0.1196
19736TIP3   OH280622   3.943   3.036   5.056 -0.5488 -0.3283  0.3908
19736TIP3    H180623   3.940   2.945   5.026 -1.2774 -0.7093  1.5645
19736TIP3    H280624   3.869   3.078   5.014  0.9786  0.2589 -1.7786
19737TIP3   OH280625   1.759   3.667   2.361 -0.2545 -0.4011 -0.5200
19737TIP3    H180626   1.697   3.659   2.289  0.4227 -1.3645 -1.0061
19737TIP3    H280627   1.765   3.578   2.397 -0.8995  0.1531  0.9884
19738TIP3   OH280628   3.586   3.147  11.629  1.1177 -0.5128 -0.2477
19738TIP3    H180629   3.534   3.082  11.676 -1.6093  2.3836  0.8807
19738TIP3    H280630   3.630   3.097  11.560  0.2649 -3.7678  1.4480
19739TIP3   OH280631   3.065   2.017   0.131 -0.3559  0.6321  0.2997
19739TIP3    H180632   3.051   1.922   0.136 -0.4835  0.6189 -0.2712
19739TIP3    H280633   3.130   2.028   0.061 -0.7879  1.0009 -0.0459
19740TIP3   OH280634   2.598   3.130  15.101  0.2046 -0.3059 -0.3997
19740TIP3    H180635   2.615   3.201  15.039 -1.4440  0.3522 -0.1132
19740TIP3    H280636   2.607   3.171  15.188 -1.9346 -0.1234 -0.2327
19741TIP3   OH280637   1.606   6.412  14.183 -0.4323  0.3569 -0.5684
19741TIP3    H180638   1.585   6.406  14.276 -1.8455  0.5661 -0.8628
19741TIP3    H280639   1.660   6.490  14.176  1.5770 -0.9054  0.3902
19742TIP3   OH280640   3.218   3.359   5.601  0.3714  0.4584  0.6581
19742TIP3    H180641   3.260   3.285   5.644 -0.2855 -0.4353 -0.2206
19742TIP3    H280642   3.202   3.330   5.511 -0.1512  1.5531  0.3786
19743TIP3   OH280643   3.597   5.050  16.751  0.3802  0.0605  0.0908
19743TIP3    H180644   3.607   5.135  16.795  1.8378  0.0199 -0.1241
19743TIP3    H280645   3.687   5.017  16.744 -0.1403 -1.2970 -0.2280
19744TIP3   OH280646   3.199   2.205   1.572  0.4365  0.7037 -0.5066
19744TIP3    H180647   3.154   2.241   1.495 -0.0727 -1.0261 -1.0263
19744TIP3    H280648   3.237   2.282   1.615 -0.0039  1.7855 -2.0085
19745TIP3   OH280649   1.758   0.891   1.816  0.3190  0.4047  0.5215
19745TIP3    H180650   1.710   0.920   1.893  0.0012  0.5702  0.2578
19745TIP3    H280651   1.698   0.903   1.743  0.0095 -1.3230  0.4604
19746TIP3   OH280652   0.464   4.660  13.909 -0.4280  0.7156  0.1892
19746TIP3    H180653   0.467   4.711  13.828  0.0438 -0.2225 -0.3984
19746TIP3    H280654   0.373   4.668  13.939 -0.4518  1.5705 -0.1065
19747TIP3   OH280655   2.181   5.733   3.173  0.1664 -0.9904  0.1920
19747TIP3    H180656   2.276   5.721   3.167  0.3927  0.1058  1.5087
19747TIP3    H280657   2.149   5.654   3.216  0.8383 -0.0765  2.4398
19748TIP3   OH280658   0.754   6.092  11.184  0.5027 -0.1798 -0.1842
19748TIP3    H180659   0.828   6.150  11.203  0.0310  0.6942 -0.9323
19748TIP3    H280660   0.794   6.014  11.147  1.1394 -0.2665  0.6625
19749TIP3   OH280661   1.732   1.390  11.448  0.5937  0.3151  0.5051
19749TIP3    H180662   1.823   1.360  11.444  0.4143 -0.3079  0.9021
19749TIP3    H280663   1.696   1.344  11.524 -0.3424 -0.2645 -0.2781
19750TIP3   OH280664   0.337   1.138  15.169 -0.2740 -0.3513 -0.5483
19750TIP3    H180665   0.421   1.177  15.142 -0.3825  1.3547  1.3695
19750TIP3    H280666   0.271   1.195  15.131 -0.4736  0.3015  0.7341
19751TIP3   OH280667   3.562   6.553  15.215 -0.3813 -0.0266  0.0800
19751TIP3    H180668   3.617   6.616  15.170 -0.6269  0.6113  0.6669
19751TIP3    H280669   3.473   6.572  15.184 -0.7427  1.3084  1.8096
19752TIP3   OH280670   2.261   6.437   0.883 -0.1075  0.3745  0.7951
19752TIP3    H180671   2.287   6.398   0.799  0.0147  0.6028  0.7251
19752TIP3    H280672   2.342   6.439   0.934  0.3718  2.5212  0.0070
19753TIP3   OH280673   3.879   0.950   5.078  0.4981 -0.0143 -0.4735
19753TIP3    H180674   3.897   1.039   5.109 -0.8912  0.3814 -0.7520
19753TIP3    H280675   3.786   0.937   5.098  0.9569 -1.8233  0.5658
19754TIP3   OH280676   1.140   6.588   0.588  0.0797  0.2280  0.0678
19754TIP3    H180677   1.056   6.628   0.562  0.0923  0.9216  1.0486
19754TIP3    H280678   1.183   6.566   0.506  0.5608  3.3098 -0.5529
19755TIP3   OH280679   6.345   4.416  16.456  0.3114  0.0073 -0.1247
19755TIP3    H180680   6.344   4.349  16.386  3.4148 -0.4098  0.1411
19755TIP3    H280681   6.402   4.485  16.422 -2.5599  2.4180 -0.2283
19756TIP3   OH280682   5.198   0.000  13.979  0.0465 -0.1910  0.4117
19756TIP3    H180683   5.173   0.091  13.997 -1.8098 -0.7451  0.7116
19756TIP3    H280684   5.116  -0.043  13.954  1.1343 -1.4763 -1.0285
19757TIP3   OH280685   3.417   3.461   5.855  0.1825  0.0322 -0.3176
19757TIP3    H180686   3.418   3.370   5.884 -0.0526 -0.3917 -1.5988
19757TIP3    H280687   3.496   3.499   5.894 -1.8673  0.4491  3.7195
19758TIP3   OH280688   5.926   4.524   2.015 -0.1761  0.2439  0.6200
19758TIP3    H180689   5.947   4.449   2.071 -0.7103 -0.6072 -0.3088
19758TIP3    H280690   5.831   4.534   2.023 -0.2244  0.2449  0.0214
19759TIP3   OH280691   1.660   3.434   3.124 -0.1816 -0.2979 -0.5095
19759TIP3    H180692   1.747   3.404   3.151 -0.2984  0.5464  0.8467
19759TIP3    H280693   1.620   3.467   3.205 -1.4930 -0.0311 -1.2582
19760TIP3   OH280694   0.218   6.304   2.885  0.3961 -0.5524 -0.0877
19760TIP3    H180695   0.123   6.302   2.895  0.2165 -0.2769 -1.6585
19760TIP3    H280696   0.243   6.392   2.911  0.4893 -1.2539  2.3704
19761TIP3   OH280697   2.036   5.671  14.639  0.1572 -1.0361 -0.0492
19761TIP3    H180698   1.964   5.729  14.664 -0.6475 -2.2964  0.5808
19761TIP3    H280699   2.007   5.584  14.665  1.4522 -1.7014 -0.7957
19762TIP3   OH280700   4.417   4.679  15.191 -0.5526 -0.5404  0.7654
19762TIP3    H180701   4.329   4.662  15.223 -0.5327  0.5434  1.4108
19762TIP3    H280702   4.412   4.660  15.097 -1.1457 -1.6636  1.0080
19763TIP3   OH280703   2.052   2.265   0.572 -0.1957  0.1167 -0.0435
19763TIP3    H180704   2.025   2.176   0.548  2.2161 -0.8244  0.6188
19763TIP3    H280705   1.971   2.315   0.571 -1.7849 -2.3421  0.7184
19764TIP3   OH280706   0.403   0.888   1.363  0.4293 -0.2885 -0.2652
19764TIP3    H180707   0.389   0.917   1.272  0.4107 -1.5194 -0.6665
19764TIP3    H280708   0.407   0.793   1.357 -0.3345 -0.4199  1.1443
19765TIP3   OH280709   1.476   2.304   3.492  0.2351 -0.4422  0.0101
19765TIP3    H180710   1.442   2.277   3.577  0.7107 -1.0545  0.0095
19765TIP3    H280711   1.549   2.245   3.475 -0.1385 -0.6187 -1.0303
19766TIP3   OH280712   4.005   4.165  13.500 -0.6597  0.1970  0.3198
19766TIP3    H180713   4.060   4.089  13.485 -2.3974 -1.1767  0.8270
19766TIP3    H280714   3.930   4.153  13.442  0.3737  2.9614 -1.7408
19767TIP3   OH280715   3.065   5.555   6.292 -0.4412  0.4690 -0.0488
19767TIP3    H180716   3.005   5.612   6.340 -1.4899  0.6909 -1.5604
19767TIP3    H280717   3.145   5.606   6.283 -1.1372  1.4674 -0.7895
19768TIP3   OH280718   6.767   5.222  17.083  0.5707  0.1568  0.0785
19768TIP3    H180719   6.787   5.216  17.176 -0.3404 -2.2213  0.1740
19768TIP3    H280720   6.828   5.160  17.042 -2.6597 -2.9827 -0.2366
19769TIP3   OH280721   3.580   2.811  15.755  0.0995 -0.2901  0.3066
19769TIP3    H180722   3.516   2.865  15.801 -1.1338 -0.6008 -0.9948
19769TIP3    H280723   3.527   2.756  15.697  1.4986 -1.1581 -0.1736
19770TIP3   OH280724   5.433   1.673   2.571 -0.4171  0.0644 -0.3074
19770TIP3    H180725   5.447   1.761   2.536  0.3069 -0.1046 -0.4619
19770TIP3    H280726   5.353   1.679   2.622 -0.9869  0.5438 -1.2528
19771TIP3   OH280727   1.837   3.371   3.706  0.0924 -0.3074  0.2167
19771TIP3    H180728   1.825   3.401   3.796 -0.6597  1.0564 -0.3168
19771TIP3    H280729   1.754   3.330   3.683 -0.3082  0.8582 -0.4159
19772TIP3   OH280730   3.027   1.944   0.676  0.3222 -0.1511 -0.0968
19772TIP3    H180731   2.993   1.879   0.615 -0.9595 -2.1544  2.6292
19772TIP3    H280732   2.951   1.969   0.728  1.1572  2.3534 -0.0307
19773TIP3   OH280733   6.759   3.017  11.288  0.2447  0.4254  0.1040
19773TIP3    H180734   6.807   2.934  11.295  0.3631  0.4518 -0.3523
19773TIP3    H280735   6.748   3.030  11.193 -0.0382  0.7797  0.1840
19774TIP3   OH280736   3.918   4.405  16.547  0.0727  0.1964 -0.1182
19774TIP3    H180737   3.877   4.409  16.634  0.6436 -0.9396  0.2134
19774TIP3    H280738   3.845   4.393  16.487 -0.1552 -1.2709  0.4219
19775TIP3   OH280739   6.248   2.135   5.817 -0.2856  0.2733 -0.0031
19775TIP3    H180740   6.312   2.143   5.887  0.3952 -0.6016 -0.5040
19775TIP3    H280741   6.163   2.145   5.860  0.1824  1.3726  0.6760
19776TIP3   OH280742   5.521   6.210  12.679  0.2272 -0.4088  0.1905
19776TIP3    H180743   5.601   6.177  12.639  1.0226  1.3830  0.2778
19776TIP3    H280744   5.479   6.261  12.609 -0.7766 -1.2174  0.1886
19777TIP3   OH280745   5.705   2.367  14.005  0.6326  0.3269  0.1466
19777TIP3    H180746   5.710   2.274  13.983  0.8727  0.5011 -0.5299
19777TIP3    H280747   5.677   2.409  13.924  0.8169  0.8807  0.3709
19778TIP3   OH280748   0.350   2.961  16.292 -0.0945 -0.3836  0.1700
19778TIP3    H180749   0.419   2.927  16.235  2.4003  1.9601  1.7031
19778TIP3    H280750   0.396   2.998  16.367 -3.0145  1.5088  1.1247
19779TIP3   OH280751   6.446   1.145  15.911  0.0388  0.0038  0.1977
19779TIP3    H180752   6.445   1.212  15.980 -0.4890  1.9416 -1.6359
19779TIP3    H280753   6.455   1.063  15.958 -0.5079  1.2684  2.6045
19780TIP3   OH280754   4.685   1.243  11.955  0.4268 -0.1511  0.3647
19780TIP3    H180755   4.774   1.241  11.990  1.3926 -0.5579 -2.0342
19780TIP3    H280756   4.680   1.325  11.906 -0.0976 -0.7306 -0.5665
19781TIP3   OH280757   3.279   3.075   2.468  0.4271 -0.4866 -0.2471
19781TIP3    H180758   3.199   3.033   2.500  0.3017  0.5760  0.8467
19781TIP3    H280759   3.321   3.109   2.547  1.4603 -0.1641 -0.9319
19782TIP3   OH280760   4.591   1.464   5.398 -0.0211 -0.0538  0.3822
19782TIP3    H180761   4.540   1.505   5.468  1.3131 -0.2159  1.4833
19782TIP3    H280762   4.665   1.524   5.384  0.3075 -0.5650 -0.1084
19783TIP3   OH280763   1.574   5.367  11.131 -0.1292  0.5478  0.5138
19783TIP3    H180764   1.656   5.321  11.153 -0.0024 -0.1000 -1.2164
19783TIP3    H280765   1.602   5.453  11.103 -0.1073  0.5767  0.6214
19784TIP3   OH280766   5.516   6.405  16.401  1.0086  0.3806 -0.6401
19784TIP3    H180767   5.468   6.470  16.451  0.4860  0.4412 -1.2233
19784TIP3    H280768   5.519   6.328  16.458 -0.6714  0.0287 -1.0138
19785TIP3   OH280769   3.563   6.301   3.905 -0.1187  0.4447 -0.1132
19785TIP3    H180770   3.619   6.296   3.982  1.6561 -0.8419 -1.4687
19785TIP3    H280771   3.604   6.367   3.849  0.1838 -0.6724 -1.2160
19786TIP3   OH280772   1.740   4.318   2.722 -0.0084  0.2954 -0.7702
19786TIP3    H180773   1.648   4.333   2.701 -0.1157  0.5560 -0.1122
19786TIP3    H280774   1.785   4.393   2.684  0.1570 -0.7276 -2.6702
19787TIP3   OH280775   0.966   2.164  15.841  0.0267 -0.0727  0.5571
19787TIP3    H180776   1.038   2.199  15.893  0.5674  3.1395 -2.2061
19787TIP3    H280777   0.888   2.208  15.876 -0.1525 -0.9550  1.2803
19788TIP3   OH280778   0.923   2.565   4.892 -0.0595 -0.6575  0.2386
19788TIP3    H180779   0.831   2.587   4.906 -0.6725 -2.3720 -0.8597
19788TIP3    H280780   0.969   2.603   4.967 -1.5850  0.6292  0.5556
19789TIP3   OH280781   6.193   2.982  13.643  0.2710  0.2132  0.0128
19789TIP3    H180782   6.156   2.894  13.636  0.0241  0.2604  0.7297
19789TIP3    H280783   6.284   2.972  13.616  0.4273 -0.3948  0.7638
19790TIP3   OH280784   1.101   0.658  15.592 -0.0921 -0.1645  0.0872
19790TIP3    H180785   1.112   0.573  15.549 -0.4751 -0.4310  0.5114
19790TIP3    H280786   1.012   0.655  15.628  0.1074  0.1849  0.6129
19791TIP3   OH280787   2.589   3.912  14.931 -1.1234 -0.1867 -0.0956
19791TIP3    H180788   2.574   3.875  14.845 -0.6992 -0.9401  0.1490
19791TIP3    H280789   2.646   3.988  14.915 -0.9291 -0.4097 -0.4644
19792TIP3   OH280790   5.714   6.143  11.777 -0.1218 -0.0645 -0.0480
19792TIP3    H180791   5.714   6.073  11.711  0.3999 -0.6299  0.5328
19792TIP3    H280792   5.747   6.220  11.731 -1.7017  0.0867 -0.9792
19793TIP3   OH280793   2.955   5.050   1.516  0.1363 -0.4045  0.3757
19793TIP3    H180794   2.995   4.965   1.497  1.7355  0.7395 -1.5059
19793TIP3    H280795   2.915   5.039   1.603  1.2936 -2.7196  0.6402
19794TIP3   OH280796   5.053   1.717   3.156 -1.0567  0.2292 -0.3669
19794TIP3    H180797   5.121   1.731   3.222 -0.2833 -0.8719 -0.9182
19794TIP3    H280798   5.035   1.623   3.160 -0.0971 -0.0791 -2.5899
19795TIP3   OH280799   4.658   2.339  11.269 -0.4716  0.4807 -0.4525
19795TIP3    H180800   4.580   2.284  11.263  1.0886 -1.8600  0.1104
19795TIP3    H280801   4.656   2.393  11.189 -2.5831  0.4069 -0.4863
19796TIP3   OH280802   3.733   5.362  11.701 -0.5805  0.5366 -0.5401
19796TIP3    H180803   3.814   5.314  11.686 -0.5471  0.9950 -1.8607
19796TIP3    H280804   3.734   5.382  11.794  0.2992 -0.3987 -0.3406
19797TIP3   OH280805   6.665   6.016  11.638 -0.2684 -0.0204  0.3951
19797TIP3    H180806   6.593   6.073  11.663 -0.9969 -1.0561  0.6949
19797TIP3    H280807   6.624   5.941  11.596  0.5478 -1.0416  1.3629
19798TIP3   OH280808   4.061   1.747  12.071 -0.0675  0.2734  0.0919
19798TIP3    H180809   4.038   1.661  12.037  0.2286  0.1200  0.2762
19798TIP3    H280810   4.157   1.749  12.068  0.0744 -0.4857  2.7171
19799TIP3   OH280811   1.046   6.189   5.054  0.2747  0.6176  0.0034
19799TIP3    H180812   1.100   6.266   5.036  0.3056  0.6824  0.3696
19799TIP3    H280813   1.089   6.118   5.007  1.4347  0.3963  1.3448
19800TIP3   OH280814   1.762   0.349  11.008  0.3872  0.5895  0.3441
19800TIP3    H180815   1.838   0.396  10.973  0.8487 -0.9993 -0.8375
19800TIP3    H280816   1.687   0.400  10.979  0.8886  0.7771 -0.6585
19801TIP3   OH280817   4.589   3.064   1.411  0.7589 -0.1397 -0.1775
19801TIP3    H180818   4.670   3.099   1.447 -0.0139 -0.3489  1.8457
19801TIP3    H280819   4.578   2.979   1.454 -0.2716 -0.3330 -0.7997
19802TIP3   OH280820   5.867   0.730   4.679 -0.0350 -0.1470  0.2309
19802TIP3    H180821   5.842   0.722   4.771 -0.2543 -1.1089  0.0941
19802TIP3    H280822   5.959   0.701   4.677 -0.7979 -2.7335 -0.2480
19803TIP3   OH280823   6.562   5.345  16.383  0.3417  0.2877  0.5577
19803TIP3    H180824   6.541   5.327  16.475 -0.9023 -0.1885  0.1902
19803TIP3    H280825   6.492   5.404  16.353  1.7569  1.9227  0.4162
19804TIP3   OH280826   4.741   3.769  14.296  0.0436 -0.8209  0.1048
19804TIP3    H180827   4.735   3.738  14.386  0.5387  2.3333  1.2776
19804TIP3    H280828   4.835   3.763  14.275 -0.1232 -1.9575 -0.4041
19805TIP3   OH280829   0.418   1.335  11.878 -0.0125  0.1748 -0.3420
19805TIP3    H180830   0.380   1.348  11.965 -1.0228  1.7177 -0.9982
19805TIP3    H280831   0.342   1.328  11.820  0.6783  0.9263 -1.3481
19806TIP3   OH280832   3.776   0.530  14.407 -0.1366  0.3094  0.2605
19806TIP3    H180833   3.748   0.614  14.370  0.8918  1.1534  1.3640
19806TIP3    H280834   3.804   0.551  14.496  2.4540 -0.7873 -0.2613
19807TIP3   OH280835   2.283   6.521  15.769 -0.9125 -0.2595 -0.0962
19807TIP3    H180836   2.295   6.583  15.840  0.1138 -0.7215  0.1408
19807TIP3    H280837   2.217   6.459  15.801 -0.1618 -0.6995  0.6119
19808TIP3   OH280838   5.106   5.570   3.836 -0.5897  0.3682 -0.8110
19808TIP3    H180839   5.090   5.658   3.870  0.9841  0.6981 -0.8556
19808TIP3    H280840   5.181   5.539   3.887 -0.0592 -0.2764 -1.9749
19809TIP3   OH280841   1.083   6.707   1.816 -0.5101 -0.2058 -0.3264
19809TIP3    H180842   1.077   6.772   1.746 -1.7224 -2.3909 -2.3302
19809TIP3    H280843   1.177   6.695   1.829 -0.2700  2.2408  0.3959
19810TIP3   OH280844   2.546   4.614  15.826 -0.1507  0.0483 -0.1441
19810TIP3    H180845   2.524   4.707  15.816  1.0415  0.3951  0.3589
19810TIP3    H280846   2.642   4.612  15.822 -0.1197 -1.0264  0.9946
19811TIP3   OH280847   1.204   0.704  11.359 -0.0399  0.0645 -0.3203
19811TIP3    H180848   1.161   0.713  11.274  1.3270 -0.1345 -1.0641
19811TIP3    H280849   1.294   0.735  11.343  0.8956 -2.1678  0.4427
19812TIP3   OH280850   6.073   5.295   3.079  0.5734 -0.6813  0.0238
19812TIP3    H180851   6.012   5.262   3.014 -1.7263 -0.4015  1.9837
19812TIP3    H280852   6.044   5.256   3.162  0.3203  2.8931  1.7209
19813TIP3   OH280853   2.421   2.020  12.538 -0.0043  0.1961 -0.3050
19813TIP3    H180854   2.391   2.106  12.508  0.3667  0.9931  1.5131
19813TIP3    H280855   2.345   1.984  12.585  0.4708  0.3856  0.6246
19814TIP3   OH280856   5.074   5.578  16.731  0.3604  0.2967  0.3065
19814TIP3    H180857   5.019   5.611  16.803  0.3736  1.2643 -0.1111
19814TIP3    H280858   5.081   5.484  16.747 -0.4191  0.3557  1.0453
19815TIP3   OH280859   6.028   3.906   1.430  0.5067 -0.2218  0.1074
19815TIP3    H180860   6.001   3.902   1.522 -0.1556  0.9079 -0.0320
19815TIP3    H280861   5.985   3.830   1.390 -1.5162  0.8460  0.1613
19816TIP3   OH280862   2.488   1.813  15.977 -0.1177 -0.1791 -0.6243
19816TIP3    H180863   2.529   1.756  16.042 -0.7656 -0.7367 -0.6962
19816TIP3    H280864   2.468   1.893  16.025  2.5542  0.7464 -0.9890
19817TIP3   OH280865   2.737   6.329   5.201 -0.2619 -0.1882  0.1584
19817TIP3    H180866   2.817   6.298   5.243  0.2156  0.7046 -0.0816
19817TIP3    H280867   2.742   6.295   5.112  1.2221  2.1608 -0.7095
19818TIP3   OH280868   2.767   4.986   2.253 -0.6785  0.2324 -0.0053
19818TIP3    H180869   2.832   4.984   2.183 -0.7989 -0.8919 -0.0895
19818TIP3    H280870   2.708   5.057   2.230 -0.4534  0.1574 -0.8105
19819TIP3   OH280871   3.862   1.612  13.095 -0.5496 -0.7863 -0.2255
19819TIP3    H180872   3.783   1.558  13.095 -1.0090 -0.1134  0.1825
19819TIP3    H280873   3.890   1.616  13.186 -0.3951 -0.5026 -0.2845
19820TIP3   OH280874   1.562   1.827   4.470  0.0005  0.2558  0.2942
19820TIP3    H180875   1.553   1.785   4.384  1.3861  0.4504  0.0360
19820TIP3    H280876   1.523   1.913   4.459 -1.0942 -0.2340  0.2673
19821TIP3   OH280877   3.073   6.095   0.031  0.0272  0.4599 -0.2182
19821TIP3    H180878   2.992   6.115   0.077 -0.6216 -2.7923  0.1916
19821TIP3    H280879   3.049   6.095  -0.062 -0.9140 -2.2309 -0.0137
19822TIP3   OH280880   3.736   0.465  16.466 -0.2634 -0.1202 -0.3215
19822TIP3    H180881   3.686   0.483  16.386 -1.8411  1.0492  0.8890
19822TIP3    H280882   3.810   0.526  16.463 -0.8611  0.6021 -0.4140
19823TIP3   OH280883   5.857   5.697  11.381 -0.1129 -0.0937 -0.4670
19823TIP3    H180884   5.843   5.750  11.460 -0.8577 -0.6537 -0.2143
19823TIP3    H280885   5.771   5.656  11.364  0.6329 -1.8001 -0.2259
19824TIP3   OH280886   3.083   3.175   1.795 -0.5013 -0.2003  0.0699
19824TIP3    H180887   3.015   3.153   1.858 -0.6351 -0.1330 -0.0500
19824TIP3    H280888   3.109   3.264   1.818 -0.6220 -0.1382 -0.0341
19825TIP3   OH280889   4.285   4.869   5.109 -0.3608 -0.0485 -0.7235
19825TIP3    H180890   4.202   4.842   5.149  0.0442  1.5465  1.2992
19825TIP3    H280891   4.350   4.807   5.144 -0.6812 -1.3973 -2.4325
19826TIP3   OH280892   5.901   4.463  10.825 -0.4160 -0.0581 -0.0774
19826TIP3    H180893   5.977   4.513  10.853 -0.3384  0.4460 -1.1766
19826TIP3    H280894   5.871   4.419  10.904  0.0298  1.0383  0.7089
19827TIP3   OH280895   4.499   1.180   0.616  0.1737 -0.0592  0.4606
19827TIP3    H180896   4.554   1.198   0.540 -0.5795  1.3480  0.2252
19827TIP3    H280897   4.518   1.089   0.639  0.1754 -0.6157 -1.6252
19828TIP3   OH280898   3.555   1.195   4.634  0.3707  0.1309 -0.9302
19828TIP3    H180899   3.507   1.187   4.552  0.6868 -1.0275 -1.0157
19828TIP3    H280900   3.504   1.142   4.696  0.8227 -0.0425 -0.7024
19829TIP3   OH280901   1.876   0.047   5.985 -0.1096  0.1418  0.5802
19829TIP3    H180902   1.905  -0.020   6.047  0.3122  0.7274  1.0299
19829TIP3    H280903   1.866   0.126   6.039  1.2960  0.9362 -0.2852
19830TIP3   OH280904   6.040   0.333   0.611  0.1749  0.6858  0.0885
19830TIP3    H180905   6.001   0.250   0.638 -0.8533  1.0848 -0.1402
19830TIP3    H280906   6.045   0.384   0.691 -0.7397  1.0158 -0.0595
19831TIP3   OH280907   6.734   5.886   2.113 -0.2070 -0.0695 -0.2104
19831TIP3    H180908   6.731   5.820   2.182  0.4287 -0.5109 -0.5947
19831TIP3    H280909   6.828   5.902   2.099 -0.2599 -1.2467 -2.1306
19832TIP3   OH280910   2.860   6.464  12.131  0.4546  0.0093  0.4987
19832TIP3    H180911   2.930   6.528  12.145 -1.3129  2.2173 -0.5725
19832TIP3    H280912   2.873   6.400  12.201  1.8444  1.9050  2.0428
19833TIP3   OH280913   5.524   0.424  16.702 -0.3015  0.2116 -0.3609
19833TIP3    H180914   5.492   0.489  16.764 -2.2206  0.4046 -1.4939
19833TIP3    H280915   5.473   0.346  16.721  0.6315 -0.3871 -0.2808
19834TIP3   OH280916   5.527   3.831  13.540  0.1534  0.3293 -1.1293
19834TIP3    H180917   5.567   3.917  13.532  0.0041  0.6012  0.9657
19834TIP3    H280918   5.597   3.774  13.573 -0.4991  0.2738  0.1940
19835TIP3   OH280919   2.208   2.971   3.249 -0.3828 -0.3258  0.3985
19835TIP3    H180920   2.122   2.998   3.215  0.0719 -1.0672 -1.3941
19835TIP3    H280921   2.246   3.052   3.284 -1.0871  0.3845 -0.4198
19836TIP3   OH280922   4.404   5.268   5.715 -0.2722 -0.0264 -0.0082
19836TIP3    H180923   4.331   5.302   5.766 -0.1408  0.8958 -0.4255
19836TIP3    H280924   4.440   5.197   5.769  0.2754  1.3464  1.4974
19837TIP3   OH280925   3.657   4.773  12.844 -0.0177  0.1618  0.1803
19837TIP3    H180926   3.658   4.726  12.927 -3.6790 -0.5398 -0.0864
19837TIP3    H280927   3.746   4.804  12.833  0.4011  0.8934  4.7036
19838TIP3   OH280928   0.810   6.190   3.796  0.2567  0.0886 -1.0292
19838TIP3    H180929   0.753   6.127   3.753  0.0170  0.1880 -0.8573
19838TIP3    H280930   0.765   6.274   3.788  0.5755  0.2425 -1.2597
19839TIP3   OH280931   3.286   4.106  16.681  0.4771  0.5186 -0.4980
19839TIP3    H180932   3.244   4.032  16.724  0.7974 -0.2862 -1.5456
19839TIP3    H280933   3.361   4.127  16.738 -0.9594  1.5715  1.0475
19840TIP3   OH280934   4.221   1.785  11.405  0.3165 -0.6452  0.2279
19840TIP3    H180935   4.177   1.709  11.443 -1.0953 -0.2009 -0.4958
19840TIP3    H280936   4.271   1.822  11.478 -2.0294 -0.0464  1.6027
19841TIP3   OH280937   3.910   2.525  14.331  0.5763 -0.2554 -0.5161
19841TIP3    H180938   3.932   2.614  14.302  0.3061  0.1707  0.5932
19841TIP3    H280939   3.990   2.475  14.315  0.8314  0.2468 -0.8563
19842TIP3   OH280940   4.479   5.507  12.773  0.9342  0.4411  0.2609
19842TIP3    H180941   4.428   5.476  12.848 -1.0518 -0.2405 -1.3082
19842TIP3    H280942   4.563   5.463  12.782  0.7037  0.3062  2.0512
19843TIP3   OH280943   3.139   0.190  10.883 -0.3280  0.1250 -0.0376
19843TIP3    H180944   3.224   0.226  10.909 -0.1940  1.4796 -2.1671
19843TIP3    H280945   3.086   0.268  10.865 -0.6544 -0.6756 -2.8204
19844TIP3   OH280946   4.078   1.204  15.874 -0.8644  0.9645 -0.2622
19844TIP3    H180947   4.143   1.274  15.869 -0.9186  1.1983  1.9509
19844TIP3    H280948   3.995   1.247  15.851 -0.6369  1.2251 -0.6102
19845TIP3   OH280949   4.440   6.233  14.069 -0.6252 -0.2029 -0.4159
19845TIP3    H180950   4.467   6.300  14.008  0.5743 -0.0502  0.2710
19845TIP3    H280951   4.456   6.150  14.023 -2.6171 -0.0320 -1.4712
19846TIP3   OH280952   4.695   2.590  12.228  0.5445 -0.5059  0.5860
19846TIP3    H180953   4.722   2.506  12.263  0.3808 -0.4707  0.7949
19846TIP3    H280954   4.647   2.568  12.147  1.9343 -0.5209 -0.2463
19847TIP3   OH280955   4.067   1.340  11.763 -0.3437 -0.4197  0.4187
19847TIP3    H180956   4.041   1.427  11.731 -3.9729 -1.8272 -0.6568
19847TIP3    H280957   4.043   1.280  11.692  0.9608 -2.4758  1.6640
19848TIP3   OH280958   5.457   5.116   0.887  0.4956  0.1156 -0.2134
19848TIP3    H180959   5.457   5.088   0.978  0.5043 -0.5025 -0.4036
19848TIP3    H280960   5.492   5.205   0.890  2.4143 -0.6221  0.1690
19849TIP3   OH280961   1.466   4.820  13.003 -0.4620 -0.0718 -0.5287
19849TIP3    H180962   1.545   4.874  12.999  0.8562 -2.0393 -1.0553
19849TIP3    H280963   1.402   4.868  12.950  0.6212  1.1098 -0.7908
19850TIP3   OH280964   4.300   3.413   3.552 -0.7347 -0.2093  0.3618
19850TIP3    H180965   4.286   3.452   3.466 -2.9870 -1.8430 -0.0230
19850TIP3    H280966   4.333   3.325   3.534  0.6387  0.1094  1.2114
19851TIP3   OH280967   1.280   0.939   1.661  0.0240  0.0305 -0.5836
19851TIP3    H180968   1.215   0.909   1.598 -0.5690  0.4104 -0.1645
19851TIP3    H280969   1.358   0.886   1.644  0.1918  0.7984 -2.2704
19852TIP3   OH280970   2.344   5.316  11.904  0.6591  0.2968 -0.2254
19852TIP3    H180971   2.384   5.247  11.851 -0.7539  0.3058 -1.3163
19852TIP3    H280972   2.417   5.376  11.923  1.4146 -0.2844 -1.2120
19853TIP3   OH280973   2.401   5.617  14.268  0.5294  0.3612  0.3948
19853TIP3    H180974   2.478   5.637  14.321  0.8469  0.4211 -0.0883
19853TIP3    H280975   2.437   5.593  14.183 -0.0092  0.8116  0.0412
19854TIP3   OH280976   6.527   0.910   2.169 -0.6636  0.3155  0.1932
19854TIP3    H180977   6.431   0.911   2.170 -0.7112 -1.3469 -0.9358
19854TIP3    H280978   6.551   0.956   2.089 -0.5106  0.8478  0.5433
19855TIP3   OH280979   5.505   6.772   5.326  1.0013 -1.1149  0.2332
19855TIP3    H180980   5.553   6.709   5.380  1.5901 -1.6003 -0.8382
19855TIP3    H280981   5.534   6.754   5.236 -0.0004 -0.3556 -0.2561
19856TIP3   OH280982   4.038   3.940  12.907 -0.8765 -0.2238 -0.3631
19856TIP3    H180983   4.020   3.853  12.873 -0.1498 -0.1272 -1.0119
19856TIP3    H280984   4.076   3.987  12.833 -2.3761  1.0214 -0.3834
19857TIP3   OH280985   6.734   2.845  16.556 -0.6262 -0.0251 -0.0644
19857TIP3    H180986   6.743   2.787  16.481 -1.3742  0.9679 -0.9247
19857TIP3    H280987   6.704   2.928  16.520 -2.4581  0.0388  1.4669
19858TIP3   OH280988   6.578   6.688  16.071 -0.0504  0.2438  0.5646
19858TIP3    H180989   6.581   6.738  16.153 -1.0588 -2.4213  2.2769
19858TIP3    H280990   6.492   6.647  16.071  0.2818 -0.4899 -1.4272
19859TIP3   OH280991   0.355   1.872   6.412 -0.2703  0.3261  0.3519
19859TIP3    H180992   0.411   1.855   6.487 -1.6021 -1.7970  0.8908
19859TIP3    H280993   0.297   1.796   6.407 -0.8295  0.8774 -2.2495
19860TIP3   OH280994   3.379   4.739   2.492 -0.9089  0.4333 -0.5892
19860TIP3    H180995   3.385   4.719   2.585 -1.4181  1.5833 -0.3106
19860TIP3    H280996   3.434   4.816   2.480  0.9404 -0.9952 -1.6519
19861TIP3   OH280997   0.025   4.961  14.990  0.3730  0.1973  0.1750
19861TIP3    H180998  -0.035   4.887  15.005 -0.6330  0.8784 -0.4500
19861TIP3    H280999   0.018   5.014  15.069  0.2303  0.2166  0.1499
19862TIP3   OH281000   3.303   4.098   4.922 -0.6370  0.4194 -0.5669
19862TIP3    H181001   3.241   4.123   4.990  2.5176  2.9595  1.5488
19862TIP3    H281002   3.283   4.155   4.849 -0.1614  1.9509  0.4761
19863TIP3   OH281003   0.027   2.169   3.423  0.1905  0.4949 -0.6312
19863TIP3    H181004   0.080   2.142   3.498  1.1688  2.6545 -0.5182
19863TIP3    H281005   0.079   2.144   3.347  0.7161  1.2816 -0.5358
19864TIP3   OH281006   0.139   2.579  15.191 -0.5700 -0.4700  0.2672
19864TIP3    H181007   0.126   2.660  15.140 -2.8721 -1.5397 -0.9472
19864TIP3    H281008   0.200   2.527  15.139 -1.0530 -0.5547 -0.2201
19865TIP3   OH281009   0.746   4.869   1.788  0.6671  0.4704 -0.6092
19865TIP3    H181010   0.809   4.797   1.794  1.4194  1.1899  0.2301
19865TIP3    H281011   0.721   4.886   1.878 -1.1947 -0.1858 -0.9731
19866TIP3   OH281012   4.064   0.057  13.238  0.1593  0.5260 -0.2452
19866TIP3    H181013   4.128  -0.008  13.209  0.5776  0.9521 -0.3012
19866TIP3    H281014   4.101   0.141  13.208 -0.2823  0.8013 -0.0223
19867TIP3   OH281015   6.175   6.389   0.853  0.1744  0.0180  0.1497
19867TIP3    H181016   6.107   6.447   0.889  0.7761  0.2665  0.8984
19867TIP3    H281017   6.230   6.446   0.800 -0.2237 -0.1891 -0.4818
19868TIP3   OH281018   0.138   5.454   4.570  0.7049  0.6011  0.1728
19868TIP3    H181019   0.134   5.385   4.636 -1.7196  2.3025  1.9138
19868TIP3    H281020   0.065   5.436   4.510  0.0561  1.5992  0.6370
19869TIP3   OH281021   2.120   4.629   2.260  0.2284  0.6198 -0.3378
19869TIP3    H181022   2.045   4.628   2.200  0.2587 -2.1469 -0.4081
19869TIP3    H281023   2.191   4.590   2.209  1.0867  1.0844  0.5003
19870TIP3   OH281024   4.874   4.777   0.959  0.3427  0.2536 -1.0104
19870TIP3    H181025   4.826   4.768   0.877 -1.5893  2.3621 -0.1760
19870TIP3    H281026   4.841   4.705   1.014  1.0210 -0.6522 -1.7725
19871TIP3   OH281027   4.783   2.825  16.647  0.0572 -0.2044  0.3307
19871TIP3    H181028   4.741   2.884  16.585  1.9867  1.8798  0.9654
19871TIP3    H281029   4.747   2.851  16.732 -0.0699 -0.8366  0.4721
19872TIP3   OH281030   2.851   0.862  16.069 -0.0359 -0.0261 -0.0395
19872TIP3    H181031   2.849   0.825  16.157 -0.3232 -1.8835 -0.7967
19872TIP3    H281032   2.941   0.892  16.057  0.4229 -1.2178  0.3265
19873TIP3   OH281033   1.140   2.884  11.418 -0.3479 -0.4397 -0.3090
19873TIP3    H181034   1.057   2.929  11.405 -0.8865 -1.5955 -0.9398
19873TIP3    H281035   1.148   2.825  11.344  1.0970 -0.2688 -0.3147
19874TIP3   OH281036   2.658   6.254  13.785  0.4754  0.7557  0.1991
19874TIP3    H181037   2.666   6.231  13.692 -1.3733  2.4397 -0.4167
19874TIP3    H281038   2.739   6.223  13.824  0.9277 -0.7355 -1.8282
19875TIP3   OH281039   3.800   5.312   1.879  0.1781  0.4091  0.6679
19875TIP3    H181040   3.860   5.263   1.822 -1.5312  1.5032 -2.1958
19875TIP3    H281041   3.787   5.255   1.954  0.7208 -2.1627 -1.0965
19876TIP3   OH281042   6.106   2.428  13.018 -0.3891 -0.2992  0.5176
19876TIP3    H181043   6.072   2.441  13.106 -0.9687  2.0494 -0.0247
19876TIP3    H281044   6.052   2.484  12.963  3.3531  2.3738 -0.5947
19877TIP3   OH281045   5.940   5.883  11.204  0.3299  0.5242 -0.0984
19877TIP3    H181046   5.945   5.806  11.260  0.8565 -0.0060 -0.8628
19877TIP3    H281047   5.849   5.885  11.174  1.0570 -1.7279 -2.7121
19878TIP3   OH281048   6.041   1.796  12.718  0.4285 -0.2673 -0.4094
19878TIP3    H181049   6.100   1.849  12.665 -0.1257  0.5542 -0.2041
19878TIP3    H281050   5.965   1.851  12.733 -0.4095 -1.3275 -0.6847
19879TIP3   OH281051   6.084   2.912  10.991 -0.6348  0.4146 -0.4009
19879TIP3    H181052   6.054   2.983  11.048 -0.6344 -1.0043  1.3951
19879TIP3    H281053   6.167   2.884  11.028 -1.4593 -1.6723 -0.0776
19880TIP3   OH281054   5.466   0.877   4.322  0.4635  0.0154  0.0722
19880TIP3    H181055   5.451   0.785   4.344  0.3836 -0.0704 -0.3325
19880TIP3    H281056   5.442   0.925   4.401 -2.5920 -0.0643 -0.7328
19881TIP3   OH281057   6.418   6.166   0.697  0.0845 -0.2310 -0.4180
19881TIP3    H181058   6.423   6.178   0.792  0.3308 -0.0601 -0.4523
19881TIP3    H281059   6.489   6.219   0.662 -1.3412  1.4588 -0.8425
19882TIP3   OH281060   0.137   0.566   4.911 -0.2708  0.3966  0.4701
19882TIP3    H181061   0.083   0.506   4.963 -0.7255  1.0441  0.7663
19882TIP3    H281062   0.180   0.511   4.846  0.4788 -0.4718  1.6772
19883TIP3   OH281063   5.841   5.817  10.338 -0.5468  0.3662 -0.1669
19883TIP3    H181064   5.913   5.825  10.401 -1.0669 -1.1693  0.6540
19883TIP3    H281065   5.859   5.884  10.272  0.8418  0.9697  0.8053
19884TIP3   OH281066   5.561   0.755  11.642  0.1995  0.1169 -0.0496
19884TIP3    H181067   5.508   0.814  11.694 -0.5673  0.2961 -1.0216
19884TIP3    H281068   5.651   0.772  11.671 -0.3781 -1.3620  2.7705
19885TIP3   OH281069   3.589   2.774   2.711 -0.4783  0.3120 -0.3159
19885TIP3    H181070   3.528   2.704   2.691  1.8529 -1.7811 -0.2971
19885TIP3    H281071   3.594   2.774   2.807  1.3189 -1.1224 -0.3891
19886TIP3   OH281072   1.496   4.192   0.530 -0.0381 -0.2029  0.5802
19886TIP3    H181073   1.566   4.238   0.483 -0.2491  0.2881  0.7495
19886TIP3    H281074   1.453   4.260   0.581 -2.5818  0.1029 -1.8410
19887TIP3   OH281075   3.621   5.212  15.053 -0.3836 -0.3876 -0.3109
19887TIP3    H181076   3.620   5.289  14.994  0.0635  0.2105  0.4560
19887TIP3    H281077   3.607   5.138  14.994  0.1194  0.1955 -1.1976
19888TIP3   OH281078   2.094   3.991   1.327  0.3055 -0.0963 -0.5729
19888TIP3    H181079   2.147   3.964   1.252  0.4935  1.2069 -0.9197
19888TIP3    H281080   2.005   3.968   1.303  0.2953  0.8441 -1.4490
19889TIP3   OH281081   5.703   2.730   5.148 -0.6323  0.3381  0.3505
19889TIP3    H181082   5.770   2.696   5.208 -0.7206 -0.5642 -0.0480
19889TIP3    H281083   5.650   2.788   5.202  0.4626  1.0503  0.6763
19890TIP3   OH281084   2.010   6.466   4.115 -0.0937  0.2169  0.2552
19890TIP3    H181085   1.960   6.416   4.180  1.5092 -0.0875  1.2888
19890TIP3    H281086   1.963   6.549   4.108 -0.0217  0.4625  2.2256
19891TIP3   OH281087   1.203   0.925  14.585  0.2495  1.2672  0.4932
19891TIP3    H181088   1.250   0.842  14.597 -0.8249  0.4741 -0.6938
19891TIP3    H281089   1.194   0.960  14.673 -0.3506 -0.4649  1.1397
19892TIP3   OH281090   0.383   0.547  13.262  0.2427  0.9214  0.3640
19892TIP3    H181091   0.316   0.507  13.317  0.4393  0.1685  0.0480
19892TIP3    H281092   0.462   0.495  13.277  0.3769  0.8955 -0.4105
19893TIP3   OH281093   4.522   4.518   3.357 -0.0988  0.0652 -0.1480
19893TIP3    H181094   4.606   4.471   3.359 -1.9176 -3.3532 -0.9678
19893TIP3    H281095   4.510   4.539   3.264 -0.5155 -0.1391 -0.1379
19894TIP3   OH281096   5.235   3.883  12.897 -0.1580 -0.0575 -0.4709
19894TIP3    H181097   5.228   3.914  12.987  1.4832  0.7688 -0.5991
19894TIP3    H281098   5.145   3.884  12.863 -1.2234 -3.3352  2.0907
19895TIP3   OH281099   5.585   3.710  14.732 -0.5237  0.0246  0.4216
19895TIP3    H181100   5.676   3.682  14.725 -0.1612  1.1695  0.5601
19895TIP3    H281101   5.557   3.679  14.819 -0.3930 -0.6890  0.2077
19896TIP3   OH281102   2.985   5.927  16.612 -0.1760  0.1728 -0.2049
19896TIP3    H181103   3.031   6.010  16.616  1.4781 -0.7565  1.0571
19896TIP3    H281104   3.049   5.866  16.575  0.0276 -1.3585  2.5011
19897TIP3   OH281105   4.497   2.072   1.533  0.2224  0.0302 -0.4129
19897TIP3    H181106   4.466   2.123   1.459 -1.7147 -0.1101  0.2636
19897TIP3    H281107   4.532   1.992   1.495  2.8471  1.6383 -1.4418
19898TIP3   OH281108   2.402   1.841  14.098 -0.2914 -0.3009  0.0410
19898TIP3    H181109   2.361   1.777  14.156 -0.7609  1.9246  2.2675
19898TIP3    H281110   2.491   1.808  14.086 -0.8520 -1.9290  0.2711
19899TIP3   OH281111   3.456   5.105   5.665  0.4304  0.3497  0.4409
19899TIP3    H181112   3.507   5.042   5.717 -0.3243  0.2758  1.0900
19899TIP3    H281113   3.432   5.173   5.727  0.7182  0.9765 -0.1290
19900TIP3   OH281114   5.826   4.970  12.407  0.3418 -0.2919  0.4176
19900TIP3    H181115   5.866   4.894  12.364 -1.3324 -0.7349 -0.3876
19900TIP3    H281116   5.819   5.035  12.337 -1.0122 -0.4773  0.3732
19901TIP3   OH281117   2.451   5.543  13.828 -0.2766  0.5730  0.2126
19901TIP3    H181118   2.358   5.532  13.809 -0.3643  0.9015  0.4378
19901TIP3    H281119   2.465   5.492  13.908 -0.4759  1.3004  0.7221
19902TIP3   OH281120   5.307   5.156   3.669  0.0594  0.3131 -0.0257
19902TIP3    H181121   5.296   5.066   3.639 -1.0536  0.2823  0.4485
19902TIP3    H281122   5.261   5.209   3.604 -0.3574  0.4330  0.3655
19903TIP3   OH281123   5.011   0.176  11.481 -0.3191  0.4648 -0.0294
19903TIP3    H181124   5.084   0.172  11.542  1.0049  0.4477 -1.5624
19903TIP3    H281125   4.972   0.089  11.484 -1.4237  1.0165  2.1385
19904TIP3   OH281126   5.359   5.336   0.566 -0.0759 -0.0209  0.8267
19904TIP3    H181127   5.362   5.380   0.481 -2.3706  0.5665  1.0100
19904TIP3    H281128   5.433   5.372   0.614 -0.2225  1.5116 -0.0480
19905TIP3   OH281129   1.666   1.181  12.053  0.5311  0.3111 -0.6783
19905TIP3    H181130   1.744   1.128  12.071  0.2410 -0.2321 -1.0009
19905TIP3    H281131   1.603   1.155  12.121  0.6793  0.8495 -0.3341
19906TIP3   OH281132   5.190   1.201  14.440  0.1168  0.2570  0.4683
19906TIP3    H181133   5.163   1.288  14.470  0.8201  0.7531 -0.2966
19906TIP3    H281134   5.161   1.197  14.349  0.1118 -0.3010  0.4924
19907TIP3   OH281135   5.993   1.867   4.409  0.3683 -0.3926  0.7048
19907TIP3    H181136   6.080   1.840   4.439 -0.1157 -2.2664  0.4754
19907TIP3    H281137   6.009   1.913   4.327  1.2162  0.0011  1.0852
19908TIP3   OH281138   5.560   2.421   3.302  0.3924 -0.1772  0.2350
19908TIP3    H181139   5.534   2.501   3.348  0.4537  0.3905 -0.7095
19908TIP3    H281140   5.479   2.384   3.269  0.2392 -1.0865  1.5758
19909TIP3   OH281141   6.436   1.337   2.114  0.7322 -0.7071 -0.0005
19909TIP3    H181142   6.352   1.344   2.069  0.8257  2.1574  0.1671
19909TIP3    H281143   6.501   1.363   2.049  1.3737 -1.6611  0.2495
19910TIP3   OH281144   3.907   1.677   4.647 -0.2496 -0.0058 -0.1976
19910TIP3    H181145   3.987   1.661   4.597 -0.7985 -0.5944 -0.8970
19910TIP3    H281146   3.935   1.673   4.738  0.6195  0.3320 -0.4438
19911TIP3   OH281147   1.291   2.208  12.014 -0.0547  0.2365 -0.2723
19911TIP3    H181148   1.315   2.175  11.928  2.2110  0.4676  0.2398
19911TIP3    H281149   1.228   2.143  12.048  2.5649 -2.3596 -0.2140
19912TIP3   OH281150   4.458   2.149  13.401 -0.2909 -0.1143 -0.4024
19912TIP3    H181151   4.475   2.078  13.463 -0.4401  0.6580  0.5282
19912TIP3    H281152   4.418   2.218  13.454  0.6947  1.0265 -1.1162
19913TIP3   OH281153   0.325   3.873   1.975  0.3040  0.2603 -0.6687
19913TIP3    H181154   0.371   3.821   2.040  0.8231  0.8225 -0.5826
19913TIP3    H281155   0.246   3.904   2.019  0.3449  0.1227 -0.5024
19914TIP3   OH281156   0.023   5.672  12.801  0.3532 -0.4537 -0.5903
19914TIP3    H181157   0.052   5.715  12.882  0.2256 -0.0327 -0.7642
19914TIP3    H281158   0.093   5.611  12.780  0.4471 -0.4738 -0.2290
19915TIP3   OH281159   6.004   1.248  15.716 -0.2377  0.2091  0.0658
19915TIP3    H181160   6.025   1.300  15.793  0.4108  0.3071 -0.1743
19915TIP3    H281161   6.088   1.238  15.670 -0.8905  1.4191 -1.4163
19916TIP3   OH281162   6.232   4.787  14.489  0.6882  0.0092 -0.0138
19916TIP3    H181163   6.186   4.867  14.515  0.1951 -0.3177  0.1200
19916TIP3    H281164   6.231   4.732  14.567 -0.7905 -0.9659 -0.6963
19917TIP3   OH281165   0.544   3.582   3.499  0.4586 -0.7067  0.1637
19917TIP3    H181166   0.548   3.668   3.456 -2.1100 -0.2580  0.7520
19917TIP3    H281167   0.615   3.585   3.564 -0.0546  1.2652  0.6808
19918TIP3   OH281168   2.135   2.610  16.471 -0.0432 -0.7262  0.0400
19918TIP3    H181169   2.109   2.698  16.447 -0.8782 -0.7322  0.8708
19918TIP3    H281170   2.219   2.620  16.515  1.4474 -0.7125 -2.7528
19919TIP3   OH281171   0.059   1.978   1.416  0.5576  0.0793  0.2449
19919TIP3    H181172   0.037   1.899   1.367  0.9918 -0.5976  1.1167
19919TIP3    H281173   0.040   1.955   1.507  0.2734  1.1291  0.4530
19920TIP3   OH281174   3.416   2.823   6.186 -0.3206  0.4714 -0.6597
19920TIP3    H181175   3.452   2.760   6.124  0.2076  2.0453 -1.9957
19920TIP3    H281176   3.331   2.848   6.149 -1.2492 -0.5907  0.6723
19921CLA    CLA81177   5.521   0.634   2.150  0.0295  0.3514  0.0617
19922LIG     O181178   3.454   2.768  16.292  0.5109 -0.1534  0.2084
19922LIG     O281179   3.101   2.723  16.551 -0.3603  0.1187  0.6143
19922LIG     O381180   3.678   2.778  16.299  0.3535 -0.2129 -0.2478
19922LIG     O481181   3.458   2.985  16.105  0.0043 -0.2412 -0.1047
19922LIG      N81182   3.293   2.402  16.443 -0.3617 -0.2519  0.1053
19922LIG     C181183   3.278   2.435  16.299 -0.0998 -0.6593 -0.2266
19922LIG     C281184   3.438   2.419  16.464  0.5184 -1.0492 -0.0608
19922LIG     C381185   3.309   2.580  16.259  0.0512  0.0913 -1.0006
19922LIG     C481186   3.492   2.564  16.430  0.0057  0.5375 -0.9254
19922LIG     C581187   3.450   2.623  16.293 -0.0394 -0.0327  0.9219
19922LIG     C681188   3.220   2.501  16.535 -0.9267  0.8371  0.4596
19922LIG     C781189   3.241   2.264  16.471  0.4070 -0.5305 -0.2184
19922LIG     C881190   3.067   2.496  16.533 -0.0470  0.1802  0.3062
19922LIG     C981191   3.032   2.622  16.618  0.1631 -0.1524 -0.3705
19922LIG    C1081192   3.571   2.829  16.273  0.1298  0.2419 -0.0255
19922LIG    C1181193   3.551   2.977  16.213  0.1180  0.6255 -0.1931
19922LIG    C1281194   3.705   3.003  16.176 -0.0968  0.5952  0.1364
19922LIG    C1381195   3.513   3.079  16.324  0.6413  0.1406 -0.5165
19922LIG    C1481196   3.126   2.846  16.613 -0.0370 -0.1013  0.6681
19922LIG    C1581197   3.747   2.988  16.038 -0.5040  0.6421  0.3959
19922LIG    C1681198   3.481   3.213  16.278  0.0869  0.3572  0.0815
19922LIG    C1781199   3.806   3.037  16.269 -0.1599  0.1714 -0.6630
19922LIG    C1881200   3.518   3.051  16.460 -0.6042 -0.0668  0.0364
19922LIG    C1981201   3.145   2.853  16.753  0.1787 -0.0044  0.4016
19922LIG    C2081202   3.135   2.961  16.533  0.5457 -0.2243  0.6591
19922LIG    C2181203   3.878   3.009  16.006 -0.0303  0.1893 -0.0560
19922LIG    C2281204   3.452   3.311  16.373 -0.7409  0.0287 -0.4241
19922LIG    C2381205   3.940   3.049  16.236 -0.8985 -0.1765 -0.6894
19922LIG    C2481206   3.495   3.154  16.550  0.5309  0.5120  0.1007
19922LIG    C2581207   3.975   3.036  16.102 -0.5412 -0.2408  0.1901
19922LIG    C2681208   3.455   3.279  16.505  0.2126  0.4810 -0.7322
19922LIG    C2781209   3.158   2.977  16.815  0.4563 -0.1836 -0.3765
19922LIG    C2881210   3.137   3.086  16.603 -0.4018  0.0787  0.4283
19922LIG    C2981211   3.146   3.089  16.743 -0.6686 -0.3242  0.9108
19922LIG     H181212   3.179   2.408  16.265  1.0952 -0.6436 -3.9301
19922LIG     H281213   3.340   2.374  16.234  0.7720 -1.8811  1.7321
19922LIG     H381214   3.497   2.351  16.405  0.6044  0.6853 -2.0032
19922LIG     H481215   3.460   2.414  16.570  0.4188  1.6913  0.1189
19922LIG     H581216   3.242   2.655  16.306  1.7909  0.1273  1.5375
19922LIG     H681217   3.288   2.593  16.151 -0.5770  2.2019 -0.6475
19922LIG     H781218   3.602   2.583  16.437  0.8185 -3.5084 -1.1725
19922LIG     H881219   3.451   2.626  16.512  1.9408 -2.0166  2.1109
19922LIG     H981220   3.517   2.591  16.210 -3.2178 -0.7045 -1.4537
19922LIG    H1081221   3.256   2.597  16.503 -0.6150  1.0476  1.4389
19922LIG    H1181222   3.261   2.497  16.635 -1.6567  0.5448  0.7555
19922LIG    H1281223   3.269   2.231  16.570 -1.3359  3.1839  1.5991
19922LIG    H1381224   3.277   2.189  16.403  1.1791  0.5569 -1.0215
19922LIG    H1481225   3.133   2.271  16.467  0.2377 -0.7975  2.8144
19922LIG    H1581226   3.030   2.404  16.584  0.0477 -0.8144 -1.3913
19922LIG    H1681227   3.031   2.505  16.428 -0.7796 -0.2731  0.5132
19922LIG    H1781228   2.925   2.649  16.606  0.4958  1.2946 -0.0883
19922LIG    H1881229   3.054   2.616  16.727 -2.3351  0.9355  0.2104
19922LIG    H1981230   3.373   2.947  16.128 -0.5815  0.4678 -1.0377
19922LIG    H2081231   3.673   2.952  15.967 -0.1166 -0.2758  0.4490
19922LIG    H2181232   3.485   3.229  16.172 -2.1320 -1.6048 -0.3579
19922LIG    H2281233   3.781   3.039  16.374 -1.7067  0.4427 -1.0278
19922LIG    H2381234   3.551   2.955  16.497  1.8620  1.3105  1.5528
19922LIG    H2481235   3.162   2.766  16.814 -0.4161 -0.5985 -0.2644
19922LIG    H2581236   3.116   2.943  16.428 -0.1410 -1.2882  0.9655
19922LIG    H2681237   3.902   3.003  15.901 -1.9271  1.2299 -0.5682
19922LIG    H2781238   3.431   3.410  16.337  1.3405 -0.1912 -2.3862
19922LIG    H2881239   4.019   3.061  16.309  0.0159 -1.3298 -1.4692
19922LIG    H2981240   3.494   3.127  16.654 -0.7561  1.8469  0.4413
19922LIG    H3081241   4.075   3.046  16.064 -0.6006 -1.9480 -0.4658
19922LIG    H3181242   3.425   3.354  16.577 -2.4839  0.1416 -1.4396
19922LIG    H3281243   3.157   2.983  16.922  1.2153 -0.9095 -0.3314
19922LIG    H3381244   3.121   3.177  16.547  0.4339  0.2059  0.3822
19922LIG    H3481245   3.140   3.176  16.807  3.9419  2.4742 -2.1844
   6.78697   6.78697  17.23950
